 vasp.6.2.1 16May21 (build Nov 15 2021 14:57:28) complex                         
 executed on             LinuxPGI date 2023.07.25  01:39:47
 running on    4 total cores
 distrk:  each k-point on    4 cores,    1 groups
 distr:  one band on NCORE=   1 cores,    4 groups


--------------------------------------------------------------------------------------------------------


 INCAR:
   SYSTEM = PSC
   ISTART = 1
   ICHARG = 1
   PREC = Normal
   ENCUT = 500
   GGA_COMPAT = F
   NELM = 600
   ISYM = 0
   LREAL = Auto
   ISMEAR = 0
   SIGMA = 0.05
   AMIN = 0.01
   BMIX = 0.01
   LVTOT = T
   LWAVE = F
   LDIPOL = T
   IDIPOL = 3
   LVDW = T
   IVDW = 12

 POTCAR:    PAW_PBE H 15Jun2001                   
 POTCAR:    PAW_PBE C 08Apr2002                   
 POTCAR:    PAW_PBE N 08Apr2002                   
 POTCAR:    PAW_PBE I 08Apr2002                   
 POTCAR:    PAW_PBE Pb 08Apr2002                  
 WARNING: For LVTOT=.TRUE., VASP.5.x writes the TOTAL local potential to the
     file LOCPOT. If you want only the Hartree contributions, use LVHAR=.TRUE.
     instead. 

 POTCAR:    PAW_PBE H 15Jun2001                   
   SHA256 =  030f79b5d3ab3cf0e668861823c8fb652ff669f3e15e46930bd03bfd63a607b6 H/POTCAR              
   COPYR  = (c) Copyright 15Jun2001 Georg Kresse                                                    
   COPYR  = This file is part of the software VASP. Any use, copying, and all other rights are regul
   COPYR  = If you do not have a valid VASP license, you may not use, copy or distribute this file. 
   VRHFIN =H: ultrasoft test                                                                        
   LEXCH  = PE                                                                                      
   EATOM  =    12.4884 eV,    0.9179 Ry                                                             
                                                                                                    
   TITEL  = PAW_PBE H 15Jun2001                                                                     
   LULTRA =        F    use ultrasoft PP ?                                                          
   IUNSCR =        0    unscreen: 0-lin 1-nonlin 2-no                                               
   RPACOR =    0.000    partial core radius                                                         
   POMASS =    1.000; ZVAL   =    1.000    mass and valenz                                          
   RCORE  =    1.100    outmost cutoff radius                                                       
   RWIGS  =    0.700; RWIGS  =    0.370    wigner-seitz radius (au A)                               
   ENMAX  =  250.000; ENMIN  =  200.000 eV                                                          
   RCLOC  =    0.701    cutoff for local pot                                                        
   LCOR   =        T    correct aug charges                                                         
   LPAW   =        T    paw PP                                                                      
   EAUG   =  400.000                                                                                
   RMAX   =    1.123    core radius for proj-oper                                                   
   RAUG   =    1.200    factor for augmentation sphere                                              
   RDEP   =    1.112    radius for radial grids                                                     
   RDEPT  =    0.926    core radius for aug-charge                                                  
                                                                                                    
   Atomic configuration                                                                             
    2 entries                                                                                       
     n  l   j            E        occ.                                                              
     1  0  0.50        -6.4927   1.0000                                                             
     2  1  0.50        -3.4015   0.0000                                                             
   Description                                                                                      
     l       E           TYP  RCUT    TYP  RCUT                                                     
     0     -6.4927494     23  1.100                                                                 
     0      6.8029130     23  1.100                                                                 
     1     -4.0817478     23  1.100                                                                 
  local pseudopotential read in
  atomic valenz-charges read in
  non local Contribution for L=            0  read in
    real space projection operators read in
  non local Contribution for L=            0  read in
    real space projection operators read in
  non local Contribution for L=            1  read in
    real space projection operators read in
    PAW grid and wavefunctions read in
 
   number of l-projection  operators is LMAX  =            3
   number of lm-projection operators is LMMAX =            5
 
 POTCAR:    PAW_PBE C 08Apr2002                   
   SHA256 =  253f7b50bb8d59471dbedb8285d89021f4a42ed1a2c5d38a03a736e69125dd95 C/POTCAR              
   COPYR  = (c) Copyright 08Apr2002 Georg Kresse                                                    
   COPYR  = This file is part of the software VASP. Any use, copying, and all other rights are regul
   COPYR  = If you do not have a valid VASP license, you may not use, copy or distribute this file. 
   VRHFIN =C: s2p2                                                                                  
   LEXCH  = PE                                                                                      
   EATOM  =   147.1560 eV,   10.8157 Ry                                                             
                                                                                                    
   TITEL  = PAW_PBE C 08Apr2002                                                                     
   LULTRA =        F    use ultrasoft PP ?                                                          
   IUNSCR =        1    unscreen: 0-lin 1-nonlin 2-no                                               
   RPACOR =    1.200    partial core radius                                                         
   POMASS =   12.011; ZVAL   =    4.000    mass and valenz                                          
   RCORE  =    1.500    outmost cutoff radius                                                       
   RWIGS  =    1.630; RWIGS  =    0.863    wigner-seitz radius (au A)                               
   ENMAX  =  400.000; ENMIN  =  300.000 eV                                                          
   ICORE  =        2    local potential                                                             
   LCOR   =        T    correct aug charges                                                         
   LPAW   =        T    paw PP                                                                      
   EAUG   =  644.873                                                                                
   DEXC   =    0.000                                                                                
   RMAX   =    1.529    core radius for proj-oper                                                   
   RAUG   =    1.300    factor for augmentation sphere                                              
   RDEP   =    1.501    radius for radial grids                                                     
   RDEPT  =    1.300    core radius for aug-charge                                                  
                                                                                                    
   Atomic configuration                                                                             
    4 entries                                                                                       
     n  l   j            E        occ.                                                              
     1  0  0.50      -273.3789   2.0000                                                             
     2  0  0.50       -13.7508   2.0000                                                             
     2  1  0.50        -5.2854   2.0000                                                             
     3  2  1.50        -5.4423   0.0000                                                             
   Description                                                                                      
     l       E           TYP  RCUT    TYP  RCUT                                                     
     0    -13.7508458     23  1.200                                                                 
     0     -8.2022199     23  1.200                                                                 
     1     -5.2854383     23  1.500                                                                 
     1     34.0145650     23  1.500                                                                 
     2     -5.4423304      7  1.500                                                                 
  local pseudopotential read in
  partial core-charges read in
  partial kinetic energy density read in
  atomic valenz-charges read in
  non local Contribution for L=            0  read in
    real space projection operators read in
  non local Contribution for L=            0  read in
    real space projection operators read in
  non local Contribution for L=            1  read in
    real space projection operators read in
  non local Contribution for L=            1  read in
    real space projection operators read in
    PAW grid and wavefunctions read in
 
   number of l-projection  operators is LMAX  =            4
   number of lm-projection operators is LMMAX =            8
 
 POTCAR:    PAW_PBE N 08Apr2002                   
   SHA256 =  e053789ff3a61a86a1b75d8a110fcc91f86041011e7b0817c7c99e4e8a6349d7 N/POTCAR              
   COPYR  = (c) Copyright 08Apr2002 Georg Kresse                                                    
   COPYR  = This file is part of the software VASP. Any use, copying, and all other rights are regul
   COPYR  = If you do not have a valid VASP license, you may not use, copy or distribute this file. 
   VRHFIN =N: s2p3                                                                                  
   LEXCH  = PE                                                                                      
   EATOM  =   264.5486 eV,   19.4438 Ry                                                             
                                                                                                    
   TITEL  = PAW_PBE N 08Apr2002                                                                     
   LULTRA =        F    use ultrasoft PP ?                                                          
   IUNSCR =        1    unscreen: 0-lin 1-nonlin 2-no                                               
   RPACOR =    1.200    partial core radius                                                         
   POMASS =   14.001; ZVAL   =    5.000    mass and valenz                                          
   RCORE  =    1.500    outmost cutoff radius                                                       
   RWIGS  =    1.400; RWIGS  =    0.741    wigner-seitz radius (au A)                               
   ENMAX  =  400.000; ENMIN  =  300.000 eV                                                          
   ICORE  =        2    local potential                                                             
   LCOR   =        T    correct aug charges                                                         
   LPAW   =        T    paw PP                                                                      
   EAUG   =  627.112                                                                                
   DEXC   =    0.000                                                                                
   RMAX   =    1.529    core radius for proj-oper                                                   
   RAUG   =    1.300    factor for augmentation sphere                                              
   RDEP   =    1.514    radius for radial grids                                                     
   RDEPT  =    1.338    core radius for aug-charge                                                  
                                                                                                    
   Atomic configuration                                                                             
    4 entries                                                                                       
     n  l   j            E        occ.                                                              
     1  0  0.50      -384.7179   2.0000                                                             
     2  0  0.50       -18.5828   2.0000                                                             
     2  1  0.50        -7.0898   3.0000                                                             
     3  2  1.50        -6.8029   0.0000                                                             
   Description                                                                                      
     l       E           TYP  RCUT    TYP  RCUT                                                     
     0    -18.5828119     23  1.200                                                                 
     0    -13.5018863     23  1.200                                                                 
     1     -7.0897853     23  1.500                                                                 
     1      9.5240782     23  1.500                                                                 
     2     -6.8029130      7  1.500                                                                 
  local pseudopotential read in
  partial core-charges read in
  partial kinetic energy density read in
  atomic valenz-charges read in
  non local Contribution for L=            0  read in
    real space projection operators read in
  non local Contribution for L=            0  read in
    real space projection operators read in
  non local Contribution for L=            1  read in
    real space projection operators read in
  non local Contribution for L=            1  read in
    real space projection operators read in
    PAW grid and wavefunctions read in
 
   number of l-projection  operators is LMAX  =            4
   number of lm-projection operators is LMMAX =            8
 
 POTCAR:    PAW_PBE I 08Apr2002                   
   SHA256 =  e40f3f59b681c1fc3e3091736183c4589116986673d2b852a5012aec72758799 I/POTCAR              
   COPYR  = (c) Copyright 08Apr2002 Georg Kresse                                                    
   COPYR  = This file is part of the software VASP. Any use, copying, and all other rights are regul
   COPYR  = If you do not have a valid VASP license, you may not use, copy or distribute this file. 
   VRHFIN =I : s2p5                                                                                 
   LEXCH  = PE                                                                                      
   EATOM  =   315.8678 eV,   23.2156 Ry                                                             
                                                                                                    
   TITEL  = PAW_PBE I 08Apr2002                                                                     
   LULTRA =        F    use ultrasoft PP ?                                                          
   IUNSCR =        1    unscreen: 0-lin 1-nonlin 2-no                                               
   RPACOR =    2.200    partial core radius                                                         
   POMASS =  126.904; ZVAL   =    7.000    mass and valenz                                          
   RCORE  =    2.300    outmost cutoff radius                                                       
   RWIGS  =    2.810; RWIGS  =    1.487    wigner-seitz radius (au A)                               
   ENMAX  =  175.647; ENMIN  =  131.735 eV                                                          
   ICORE  =        3    local potential                                                             
   LCOR   =        T    correct aug charges                                                         
   LPAW   =        T    paw PP                                                                      
   EAUG   =  370.139                                                                                
   DEXC   =    0.000                                                                                
   RMAX   =    2.359    core radius for proj-oper                                                   
   RAUG   =    1.300    factor for augmentation sphere                                              
   RDEP   =    2.392    radius for radial grids                                                     
   RDEPT  =    2.170    core radius for aug-charge                                                  
                                                                                                    
   Atomic configuration                                                                             
   13 entries                                                                                       
     n  l   j            E        occ.                                                              
     1  0  0.50    -32976.3739   2.0000                                                             
     2  0  0.50     -5094.5933   2.0000                                                             
     2  1  1.50     -4572.0131   6.0000                                                             
     3  0  0.50     -1028.2813   2.0000                                                             
     3  1  1.50      -859.0250   6.0000                                                             
     3  2  2.50      -605.7620  10.0000                                                             
     4  0  0.50      -180.5540   2.0000                                                             
     4  1  1.50      -127.5306   6.0000                                                             
     4  2  2.50       -50.2720  10.0000                                                             
     5  0  0.50       -17.4058   2.0000                                                             
     5  1  0.50        -7.0851   5.0000                                                             
     5  2  1.50        -7.0750   0.0000                                                             
     4  3  2.50        -7.0750   0.0000                                                             
   Description                                                                                      
     l       E           TYP  RCUT    TYP  RCUT                                                     
     0    -17.4058016     23  2.300                                                                 
     0    -18.7663842     23  2.300                                                                 
     1     -7.0850686     23  2.300                                                                 
     1     -4.2150896     23  2.300                                                                 
     2     -7.0750295     23  2.300                                                                 
     3     -1.3605826     23  2.300                                                                 
  local pseudopotential read in
  partial core-charges read in
  partial kinetic energy density read in
  atomic valenz-charges read in
  non local Contribution for L=            0  read in
    real space projection operators read in
  non local Contribution for L=            0  read in
    real space projection operators read in
  non local Contribution for L=            1  read in
    real space projection operators read in
  non local Contribution for L=            1  read in
    real space projection operators read in
  non local Contribution for L=            2  read in
    real space projection operators read in
    PAW grid and wavefunctions read in
 
   number of l-projection  operators is LMAX  =            5
   number of lm-projection operators is LMMAX =           13
 
 POTCAR:    PAW_PBE Pb 08Apr2002                  
   SHA256 =  797118a27cf1bcd06b9881c67a26cdde129e3cd1a551dd4a281f9681ce847303 Pb/POTCAR             
   COPYR  = (c) Copyright 08Apr2002 Georg Kresse                                                    
   COPYR  = This file is part of the software VASP. Any use, copying, and all other rights are regul
   COPYR  = If you do not have a valid VASP license, you may not use, copy or distribute this file. 
   VRHFIN =Pb:                                                                                      
   LEXCH  = PE                                                                                      
   EATOM  =    96.9868 eV,    7.1283 Ry                                                             
                                                                                                    
   TITEL  = PAW_PBE Pb 08Apr2002                                                                    
   LULTRA =        F    use ultrasoft PP ?                                                          
   IUNSCR =        1    unscreen: 0-lin 1-nonlin 2-no                                               
   RPACOR =    2.200    partial core radius                                                         
   POMASS =  207.200; ZVAL   =    4.000    mass and valenz                                          
   RCORE  =    3.100    outmost cutoff radius                                                       
   RWIGS  =    3.260; RWIGS  =    1.725    wigner-seitz radius (au A)                               
   ENMAX  =   97.973; ENMIN  =   73.480 eV                                                          
   ICORE  =        3    local potential                                                             
   LCOR   =        T    correct aug charges                                                         
   LPAW   =        T    paw PP                                                                      
   EAUG   =  234.873                                                                                
   DEXC   =    0.000                                                                                
   RMAX   =    3.158    core radius for proj-oper                                                   
   RAUG   =    1.300    factor for augmentation sphere                                              
   RDEP   =    3.202    radius for radial grids                                                     
   RDEPT  =    2.659    core radius for aug-charge                                                  
                                                                                                    
   Atomic configuration                                                                             
   17 entries                                                                                       
     n  l   j            E        occ.                                                              
     1  0  0.50    -88091.8466   2.0000                                                             
     2  0  0.50    -15753.4197   2.0000                                                             
     2  1  1.50    -13508.1797   6.0000                                                             
     3  0  0.50     -3781.7194   2.0000                                                             
     3  1  1.50     -3138.2529   6.0000                                                             
     3  2  2.50     -2483.2977  10.0000                                                             
     4  0  0.50      -856.2895   2.0000                                                             
     4  1  1.50      -645.4943   6.0000                                                             
     4  2  2.50      -401.8768  10.0000                                                             
     4  3  3.50      -132.9059  14.0000                                                             
     5  0  0.50      -144.0950   2.0000                                                             
     5  1  1.50       -85.7879   6.0000                                                             
     5  2  2.50       -21.1769  10.0000                                                             
     6  0  0.50       -12.0372   2.0000                                                             
     6  1  1.50        -3.4971   2.0000                                                             
     6  2  2.50        -1.3606   0.0000                                                             
     5  3  2.50        -2.7212   0.0000                                                             
   Description                                                                                      
     l       E           TYP  RCUT    TYP  RCUT                                                     
     0    -12.0371566     23  3.100                                                                 
     0    -13.3977392     23  3.100                                                                 
     1     -3.4971341     23  3.100                                                                 
     1     -5.4423304     23  3.100                                                                 
     2     -1.3605826     23  3.100                                                                 
     3     -1.3605826     23  3.100                                                                 
  local pseudopotential read in
  partial core-charges read in
  partial kinetic energy density read in
  atomic valenz-charges read in
  non local Contribution for L=            0  read in
    real space projection operators read in
  non local Contribution for L=            0  read in
    real space projection operators read in
  non local Contribution for L=            1  read in
    real space projection operators read in
  non local Contribution for L=            1  read in
    real space projection operators read in
  non local Contribution for L=            2  read in
    real space projection operators read in
    PAW grid and wavefunctions read in
 
   number of l-projection  operators is LMAX  =            5
   number of lm-projection operators is LMMAX =           13
 
 Optimization of the real space projectors (new method)

 maximal supplied QI-value         = 34.20
 optimisation between [QCUT,QGAM] = [ 11.29, 22.57] = [ 35.68,142.71] Ry 
 Optimized for a Real-space Cutoff    1.16 Angstroem

   l    n(q)    QCUT    max X(q) W(low)/X(q) W(high)/X(q)  e(spline) 
   0      8    11.287    19.460    0.40E-03    0.73E-03    0.16E-06
   0      8    11.287    12.209    0.38E-03    0.70E-03    0.15E-06
   1      7    11.287     4.655    0.22E-03    0.25E-04    0.22E-06
 Optimization of the real space projectors (new method)

 maximal supplied QI-value         = 25.13
 optimisation between [QCUT,QGAM] = [ 11.31, 22.87] = [ 35.82,146.48] Ry 
 Optimized for a Real-space Cutoff    1.00 Angstroem

   l    n(q)    QCUT    max X(q) W(low)/X(q) W(high)/X(q)  e(spline) 
   0      7    11.310   115.676    0.43E-03    0.13E-02    0.19E-06
   0      7    11.310    87.132    0.43E-03    0.13E-02    0.18E-06
   1      6    11.310     4.429    0.42E-03    0.74E-03    0.11E-06
   1      6    11.310     2.733    0.34E-03    0.55E-03    0.92E-07
 Optimization of the real space projectors (new method)

 maximal supplied QI-value         = 25.13
 optimisation between [QCUT,QGAM] = [ 11.31, 22.87] = [ 35.82,146.48] Ry 
 Optimized for a Real-space Cutoff    1.27 Angstroem

   l    n(q)    QCUT    max X(q) W(low)/X(q) W(high)/X(q)  e(spline) 
   0      9    11.310    79.467    0.75E-04    0.16E-03    0.36E-06
   0      9    11.310    66.151    0.74E-04    0.16E-03    0.36E-06
   1      8    11.310    17.416    0.35E-03    0.12E-03    0.95E-06
   1      8    11.310    12.382    0.37E-03    0.13E-03    0.98E-06
 Optimization of the real space projectors (new method)

 maximal supplied QI-value         = 16.25
 optimisation between [QCUT,QGAM] = [ 11.38, 22.75] = [ 36.24,144.96] Ry 
 Optimized for a Real-space Cutoff    1.31 Angstroem

   l    n(q)    QCUT    max X(q) W(low)/X(q) W(high)/X(q)  e(spline) 
   0      9    11.376   194.483    0.24E-03    0.23E-03    0.67E-07
   0      9    11.376   190.334    0.23E-03    0.22E-03    0.65E-07
   1      8    11.376   116.687    0.25E-03    0.63E-04    0.16E-06
   1      8    11.376    88.696    0.25E-03    0.61E-04    0.16E-06
   2      8    11.376     4.877    0.17E-03    0.14E-03    0.29E-07
 Optimization of the real space projectors (new method)

 maximal supplied QI-value         = 12.09
 optimisation between [QCUT,QGAM] = [ 11.37, 22.86] = [ 36.19,146.31] Ry 
 Optimized for a Real-space Cutoff    1.66 Angstroem

   l    n(q)    QCUT    max X(q) W(low)/X(q) W(high)/X(q)  e(spline) 
   0     11    11.369   135.111    0.12E-03    0.69E-04    0.19E-05
   0     11    11.369   146.850    0.11E-03    0.65E-04    0.18E-05
   1     11    11.369   148.016    0.17E-03    0.32E-03    0.89E-06
   1     11    11.369   122.989    0.17E-03    0.32E-03    0.91E-06
   2     10    11.369     8.916    0.12E-03    0.45E-04    0.33E-06
  PAW_PBE H 15Jun2001                   :
 energy of atom  1       EATOM=  -12.4884
 kinetic energy error for atom=    0.0020 (will be added to EATOM!!)
  PAW_PBE C 08Apr2002                   :
 energy of atom  2       EATOM= -147.1560
 kinetic energy error for atom=    0.0076 (will be added to EATOM!!)
  PAW_PBE N 08Apr2002                   :
 energy of atom  3       EATOM= -264.5486
 kinetic energy error for atom=    0.0138 (will be added to EATOM!!)
  PAW_PBE I 08Apr2002                   :
 energy of atom  4       EATOM= -315.8678
 kinetic energy error for atom=    0.0009 (will be added to EATOM!!)
  PAW_PBE Pb 08Apr2002                  :
 energy of atom  5       EATOM=  -96.9868
 kinetic energy error for atom=    0.0000 (will be added to EATOM!!)
 
 
 POSCAR:  H  C  N  I Pb
  positions in cartesian coordinates
  No initial velocities read in
 exchange correlation table for  LEXCH =        8
   RHO(1)=    0.500       N(1)  =     2000
   RHO(2)=  100.500       N(2)  =     4000
 


--------------------------------------------------------------------------------------------------------


 ion  position               nearest neighbor table
   1  0.448  0.333  0.566- 187 1.02
   2  0.425  0.831  0.568- 188 1.03
   3  0.960  0.325  0.577- 189 1.03
   4  0.947  0.815  0.574- 190 1.03
   5  0.325  0.952  0.574- 194 1.03
   6  0.351  0.552  0.562- 195 1.04
   7  0.806  0.086  0.569- 196 1.03
   8  0.013  0.141  0.560- 183 1.03
   9  0.067  0.656  0.569- 184 1.02
  10  0.558  0.168  0.556- 185 1.02
  11  0.497  0.646  0.562- 186 1.02
  12  0.364  0.021  0.558- 194 1.01
  13  0.295  0.629  0.555- 195 1.02
  14  0.875  0.023  0.561- 196 1.02
  15  0.959  0.188  0.579- 183 1.02
  16  0.991  0.690  0.583- 184 1.03
  17  0.564  0.257  0.567- 185 1.02
  18  0.431  0.696  0.576- 186 1.02
  19  0.281  0.437  0.572- 191 1.03
  20  0.191  0.929  0.571- 192 1.02
  21  0.678  0.034  0.570- 193 1.02
  22  0.370  0.288  0.555- 187 1.03
  23  0.494  0.869  0.552- 188 1.02
  24  0.018  0.368  0.558- 189 1.03
  25  0.997  0.864  0.554- 190 1.02
  26  0.188  0.437  0.566- 191 1.02
  27  0.139  0.992  0.556- 192 1.02
  28  0.668  0.943  0.562- 193 1.01
  29  0.435  0.182  0.546- 146 1.09
  30  0.549  0.753  0.546- 147 1.09
  31  0.061  0.251  0.545- 144 1.09
  32  0.082  0.765  0.550- 145 1.10
  33  0.188  0.558  0.554- 148 1.09
  34  0.245  0.061  0.546- 149 1.09
  35  0.792  0.928  0.555- 150 1.09
  36  0.485  0.339  0.664- 205 1.02
  37  0.448  0.812  0.674- 206 1.02
  38  0.967  0.282  0.677- 207 1.02
  39  0.927  0.725  0.673- 208 1.03
  40  0.309  0.054  0.671- 209 1.02
  41  0.299  0.550  0.675- 210 1.02
  42  0.800  0.057  0.675- 211 1.01
  43  0.753  0.598  0.660- 212 1.03
  44  0.085  0.162  0.645- 197 1.03
  45  0.112  0.718  0.650- 198 1.03
  46  0.577  0.167  0.649- 199 1.03
  47  0.563  0.663  0.651- 200 1.02
  48  0.180  0.413  0.649- 201 1.02
  49  0.176  0.922  0.649- 202 1.01
  50  0.707  0.402  0.662- 203 1.02
  51  0.674  0.925  0.650- 204 1.02
  52  0.063  0.178  0.672- 197 1.03
  53  0.058  0.675  0.669- 198 1.03
  54  0.597  0.255  0.659- 199 1.02
  55  0.530  0.696  0.676- 200 1.01
  56  0.200  0.445  0.674- 201 1.01
  57  0.207  0.952  0.673- 202 1.02
  58  0.669  0.489  0.667- 203 1.02
  59  0.695  0.961  0.675- 204 1.02
  60  0.399  0.299  0.659- 205 1.02
  61  0.434  0.845  0.648- 206 1.02
  62  0.937  0.326  0.654- 207 1.02
  63  0.903  0.796  0.656- 208 1.02
  64  0.333  0.079  0.645- 209 1.02
  65  0.332  0.575  0.650- 210 1.01
  66  0.837  0.076  0.650- 211 1.02
  67  0.840  0.577  0.650- 212 1.02
  68  0.009  0.254  0.632- 151 1.09
  69  0.020  0.799  0.640- 152 1.09
  70  0.450  0.187  0.648- 153 1.09
  71  0.505  0.754  0.632- 154 1.10
  72  0.251  0.998  0.629- 156 1.09
  73  0.261  0.491  0.632- 155 1.09
  74  0.762  0.993  0.632- 158 1.09
  75  0.818  0.449  0.649- 157 1.09
  76  0.449  0.301  0.769- 221 1.02
  77  0.449  0.801  0.769- 222 1.02
  78  0.949  0.301  0.769- 223 1.02
  79  0.949  0.801  0.769- 224 1.02
  80  0.301  0.051  0.769- 225 1.02
  81  0.301  0.551  0.769- 226 1.02
  82  0.801  0.051  0.769- 227 1.02
  83  0.801  0.551  0.769- 228 1.02
  84  0.079  0.171  0.743- 213 1.02
  85  0.079  0.671  0.743- 214 1.02
  86  0.579  0.171  0.743- 215 1.02
  87  0.579  0.671  0.743- 216 1.02
  88  0.171  0.421  0.743- 217 1.02
  89  0.171  0.921  0.743- 218 1.02
  90  0.671  0.421  0.743- 219 1.02
  91  0.671  0.921  0.743- 220 1.02
  92  0.051  0.199  0.769- 213 1.02
  93  0.051  0.699  0.769- 214 1.02
  94  0.551  0.199  0.769- 215 1.02
  95  0.551  0.699  0.769- 216 1.02
  96  0.199  0.449  0.769- 217 1.02
  97  0.199  0.949  0.769- 218 1.02
  98  0.699  0.449  0.769- 219 1.02
  99  0.699  0.949  0.769- 220 1.02
 100  0.421  0.329  0.743- 221 1.02
 101  0.421  0.829  0.743- 222 1.02
 102  0.921  0.329  0.743- 223 1.02
 103  0.921  0.829  0.743- 224 1.02
 104  0.329  0.079  0.743- 225 1.02
 105  0.329  0.579  0.743- 226 1.02
 106  0.829  0.079  0.743- 227 1.02
 107  0.829  0.579  0.743- 228 1.02
 108  0.000  0.250  0.726- 161 1.09
 109  0.000  0.750  0.726- 162 1.09
 110  0.500  0.250  0.726- 159 1.09
 111  0.500  0.750  0.726- 160 1.09
 112  0.250  0.000  0.726- 163 1.09
 113  0.250  0.500  0.726- 164 1.09
 114  0.750  0.000  0.726- 165 1.09
 115  0.750  0.500  0.726- 166 1.09
 116  0.776  0.557  0.519- 173 1.11
 117  0.721  0.478  0.525- 173 1.09
 118  0.869  0.501  0.540- 174 1.10
 119  0.858  0.481  0.567- 174 1.10
 120  0.744  0.642  0.560- 175 1.10
 121  0.809  0.596  0.577- 175 1.10
 122  0.666  0.549  0.569- 176 1.10
 123  0.679  0.456  0.561- 176 1.10
 124  0.617  0.557  0.537- 177 1.10
 125  0.672  0.637  0.535- 177 1.09
 126  0.606  0.646  0.504- 178 1.11
 127  0.687  0.602  0.495- 178 1.11
 128  0.785  0.392  0.530- 179 1.10
 129  0.779  0.370  0.558- 179 1.10
 130  0.866  0.368  0.545- 179 1.10
 131  0.863  0.695  0.554- 180 1.10
 132  0.844  0.647  0.531- 180 1.10
 133  0.908  0.610  0.550- 180 1.10
 134  0.765  0.529  0.598- 181 1.10
 135  0.772  0.435  0.590- 181 1.09
 136  0.688  0.468  0.600- 181 1.10
 137  0.536  0.530  0.504- 182 1.09
 138  0.577  0.548  0.478- 182 1.10
 139  0.698  0.478  0.469- 168 1.08
 140  0.559  0.415  0.522- 169 1.09
 141  0.763  0.358  0.471- 170 1.09
 142  0.625  0.295  0.525- 171 1.09
 143  0.728  0.267  0.500- 172 1.09
 144  0.019  0.254  0.558-  31 1.09 189 1.31 183 1.32
 145  0.035  0.760  0.561-  32 1.10 184 1.31 190 1.31
 146  0.465  0.228  0.554-  29 1.09 185 1.31 187 1.32
 147  0.498  0.757  0.556-  30 1.09 186 1.31 188 1.31
 148  0.240  0.532  0.559-  33 1.09 195 1.31 191 1.32
 149  0.251  0.012  0.556-  34 1.09 192 1.31 194 1.32
 150  0.772  0.982  0.561-  35 1.09 196 1.31 193 1.32
 151  0.011  0.244  0.649-  68 1.09 197 1.30 207 1.32
 152  0.008  0.759  0.652-  69 1.09 198 1.30 208 1.32
 153  0.487  0.232  0.653-  70 1.09 199 1.31 205 1.31
 154  0.499  0.754  0.649-  71 1.10 206 1.31 200 1.31
 155  0.256  0.494  0.649-  73 1.09 201 1.31 210 1.31
 156  0.254  0.000  0.647-  72 1.09 209 1.31 202 1.31
 157  0.776  0.487  0.655-  75 1.09 212 1.31 203 1.31
 158  0.756  1.000  0.649-  74 1.09 204 1.31 211 1.31
 159  0.500  0.250  0.743- 110 1.09 221 1.31 215 1.31
 160  0.500  0.750  0.743- 111 1.09 222 1.31 216 1.31
 161  1.000  0.250  0.743- 108 1.09 223 1.31 213 1.31
 162  1.000  0.750  0.743- 109 1.09 224 1.31 214 1.31
 163  0.250  0.000  0.743- 112 1.09 225 1.31 218 1.31
 164  0.250  0.500  0.743- 113 1.09 226 1.31 217 1.31
 165  0.750  0.000  0.743- 114 1.09 227 1.31 220 1.31
 166  0.750  0.500  0.743- 115 1.09 228 1.31 219 1.31
 167  0.625  0.456  0.495- 168 1.40 169 1.40 182 1.51
 168  0.682  0.439  0.481- 139 1.08 167 1.40 170 1.40
 169  0.604  0.403  0.511- 140 1.09 171 1.39 167 1.40
 170  0.719  0.371  0.483- 141 1.09 172 1.40 168 1.40
 171  0.641  0.335  0.512- 142 1.09 169 1.39 172 1.40
 172  0.699  0.319  0.498- 143 1.09 171 1.40 170 1.40
 173  0.732  0.535  0.530- 117 1.09 116 1.11 229 1.52 177 1.52
 174  0.831  0.478  0.552- 118 1.10 119 1.10 179 1.52 229 1.52
 175  0.792  0.605  0.560- 121 1.10 120 1.10 229 1.51 180 1.52
 176  0.706  0.503  0.568- 123 1.10 122 1.10 181 1.52 229 1.53
 177  0.663  0.583  0.528- 125 1.09 124 1.10 173 1.52 178 1.54
 178  0.638  0.593  0.505- 126 1.11 127 1.11 177 1.54 182 1.55
 179  0.813  0.398  0.546- 128 1.10 130 1.10 129 1.10 174 1.52
 180  0.855  0.639  0.548- 132 1.10 131 1.10 133 1.10 175 1.52
 181  0.736  0.483  0.590- 135 1.09 134 1.10 136 1.10 176 1.52
 182  0.589  0.531  0.495- 137 1.09 138 1.10 167 1.51 178 1.55
 183  0.997  0.192  0.566-  15 1.02   8 1.03 144 1.32
 184  0.032  0.699  0.572-   9 1.02  16 1.03 145 1.31
 185  0.535  0.219  0.558-  10 1.02  17 1.02 146 1.31
 186  0.472  0.696  0.564-  11 1.02  18 1.02 147 1.31
 187  0.426  0.289  0.558-   1 1.02  22 1.03 146 1.32
 188  0.469  0.823  0.558-  23 1.02   2 1.03 147 1.31
 189  0.995  0.320  0.564-  24 1.03   3 1.03 144 1.31
 190  0.987  0.814  0.562-  25 1.02   4 1.03 145 1.31
 191  0.238  0.462  0.564-  26 1.02  19 1.03 148 1.32
 192  0.191  0.974  0.561-  27 1.02  20 1.02 149 1.31
 193  0.700  0.988  0.563-  28 1.01  21 1.02 150 1.32
 194  0.318  0.994  0.563-  12 1.01   5 1.03 149 1.32
 195  0.300  0.574  0.558-  13 1.02   6 1.04 148 1.31
 196  0.821  0.033  0.565-  14 1.02   7 1.03 150 1.31
 197  0.055  0.192  0.656-  44 1.03  52 1.03 151 1.30
 198  0.061  0.713  0.657-  45 1.03  53 1.03 152 1.30
 199  0.557  0.217  0.654-  54 1.02  46 1.03 153 1.31
 200  0.533  0.701  0.659-  55 1.01  47 1.02 154 1.31
 201  0.209  0.448  0.658-  56 1.01  48 1.02 155 1.31
 202  0.209  0.956  0.657-  49 1.01  57 1.02 156 1.31
 203  0.712  0.458  0.661-  58 1.02  50 1.02 157 1.31
 204  0.705  0.959  0.659-  51 1.02  59 1.02 158 1.31
 205  0.456  0.295  0.659-  36 1.02  60 1.02 153 1.31
 206  0.459  0.807  0.658-  61 1.02  37 1.02 154 1.31
 207  0.969  0.286  0.661-  38 1.02  62 1.02 151 1.32
 208  0.943  0.762  0.661-  63 1.02  39 1.03 152 1.32
 209  0.302  0.047  0.655-  40 1.02  64 1.02 156 1.31
 210  0.298  0.542  0.659-  65 1.01  41 1.02 155 1.31
 211  0.800  0.047  0.659-  42 1.01  66 1.02 158 1.31
 212  0.790  0.558  0.655-  67 1.02  43 1.03 157 1.31
 213  0.046  0.204  0.753-  92 1.02  84 1.02 161 1.31
 214  0.046  0.704  0.753-  93 1.02  85 1.02 162 1.31
 215  0.546  0.204  0.753-  94 1.02  86 1.02 159 1.31
 216  0.546  0.704  0.753-  95 1.02  87 1.02 160 1.31
 217  0.204  0.454  0.753-  96 1.02  88 1.02 164 1.31
 218  0.204  0.954  0.753-  97 1.02  89 1.02 163 1.31
 219  0.704  0.454  0.753-  98 1.02  90 1.02 166 1.31
 220  0.704  0.954  0.753-  99 1.02  91 1.02 165 1.31
 221  0.454  0.296  0.753-  76 1.02 100 1.02 159 1.31
 222  0.454  0.796  0.753-  77 1.02 101 1.02 160 1.31
 223  0.954  0.296  0.753-  78 1.02 102 1.02 161 1.31
 224  0.954  0.796  0.753-  79 1.02 103 1.02 162 1.31
 225  0.296  0.046  0.753-  80 1.02 104 1.02 163 1.31
 226  0.296  0.546  0.753-  81 1.02 105 1.02 164 1.31
 227  0.796  0.046  0.753-  82 1.02 106 1.02 165 1.31
 228  0.796  0.546  0.753-  83 1.02 107 1.02 166 1.31
 229  0.765  0.530  0.552- 175 1.51 173 1.52 174 1.52 176 1.53
 230  0.509  0.016  0.551- 304 3.25
 231  0.478  0.498  0.555- 305 3.14
 232  0.005  0.004  0.549- 302 3.52
 233  0.039  0.505  0.553- 303 3.28
 234  0.234  0.243  0.552- 306 3.16
 235  0.256  0.764  0.553- 307 3.18
 236  0.736  0.202  0.555- 308 3.09
 237  0.703  0.792  0.554- 309 3.22
 238  1.000  0.984  0.654- 302 3.05 310 3.19
 239  0.997  0.502  0.655- 311 3.11 303 3.13
 240  0.502  0.014  0.654- 304 3.17 312 3.19
 241  0.513  0.489  0.655- 313 3.10 305 3.17
 242  0.261  0.246  0.654- 314 3.17 306 3.24
 243  0.260  0.753  0.655- 315 3.15 307 3.18
 244  0.753  0.263  0.655- 316 3.15 308 3.25
 245  0.744  0.751  0.655- 317 3.14 309 3.21
 246  0.135  0.111  0.608- 306 3.18 302 3.19
 247  0.151  0.603  0.609- 307 3.13 303 3.20
 248  0.648  0.105  0.611- 308 3.10 304 3.19
 249  0.617  0.630  0.611- 309 3.19 305 3.30
 250  0.361  0.384  0.606- 305 3.15 306 3.25
 251  0.373  0.882  0.607- 304 3.28 307 3.32
 252  0.891  0.365  0.611- 303 3.25 308 3.48
 253  0.872  0.875  0.606- 302 3.19 309 3.25
 254  0.125  0.368  0.609- 306 3.15 303 3.21
 255  0.123  0.866  0.608- 307 3.19 302 3.26
 256  0.590  0.336  0.602- 308 3.21 305 3.29
 257  0.618  0.872  0.612- 309 3.08 304 3.26
 258  0.385  0.133  0.604- 304 3.11 306 3.22
 259  0.385  0.630  0.611- 307 3.23 305 3.23
 260  0.886  0.132  0.612- 302 3.20 308 3.35
 261  0.900  0.641  0.612- 303 3.22 309 3.61
 262  0.000  0.000  0.755- 310 3.13 318 3.27
 263  0.000  0.500  0.755- 311 3.13 319 3.27
 264  0.500  0.000  0.755- 312 3.13 320 3.27
 265  0.500  0.500  0.755- 313 3.13 321 3.27
 266  0.250  0.250  0.755- 314 3.13 322 3.27
 267  0.250  0.750  0.755- 315 3.13 323 3.27
 268  0.750  0.250  0.755- 316 3.13 324 3.27
 269  0.750  0.750  0.755- 317 3.13 325 3.27
 270  0.136  0.114  0.705- 310 3.20 314 3.20
 271  0.136  0.614  0.705- 311 3.20 315 3.20
 272  0.636  0.114  0.705- 312 3.20 316 3.20
 273  0.636  0.614  0.705- 313 3.20 317 3.20
 274  0.364  0.386  0.705- 313 3.20 314 3.20
 275  0.364  0.886  0.705- 312 3.20 315 3.20
 276  0.864  0.386  0.705- 311 3.20 316 3.20
 277  0.864  0.886  0.705- 310 3.20 317 3.20
 278  0.114  0.364  0.705- 314 3.21 311 3.21
 279  0.114  0.864  0.705- 315 3.21 310 3.21
 280  0.614  0.364  0.705- 316 3.21 313 3.21
 281  0.614  0.864  0.705- 317 3.21 312 3.21
 282  0.386  0.136  0.705- 314 3.21 312 3.21
 283  0.386  0.636  0.705- 315 3.21 313 3.21
 284  0.886  0.136  0.705- 316 3.21 310 3.21
 285  0.886  0.636  0.705- 317 3.21 311 3.21
 286  0.135  0.115  0.801- 318 3.22 322 3.22
 287  0.135  0.615  0.801- 319 3.22 323 3.22
 288  0.635  0.115  0.801- 320 3.22 324 3.22
 289  0.635  0.615  0.801- 321 3.22 325 3.22
 290  0.365  0.385  0.801- 321 3.22 322 3.22
 291  0.365  0.885  0.801- 320 3.22 323 3.22
 292  0.865  0.385  0.801- 319 3.22 324 3.22
 293  0.865  0.885  0.801- 318 3.22 325 3.22
 294  0.115  0.365  0.801- 319 3.23 322 3.23
 295  0.115  0.865  0.801- 318 3.23 323 3.23
 296  0.615  0.365  0.801- 321 3.23 324 3.23
 297  0.615  0.865  0.801- 320 3.23 325 3.23
 298  0.385  0.135  0.801- 320 3.23 322 3.23
 299  0.385  0.635  0.801- 321 3.23 323 3.23
 300  0.885  0.135  0.801- 318 3.23 324 3.23
 301  0.885  0.635  0.801- 319 3.23 325 3.23
 302  0.999  0.998  0.605- 238 3.05 253 3.19 246 3.19 260 3.20 255 3.26 232 3.52
 303  0.008  0.501  0.605- 239 3.13 247 3.20 254 3.21 261 3.22 252 3.25 233 3.28
 304  0.503  0.008  0.603- 258 3.11 240 3.17 248 3.19 230 3.25 257 3.26 251 3.28
 305  0.498  0.492  0.605- 231 3.14 250 3.15 241 3.17 259 3.23 256 3.29 249 3.30
 306  0.247  0.246  0.602- 254 3.15 234 3.16 246 3.18 258 3.22 242 3.24 250 3.25
 307  0.251  0.745  0.604- 247 3.13 243 3.18 235 3.18 255 3.19 259 3.23 251 3.32
 308  0.742  0.246  0.603- 236 3.09 248 3.10 256 3.21 244 3.25 260 3.35 252 3.48
 309  0.738  0.756  0.603- 257 3.08 249 3.19 245 3.21 237 3.22 253 3.25 261 3.61
 310  0.000  0.000  0.705- 262 3.13 238 3.19 270 3.20 277 3.20 279 3.21 284 3.21
 311  0.000  0.500  0.705- 239 3.11 263 3.13 271 3.20 276 3.20 278 3.21 285 3.21
 312  0.500  0.000  0.705- 264 3.13 240 3.19 272 3.20 275 3.20 281 3.21 282 3.21
 313  0.500  0.500  0.705- 241 3.10 265 3.13 273 3.20 274 3.20 280 3.21 283 3.21
 314  0.250  0.250  0.705- 266 3.13 242 3.17 270 3.20 274 3.20 282 3.21 278 3.21
 315  0.250  0.750  0.705- 267 3.13 243 3.15 271 3.20 275 3.20 283 3.21 279 3.21
 316  0.750  0.250  0.705- 268 3.13 244 3.15 272 3.20 276 3.20 284 3.21 280 3.21
 317  0.750  0.750  0.705- 269 3.13 245 3.14 273 3.20 277 3.20 285 3.21 281 3.21
 318  0.000  0.000  0.807- 286 3.22 293 3.22 300 3.23 295 3.23 262 3.27
 319  0.000  0.500  0.807- 287 3.22 292 3.22 301 3.23 294 3.23 263 3.27
 320  0.500  0.000  0.807- 288 3.22 291 3.22 298 3.23 297 3.23 264 3.27
 321  0.500  0.500  0.807- 289 3.22 290 3.22 299 3.23 296 3.23 265 3.27
 322  0.250  0.250  0.807- 290 3.22 286 3.22 294 3.23 298 3.23 266 3.27
 323  0.250  0.750  0.807- 291 3.22 287 3.22 299 3.23 295 3.23 267 3.27
 324  0.750  0.250  0.807- 292 3.22 288 3.22 296 3.23 300 3.23 268 3.27
 325  0.750  0.750  0.807- 293 3.22 289 3.22 297 3.23 301 3.23 269 3.27
 

IMPORTANT INFORMATION: All symmetrisations will be switched off!
NOSYMM: (Re-)initialisation of all symmetry stuff for point group C_1.


----------------------------------------------------------------------------------------

                                     Primitive cell                                     

  volume of cell :   20385.2105

  direct lattice vectors                    reciprocal lattice vectors
    18.060800552  0.000000000  0.000000000     0.055368531  0.000015077 -0.000000000
    -0.004918649 18.062799454  0.000000000     0.000000000  0.055362404  0.000000000
     0.000000000  0.000000000 62.487499237     0.000000000 -0.000000000  0.016003201

  length of vectors
    18.060800552 18.062800123 62.487499237     0.055368533  0.055362404  0.016003201

  position of ions in fractional coordinates (direct lattice)
     0.447865424  0.332527482  0.565734736
     0.424886367  0.831368836  0.568438768
     0.960413175  0.325321784  0.576992847
     0.946692962  0.814879163  0.573519618
     0.325361208  0.952351416  0.573942066
     0.351366335  0.551909117  0.561712447
     0.805740739  0.085971932  0.569034285
     0.012607117  0.141368859  0.560240046
     0.067238304  0.656354325  0.568972444
     0.557615071  0.167954957  0.555976620
     0.496642219  0.646415897  0.561550671
     0.363742629  0.021384825  0.558097222
     0.295332263  0.628671909  0.554683026
     0.875369383  0.023494803  0.560811815
     0.959202476  0.188364807  0.578628611
     0.991029064  0.690115869  0.583284938
     0.563935786  0.256654464  0.567247306
     0.430718861  0.695548436  0.575533143
     0.281470999  0.436663744  0.572291467
     0.191328567  0.929181755  0.570784086
     0.677730314  0.034196676  0.570017819
     0.369973890  0.288054921  0.554526134
     0.493769562  0.869052880  0.552280202
     0.017967017  0.367917122  0.557987154
     0.996659023  0.863618096  0.554338230
     0.188193768  0.436693680  0.565948768
     0.139446803  0.991771491  0.556253347
     0.668125880  0.942690146  0.561567032
     0.435388581  0.182076165  0.546392549
     0.548754595  0.752963033  0.546075591
     0.060656722  0.251359594  0.545128075
     0.082313691  0.765227517  0.549626595
     0.187582394  0.557871615  0.554469055
     0.244783095  0.060515169  0.545973703
     0.792254207  0.927838258  0.555008958
     0.485348311  0.338633563  0.664342593
     0.448168921  0.811759400  0.673697065
     0.966552211  0.281953275  0.677396779
     0.927052728  0.724837750  0.673160397
     0.308792238  0.053819239  0.671117691
     0.298978743  0.549657982  0.675027226
     0.800456734  0.057252905  0.674646290
     0.753314285  0.598308900  0.659743407
     0.084593005  0.162046340  0.644814273
     0.112291922  0.718481171  0.650214523
     0.577161096  0.166795150  0.649472798
     0.562810189  0.663494845  0.650884946
     0.179999405  0.413216310  0.648552204
     0.175512144  0.921795297  0.648681929
     0.707167257  0.401697040  0.661671771
     0.673746594  0.924807228  0.649671690
     0.062917650  0.178428794  0.671741534
     0.057504775  0.674796299  0.669147693
     0.596554414  0.255018712  0.659211684
     0.530386471  0.695616967  0.675607176
     0.199812115  0.445453637  0.674062616
     0.206748430  0.951814883  0.673371804
     0.668852611  0.488862166  0.666550188
     0.695276480  0.961378626  0.674784562
     0.399066662  0.298614330  0.658955957
     0.434137071  0.845029767  0.647886726
     0.937226404  0.326144029  0.654013379
     0.902504685  0.796148281  0.655657446
     0.332860584  0.078591921  0.645164075
     0.331768881  0.575473524  0.649901961
     0.837262779  0.076130400  0.649603195
     0.839756330  0.576788293  0.649566994
     0.008980932  0.253829681  0.631897139
     0.019791870  0.799467620  0.639537156
     0.449686525  0.187155145  0.648051249
     0.505434597  0.754047815  0.631597397
     0.251137176  0.998154550  0.629249393
     0.260690780  0.491471587  0.631574870
     0.761816713  0.992797255  0.632017036
     0.818340250  0.449336592  0.649245641
     0.448745018  0.301283966  0.768889017
     0.448745007  0.801283913  0.768889017
     0.948744965  0.301283966  0.768889017
     0.948745007  0.801283913  0.768889017
     0.301275995  0.051294496  0.768872961
     0.301276011  0.551294499  0.768872961
     0.801275943  0.051294496  0.768872961
     0.801275984  0.551294499  0.768872961
     0.078771004  0.171180501  0.743441971
     0.078771006  0.671180448  0.743441971
     0.578771004  0.171180501  0.743441971
     0.578770992  0.671180448  0.743441971
     0.171199499  0.421174482  0.743421032
     0.171199501  0.921174508  0.743421032
     0.671199512  0.421174482  0.743421032
     0.671199501  0.921174508  0.743421032
     0.051256000  0.198714991  0.768889017
     0.051256002  0.698714925  0.768889017
     0.551256027  0.198714991  0.768889017
     0.551256016  0.698714925  0.768889017
     0.198723491  0.448703970  0.768872046
     0.198723493  0.948703970  0.768872046
     0.698723518  0.448703970  0.768872046
     0.698723507  0.948703970  0.768872046
     0.421231519  0.328817467  0.743441971
     0.421231508  0.828817440  0.743441971
     0.921231466  0.328817467  0.743441971
     0.921231508  0.828817440  0.743441971
     0.328800503  0.078824997  0.743421032
     0.328800492  0.578824964  0.743421032
     0.828800477  0.078824997  0.743421032
     0.828800519  0.578824964  0.743421032
     0.000003500  0.250001478  0.725821992
     0.000003500  0.750001452  0.725821992
     0.500003506  0.250001478  0.725821992
     0.500003495  0.750001452  0.725821992
     0.250000502  0.000000000  0.725803983
     0.250000517  0.500000000  0.725803983
     0.750000502  0.000000000  0.725803983
     0.750000490  0.500000000  0.725803983
     0.776374750  0.556799821  0.519465960
     0.720932931  0.478092966  0.525266864
     0.869330022  0.501205477  0.539849737
     0.857612738  0.481168379  0.567390646
     0.743656458  0.641913995  0.560120210
     0.808971377  0.595752541  0.576676439
     0.665933829  0.548725891  0.569375051
     0.678770913  0.456097971  0.560554012
     0.616691893  0.557103567  0.536993758
     0.672461491  0.636880209  0.535280219
     0.606066260  0.645803074  0.503876508
     0.686890674  0.601712715  0.494637325
     0.785147410  0.391937490  0.530499600
     0.779129904  0.369586005  0.558313269
     0.865887540  0.368363659  0.545026126
     0.863001303  0.694893638  0.554372234
     0.844199058  0.647349466  0.530556985
     0.908071496  0.609738388  0.549699974
     0.764599259  0.529133297  0.597947722
     0.772248945  0.435035357  0.589547116
     0.688424132  0.467894879  0.600209771
     0.536080559  0.530486080  0.503593645
     0.577011111  0.548088042  0.478490632
     0.697532715  0.478452782  0.469138572
     0.558926274  0.415111009  0.521922201
     0.763120509  0.358366651  0.471430351
     0.624727323  0.295149586  0.524601936
     0.728220569  0.266595031  0.499602734
     0.019325593  0.254468798  0.557868477
     0.035400500  0.759850230  0.560672566
     0.464635688  0.228276042  0.553947649
     0.498258374  0.756920908  0.555657952
     0.240048290  0.532380726  0.559106762
     0.250843004  0.011520040  0.556109214
     0.772305710  0.981532548  0.560575440
     0.010970900  0.243955877  0.649032097
     0.008159037  0.759385293  0.652124940
     0.486511560  0.231558000  0.653436115
     0.498812935  0.754078755  0.649145767
     0.255950783  0.493964219  0.648933872
     0.253936433  0.000028079  0.646635011
     0.775552829  0.486874649  0.655036655
     0.755886927  0.999773888  0.649238010
     0.499988984  0.249994984  0.743277021
     0.499989025  0.749994958  0.743277021
     0.999988984  0.249994984  0.743277021
     0.999989025  0.749994958  0.743277021
     0.250000502  0.000001000  0.743255960
     0.250000517  0.500001003  0.743255960
     0.750000502  0.000001000  0.743255960
     0.750000491  0.500001003  0.743255960
     0.624510345  0.455852673  0.495472269
     0.681927208  0.438705378  0.481243899
     0.604084547  0.402871366  0.510830016
     0.718873166  0.370662656  0.482653727
     0.640773859  0.335139516  0.512338436
     0.698797917  0.318986719  0.498294459
     0.732236438  0.535327154  0.530028498
     0.830809442  0.477853634  0.551605933
     0.792045729  0.604868064  0.560052325
     0.706291371  0.503365854  0.568221867
     0.662710710  0.582690812  0.528195062
     0.637599407  0.593371787  0.504896365
     0.812814278  0.398047557  0.546072844
     0.855382935  0.639327858  0.547643532
     0.735815109  0.483038368  0.590148249
     0.589040925  0.531432162  0.495117493
     0.996667561  0.191537487  0.566453996
     0.031592618  0.698944806  0.571998196
     0.534913989  0.218975238  0.558304356
     0.472055958  0.696319599  0.564306777
     0.426089526  0.288782658  0.557669768
     0.468546737  0.822530290  0.558096856
     0.995407626  0.319736579  0.564011979
     0.987168490  0.814199023  0.561912438
     0.238280062  0.461918918  0.564476489
     0.190885678  0.974312330  0.560872252
     0.700334700  0.987783853  0.563332156
     0.317689926  0.993906407  0.562773023
     0.299579440  0.573909339  0.558474128
     0.821184852  0.033137092  0.564541504
     0.054555656  0.191694309  0.655871539
     0.061042483  0.713391050  0.657119957
     0.557466444  0.217451589  0.654372276
     0.532646981  0.700620341  0.659473150
     0.209209706  0.448306825  0.658070953
     0.209168178  0.955544354  0.657085649
     0.711956288  0.457974982  0.660932610
     0.705307035  0.959412967  0.658692049
     0.455639592  0.294554688  0.658974698
     0.458608184  0.806917376  0.657649910
     0.968725595  0.286495356  0.661175151
     0.942541378  0.761642289  0.661349075
     0.301536517  0.046502151  0.655076336
     0.298376748  0.542356799  0.658777454
     0.800101789  0.047366152  0.658677215
     0.790411226  0.557862586  0.655391951
     0.045862501  0.204119496  0.752725994
     0.045862500  0.704119456  0.752725994
     0.545862507  0.204119496  0.752725994
     0.545862496  0.704119456  0.752725994
     0.204119002  0.454101003  0.752704994
     0.204118991  0.954100951  0.752704994
     0.704118976  0.454101003  0.752704994
     0.704118964  0.954100951  0.752704994
     0.454140018  0.295888490  0.752726971
     0.454140007  0.795888516  0.752726971
     0.954140018  0.295888490  0.752726971
     0.954140060  0.795888516  0.752726971
     0.295882492  0.045900498  0.752704994
     0.295882481  0.545900528  0.752704994
     0.795882439  0.045900498  0.752704994
     0.795882481  0.545900528  0.752704994
     0.764956818  0.530199441  0.552381540
     0.508672948  0.016354767  0.551326703
     0.478089685  0.498254297  0.555010179
     0.005315461  0.004464989  0.549088767
     0.039400757  0.505462345  0.553471663
     0.234312300  0.242734244  0.551978261
     0.255953028  0.764150919  0.553251648
     0.736035011  0.201806534  0.555093875
     0.702986658  0.792442674  0.553810964
     0.999992465  0.983670684  0.653993172
     0.996868341  0.501887307  0.655094772
     0.502042334  0.013955637  0.654008190
     0.512614248  0.488827320  0.655379741
     0.261260000  0.245708972  0.654154337
     0.260006074  0.753116939  0.654510854
     0.753067978  0.262959619  0.654503101
     0.743628677  0.751245683  0.654550230
     0.135260890  0.110513624  0.607506518
     0.151489656  0.603499231  0.608944123
     0.648294570  0.104828539  0.610756680
     0.616527966  0.629916298  0.610664194
     0.360834164  0.384368728  0.605896577
     0.372801908  0.881520582  0.606600881
     0.891437049  0.364819164  0.610654853
     0.872197948  0.874856351  0.605727903
     0.124915518  0.368308380  0.609066889
     0.122920548  0.866170125  0.607671957
     0.589725173  0.335870633  0.601638096
     0.617785278  0.872108072  0.612146424
     0.384838154  0.133476605  0.604267895
     0.385486854  0.630057848  0.610992811
     0.886007765  0.132065705  0.611884286
     0.899605541  0.641286811  0.611610061
     0.000000000  0.000000000  0.754927972
     0.000000000  0.500000000  0.754927972
     0.500000000  0.000000000  0.754927972
     0.499999989  0.500000000  0.754927972
     0.250000496  0.250000000  0.754939022
     0.250000511  0.749999974  0.754939022
     0.750000470  0.250000000  0.754939022
     0.750000458  0.749999974  0.754939022
     0.135790500  0.114209997  0.704782994
     0.135790502  0.614209984  0.704782994
     0.635790447  0.114209997  0.704782994
     0.635790488  0.614209984  0.704782994
     0.364209516  0.385789989  0.704782994
     0.364209505  0.885789963  0.704782994
     0.864209542  0.385789989  0.704782994
     0.864209531  0.885789963  0.704782994
     0.114217990  0.364218986  0.704780979
     0.114217992  0.864218986  0.704780979
     0.614218004  0.364218986  0.704780979
     0.614217992  0.864218986  0.704780979
     0.385782012  0.135781489  0.704782017
     0.385782001  0.635781489  0.704782017
     0.885781985  0.135781489  0.704782017
     0.885782027  0.635781489  0.704782017
     0.134667000  0.115332001  0.801256025
     0.134666989  0.615331988  0.801256025
     0.634666987  0.115332001  0.801256025
     0.634666976  0.615331988  0.801256025
     0.365333002  0.384667985  0.801256025
     0.365332990  0.884667959  0.801256025
     0.865332949  0.384667985  0.801256025
     0.865332938  0.884667959  0.801256025
     0.115328503  0.365337004  0.801264999
     0.115328505  0.865336978  0.801264999
     0.615328503  0.365337004  0.801264999
     0.615328492  0.865336978  0.801264999
     0.384671513  0.134662996  0.801264999
     0.384671501  0.634662970  0.801264999
     0.884671486  0.134662996  0.801264999
     0.884671528  0.634662970  0.801264999
     0.999359225  0.997591636  0.605349715
     0.007534474  0.501105689  0.605116514
     0.502895529  0.008120777  0.603246877
     0.497660083  0.492356846  0.604921101
     0.246551737  0.245731543  0.602459305
     0.250642003  0.744697923  0.603793557
     0.742489155  0.245502480  0.602846224
     0.738046930  0.755550279  0.603177467
     0.000000500  0.000000500  0.704828963
     0.000000500  0.500000475  0.704828963
     0.500000475  0.000000500  0.704828963
     0.500000464  0.500000475  0.704828963
     0.249999994  0.249999472  0.704824995
     0.250000010  0.749999498  0.704824995
     0.749999994  0.249999472  0.704824995
     0.749999983  0.749999498  0.704824995
     0.000000000  0.000000000  0.807317968
     0.000000000  0.500000000  0.807317968
     0.500000000  0.000000000  0.807317968
     0.499999989  0.500000000  0.807317968
     0.249999994  0.250000000  0.807317968
     0.250000010  0.749999974  0.807317968
     0.749999994  0.250000000  0.807317968
     0.749999983  0.749999974  0.807317968

  ion indices of the primitive-cell ions
   primitive index   ion index
                 1           1
                 2           2
                 3           3
                 4           4
                 5           5
                 6           6
                 7           7
                 8           8
                 9           9
                10          10
                11          11
                12          12
                13          13
                14          14
                15          15
                16          16
                17          17
                18          18
                19          19
                20          20
                21          21
                22          22
                23          23
                24          24
                25          25
                26          26
                27          27
                28          28
                29          29
                30          30
                31          31
                32          32
                33          33
                34          34
                35          35
                36          36
                37          37
                38          38
                39          39
                40          40
                41          41
                42          42
                43          43
                44          44
                45          45
                46          46
                47          47
                48          48
                49          49
                50          50
                51          51
                52          52
                53          53
                54          54
                55          55
                56          56
                57          57
                58          58
                59          59
                60          60
                61          61
                62          62
                63          63
                64          64
                65          65
                66          66
                67          67
                68          68
                69          69
                70          70
                71          71
                72          72
                73          73
                74          74
                75          75
                76          76
                77          77
                78          78
                79          79
                80          80
                81          81
                82          82
                83          83
                84          84
                85          85
                86          86
                87          87
                88          88
                89          89
                90          90
                91          91
                92          92
                93          93
                94          94
                95          95
                96          96
                97          97
                98          98
                99          99
               100         100
               101         101
               102         102
               103         103
               104         104
               105         105
               106         106
               107         107
               108         108
               109         109
               110         110
               111         111
               112         112
               113         113
               114         114
               115         115
               116         116
               117         117
               118         118
               119         119
               120         120
               121         121
               122         122
               123         123
               124         124
               125         125
               126         126
               127         127
               128         128
               129         129
               130         130
               131         131
               132         132
               133         133
               134         134
               135         135
               136         136
               137         137
               138         138
               139         139
               140         140
               141         141
               142         142
               143         143
               144         144
               145         145
               146         146
               147         147
               148         148
               149         149
               150         150
               151         151
               152         152
               153         153
               154         154
               155         155
               156         156
               157         157
               158         158
               159         159
               160         160
               161         161
               162         162
               163         163
               164         164
               165         165
               166         166
               167         167
               168         168
               169         169
               170         170
               171         171
               172         172
               173         173
               174         174
               175         175
               176         176
               177         177
               178         178
               179         179
               180         180
               181         181
               182         182
               183         183
               184         184
               185         185
               186         186
               187         187
               188         188
               189         189
               190         190
               191         191
               192         192
               193         193
               194         194
               195         195
               196         196
               197         197
               198         198
               199         199
               200         200
               201         201
               202         202
               203         203
               204         204
               205         205
               206         206
               207         207
               208         208
               209         209
               210         210
               211         211
               212         212
               213         213
               214         214
               215         215
               216         216
               217         217
               218         218
               219         219
               220         220
               221         221
               222         222
               223         223
               224         224
               225         225
               226         226
               227         227
               228         228
               229         229
               230         230
               231         231
               232         232
               233         233
               234         234
               235         235
               236         236
               237         237
               238         238
               239         239
               240         240
               241         241
               242         242
               243         243
               244         244
               245         245
               246         246
               247         247
               248         248
               249         249
               250         250
               251         251
               252         252
               253         253
               254         254
               255         255
               256         256
               257         257
               258         258
               259         259
               260         260
               261         261
               262         262
               263         263
               264         264
               265         265
               266         266
               267         267
               268         268
               269         269
               270         270
               271         271
               272         272
               273         273
               274         274
               275         275
               276         276
               277         277
               278         278
               279         279
               280         280
               281         281
               282         282
               283         283
               284         284
               285         285
               286         286
               287         287
               288         288
               289         289
               290         290
               291         291
               292         292
               293         293
               294         294
               295         295
               296         296
               297         297
               298         298
               299         299
               300         300
               301         301
               302         302
               303         303
               304         304
               305         305
               306         306
               307         307
               308         308
               309         309
               310         310
               311         311
               312         312
               313         313
               314         314
               315         315
               316         316
               317         317
               318         318
               319         319
               320         320
               321         321
               322         322
               323         323
               324         324
               325         325

----------------------------------------------------------------------------------------

 
 
 KPOINTS: Automatic Mesh                          

Automatic generation of k-mesh.
 Grid dimensions read from file:
 generate k-points for:    3    3    1

 Generating k-lattice:

  Cartesian coordinates                     Fractional coordinates (reciprocal lattice)
     0.018456177  0.000005026 -0.000000000     0.333333333  0.000000000  0.000000000
     0.000000000  0.018454135  0.000000000     0.000000000  0.333333333  0.000000000
     0.000000000 -0.000000000  0.016003201     0.000000000  0.000000000  1.000000000

  Length of vectors
     0.018456178  0.018454135  0.016003201

  Shift w.r.t. Gamma in fractional coordinates (k-lattice)
     0.000000000  0.000000000  0.000000000

 
 Subroutine IBZKPT returns following result:
 ===========================================
 
 Found      5 irreducible k-points:
 
 Following reciprocal coordinates:
            Coordinates               Weight
  0.000000  0.000000  0.000000      1.000000
  0.333333  0.000000  0.000000      2.000000
  0.000000  0.333333  0.000000      2.000000
  0.333333  0.333333  0.000000      2.000000
 -0.333333  0.333333  0.000000      2.000000
 
 Following cartesian coordinates:
            Coordinates               Weight
  0.000000  0.000000  0.000000      1.000000
  0.018456  0.000005  0.000000      2.000000
  0.000000  0.018454  0.000000      2.000000
  0.018456  0.018459  0.000000      2.000000
 -0.018456  0.018449  0.000000      2.000000
 


--------------------------------------------------------------------------------------------------------




 Dimension of arrays:
   k-points           NKPTS =      5   k-points in BZ     NKDIM =      5   number of bands    NBANDS=    732
   number of dos      NEDOS =    301   number of ions     NIONS =    325
   non local maximal  LDIM  =      5   non local SUM 2l+1 LMDIM =     13
   total plane-waves  NPLWV = ******
   max r-space proj   IRMAX =   3336   max aug-charges    IRDMAX=  19845
   dimension x,y,z NGX =   100 NGY =  100 NGZ =  350
   dimension x,y,z NGXF=   200 NGYF=  200 NGZF=  700
   support grid    NGXF=   200 NGYF=  200 NGZF=  700
   ions per type =             143  39  47  72  24
   NGX,Y,Z   is equivalent  to a cutoff of   9.20,  9.20,  9.31 a.u.
   NGXF,Y,Z  is equivalent  to a cutoff of  18.41, 18.41, 18.62 a.u.

 SYSTEM =  PSC                                     
 POSCAR =   H  C  N  I Pb                          

 Startparameter for this run:
   NWRITE =      2    write-flag & timer
   PREC   = normal    normal or accurate (medium, high low for compatibility)
   ISTART =      0    job   : 0-new  1-cont  2-samecut
   ICHARG =      1    charge: 1-file 2-atom 10-const
   ISPIN  =      1    spin polarized calculation?
   LNONCOLLINEAR =      F non collinear calculations
   LSORBIT =      F    spin-orbit coupling
   INIWAV =      1    electr: 0-lowe 1-rand  2-diag
   LASPH  =      F    aspherical Exc in radial PAW
 Electronic Relaxation 1
   ENCUT  =  500.0 eV  36.75 Ry    6.06 a.u.  32.93 32.93113.93*2*pi/ulx,y,z
   ENINI  =  500.0     initial cutoff
   ENAUG  =  644.9 eV  augmentation charge cutoff
   NELM   =    600;   NELMIN=  2; NELMDL=  0     # of ELM steps 
   EDIFF  = 0.1E-03   stopping-criterion for ELM
   LREAL  =      T    real-space projection
   NLSPLINE    = F    spline interpolate recip. space projectors
   LCOMPAT=      F    compatible to vasp.4.4
   GGA_COMPAT  = F    GGA compatible to vasp.4.4-vasp.4.6
   LMAXPAW     = -100 max onsite density
   LMAXMIX     =    2 max onsite mixed and CHGCAR
   VOSKOWN=      0    Vosko Wilk Nusair interpolation
   ROPT   =   -0.00050  -0.00050  -0.00050  -0.00050
   ROPT   =   -0.00050
 Ionic relaxation
   EDIFFG = 0.1E-02   stopping-criterion for IOM
   NSW    =      0    number of steps for IOM
   NBLOCK =      1;   KBLOCK =      1    inner block; outer block 
   IBRION =     -1    ionic relax: 0-MD 1-quasi-New 2-CG
   NFREE  =      0    steps in history (QN), initial steepest desc. (CG)
   ISIF   =      2    stress and relaxation
   IWAVPR =     10    prediction:  0-non 1-charg 2-wave 3-comb
   ISYM   =      0    0-nonsym 1-usesym 2-fastsym
   LCORR  =      T    Harris-Foulkes like correction to forces

   POTIM  = 0.5000    time-step for ionic-motion
   TEIN   =    0.0    initial temperature
   TEBEG  =    0.0;   TEEND  =   0.0 temperature during run
   SMASS  =  -3.00    Nose mass-parameter (am)
   estimated Nose-frequenzy (Omega)   =  0.10E-29 period in steps = 0.13E+47 mass=  -0.745E-26a.u.
   SCALEE = 1.0000    scale energy and forces
   NPACO  =    256;   APACO  = 16.0  distance and # of slots for P.C.
   PSTRESS=    0.0 pullay stress

  Mass of Ions in am
   POMASS =   1.00 12.01 14.00126.90207.20
  Ionic Valenz
   ZVAL   =   1.00  4.00  5.00  7.00  4.00
  Atomic Wigner-Seitz radii
   RWIGS  =  -1.00 -1.00 -1.00 -1.00 -1.00
  virtual crystal weights 
   VCA    =   1.00  1.00  1.00  1.00  1.00
   NELECT =    1134.0000    total number of electrons
   NUPDOWN=      -1.0000    fix difference up-down

 DOS related values:
   EMIN   =  10.00;   EMAX   =-10.00  energy-range for DOS
   EFERMI =   0.00
   ISMEAR =     0;   SIGMA  =   0.05  broadening in eV -4-tet -1-fermi 0-gaus

 Electronic relaxation 2 (details)
   IALGO  =     38    algorithm
   LDIAG  =      T    sub-space diagonalisation (order eigenvalues)
   LSUBROT=      F    optimize rotation matrix (better conditioning)
   TURBO    =      0    0=normal 1=particle mesh
   IRESTART =      0    0=no restart 2=restart with 2 vectors
   NREBOOT  =      0    no. of reboots
   NMIN     =      0    reboot dimension
   EREF     =   0.00    reference energy to select bands
   IMIX   =      4    mixing-type and parameters
     AMIX     =   0.40;   BMIX     =  0.01
     AMIX_MAG =   1.60;   BMIX_MAG =  0.01
     AMIN     =   0.01
     WC   =   100.;   INIMIX=   1;  MIXPRE=   1;  MAXMIX= -45

 Intra band minimization:
   WEIMIN = 0.0000     energy-eigenvalue tresh-hold
   EBREAK =  0.34E-07  absolut break condition
   DEPER  =   0.30     relativ break condition  

   TIME   =   0.40     timestep for ELM

  volume/ion in A,a.u.               =      62.72       423.28
  Fermi-wavevector in a.u.,A,eV,Ry     =   0.624944  1.180972  5.313816  0.390554
  Thomas-Fermi vector in A             =   1.685677
 
 Write flags
   LWAVE        =      F    write WAVECAR
   LDOWNSAMPLE  =      F    k-point downsampling of WAVECAR
   LCHARG       =      T    write CHGCAR
   LVTOT        =      T    write LOCPOT, total local potential
   LVHAR        =      F    write LOCPOT, Hartree potential only
   LELF         =      F    write electronic localiz. function (ELF)
   LORBIT       =      0    0 simple, 1 ext, 2 COOP (PROOUT), +10 PAW based schemes


 Dipole corrections
   LMONO  =      F    monopole corrections only (constant potential shift)
   LDIPOL =      T    correct potential (dipole corrections)
   IDIPOL =      3    1-x, 2-y, 3-z, 4-all directions 
   EPSILON=  1.0000000 bulk dielectric constant

 Exchange correlation treatment:
   GGA     =    --    GGA type
   LEXCH   =     8    internal setting for exchange type
   VOSKOWN=      0    Vosko Wilk Nusair interpolation
   LHFCALC =     F    Hartree Fock is set to
   LHFONE  =     F    Hartree Fock one center treatment
   AEXX    =    0.0000 exact exchange contribution

 Linear response parameters
   LEPSILON=     F    determine dielectric tensor
   LRPA    =     F    only Hartree local field effects (RPA)
   LNABLA  =     F    use nabla operator in PAW spheres
   LVEL    =     F    velocity operator in full k-point grid
   LINTERFAST=   F  fast interpolation
   KINTER  =     0    interpolate to denser k-point grid
   CSHIFT  =0.1000    complex shift for real part using Kramers Kronig
   OMEGAMAX=  -1.0    maximum frequency
   DEG_THRESHOLD= 0.2000000E-02 threshold for treating states as degnerate
   RTIME   =   -0.100 relaxation time in fs
  (WPLASMAI=    0.000 imaginary part of plasma frequency in eV, 0.658/RTIME)
   DFIELD  = 0.0000000 0.0000000 0.0000000 field for delta impulse in time
 
 Orbital magnetization related:
   ORBITALMAG=     F  switch on orbital magnetization
   LCHIMAG   =     F  perturbation theory with respect to B field
   DQ        =  0.001000  dq finite difference perturbation B field
   LLRAUG    =     F  two centre corrections for induced B field



--------------------------------------------------------------------------------------------------------


 Static calculation
 charge density and potential will be updated during run
 non-spin polarized calculation
 Variant of blocked Davidson
 Davidson routine will perform the subspace rotation
 perform sub-space diagonalisation
    after iterative eigenvector-optimisation
 modified Broyden-mixing scheme, WC =      100.0
 initial mixing is a Kerker type mixing with AMIX =  0.4000 and BMIX =      0.0100
 Hartree-type preconditioning will be used
 using additional bands           165
 real space projection scheme for non local part
[...]
     13.54561      0.00000     45.35368        -0.001669     -0.003077      0.013938
     13.54315      9.03140     45.35368         0.000293     -0.008088     -0.009394
     14.01921     10.05736     32.46013        -0.119430     -0.073829      0.199545
     13.01827      8.63570     32.82261        -0.040703      0.076351     -0.051111
     15.69833      9.05317     33.73386        -0.019967      0.013363      0.038644
     15.48681      8.69125     35.45482        -0.034881      0.053336     -0.098684
     13.42787     11.59476     35.00051         0.097804     -0.089562     -0.018875
     14.60774     10.76096     36.03507         0.067582      0.113927      0.012970
     12.02460      9.91153     35.57882         0.035176     -0.075451      0.014019
     12.25690      8.23841     35.02762        -0.014419     -0.018863      0.022016
     11.13521     10.06285     33.55540        -0.005873     -0.032480      0.115661
     12.14206     11.50384     33.44832         0.069034      0.364728      0.102480
     10.94287     11.66501     31.48598         0.079754     -0.167732      0.024538
     12.40284     10.86862     30.90865        -0.089459     -0.003565      0.045724
     14.17846      7.07949     33.14959         0.063911     -0.054325      0.106045
     14.06989      6.67576     34.88760         0.127643      0.150968     -0.191618
     15.63681      6.65368     34.05732        -0.096138     -0.008485      0.013565
     15.58308     12.55172     34.64133        -0.017618      0.086642      0.005018
     15.24373     11.69294     33.15318        -0.073271     -0.044231     -0.036489
     16.39750     11.01358     34.34938        -0.075191     -0.041162     -0.049039
     13.80667      9.55763     37.36426         0.020861     -0.038085      0.082087
     13.94529      7.85796     36.83932         0.140236     -0.105212      0.040199
     12.43119      8.45149     37.50561         0.029956      0.046254     -0.016956
      9.67943      9.58206     31.46831        -0.175581     -0.103152      0.135846
     10.41859      9.90000     29.89968        -0.015915     -0.085550      0.025744
     12.59565      8.64220     29.31530         0.144199      0.258759     -0.297389
     10.09261      7.49807     32.61361         0.027171      0.048485     -0.030616
     13.78080      6.47310     29.45850         0.138911     -0.072279     -0.086893
     11.28162      5.33123     32.78106         0.035179      0.016191     -0.042107
     13.15094      4.81545     31.21893         0.026368     -0.072249      0.004267
      0.34778      4.59642     34.85981        -0.286296     -0.378118      0.301540
      0.63562     13.72502     35.03503         0.120707     -0.015545     -0.100938
      8.39057      4.12330     34.61480        -0.462769      0.114940     -0.032355
      8.99522     13.67211     34.72168         0.047369      0.105915     -0.036701
      4.33285      9.61629     34.93718        -0.021187      0.200418     -0.075778
      4.53037      0.20808     34.74987         0.330108      0.100639     -0.098318
     13.94363     17.72923     35.02896        -0.139397     -0.227681      0.158362
      0.19694      4.40653     40.55639        -0.528327      0.538251      0.302200
      0.14362     13.71662     40.74966        -0.590530      0.228939      0.193449
      8.78565      4.18259     40.83159        -0.356433      0.050144      0.236972
      9.00525     13.62077     40.56350         0.064625     -0.016614     -0.587350
      4.62025      8.92238     40.55025         0.132623      0.133675      0.054220
      4.58630      0.00051     40.40660         0.018705      0.011316      0.010766
     14.00471      8.79432     40.93160        -0.296876      0.102269      0.118770
     13.64701     18.05872     40.56926         0.063007      0.029968     -0.018165
      9.02897      4.51561     46.44552         0.013730     -0.002069     -0.004617
      9.02651     13.54701     46.44552         0.012227      0.004476      0.036480
     18.05937      4.51561     46.44552        -0.004681      0.021200      0.048458
     18.05691     13.54701     46.44552         0.005511      0.015084      0.007001
      4.51521      0.00002     46.44421         0.005520      0.003028      0.055164
      4.51275      9.03142     46.44421        -0.003188     -0.006072      0.035480
     13.54561      0.00002     46.44421        -0.009321     -0.010480      0.013794
     13.54315      9.03142     46.44421        -0.013934     -0.018544      0.004779
     11.27691      8.23398     30.96082        -0.065669      0.083577      0.081514
     12.31399      7.92425     30.07173        -0.043858     -0.491122      0.349616
     10.90827      7.27698     31.92049        -0.108937      0.031195      0.029116
     12.98160      6.69521     30.15982        -0.183750      0.164491      0.048741
     11.57124      6.05356     32.01475         0.063052     -0.019188     -0.062670
     12.61928      5.76179     31.13717         0.013107      0.064275     -0.024235
     13.22214      9.66951     33.12016        -0.052048     -0.077445     -0.078961
     15.00273      8.63137     34.46848        -0.048481     -0.198455      0.052539
     14.30200     10.92561     34.99627        -0.089441      0.065264     -0.001499
     12.75371      9.09220     35.50676        -0.065523     -0.003159     -0.148677
     11.96622     10.52503     33.00559        -0.143693     -0.350501     -0.126631
     11.51264     10.71796     31.54971         0.193672      0.220293     -0.271878
     14.67812      7.18985     34.12273        -0.032858     -0.048055      0.080104
     15.44576     11.54805     34.22087         0.088225      0.045956      0.092996
     13.28703      8.72503     36.87689        -0.113791      0.084757     -0.251573
     10.63594      9.59915     30.93865         0.199787      0.195046     -0.043897
     17.99967      3.45970     35.39629         0.272122      0.161746     -0.526347
      0.56715     12.62490     35.74274         0.105919      0.001761     -0.225439
      9.65990      3.95531     34.88704         0.077911     -0.104458      0.001129
      8.52228     12.57748     35.26212         0.037386     -0.179496      0.023002
      7.69410      5.21622     34.84739         0.045115     -0.337635     -0.193907
      8.45828     14.85720     34.87408        -0.223199      0.215631      0.221987
     17.97629      5.77534     35.24370         0.113148     -0.028302     -0.108851
     17.82505     14.70671     35.11250        -0.074793     -0.065543      0.063019
      4.30126      8.34355     35.27272         0.121495      0.034744      0.155227
      3.44276     17.59881     35.04750         0.045918     -0.255671      0.214830
     12.64375     17.84214     35.20122         0.501365      0.606650      0.179107
      5.73285     17.95273     35.16628        -0.725094     -0.429311      0.241048
      5.40782     10.36641     34.89765         0.312456     -0.668864      0.151912
     14.83109      0.59855     35.27679        -0.265416      0.345242      0.035429
      0.98438      3.46254     40.98377         0.496846     -0.548277      0.244187
      1.09897     12.88584     41.06178         0.523671     -0.431733      0.200099
     10.06722      3.92778     40.89009         0.495753     -0.304955     -0.119774
      9.61658     12.65516     41.20883        -0.242382      0.334084     -0.015729
      3.77629      8.09768     41.12121         0.095937      0.127730     -0.146507
      3.77304     17.25981     41.05964         0.317787      0.310724      0.351884
     12.85625      8.27231     41.30003         0.134668      0.023308      0.006427
     12.73369     17.32968     41.16002         0.117720      0.128512      0.369188
      8.22777      5.32048     41.17768        -0.056285     -0.240074     -0.069567
      8.27886     14.57519     41.09490        -0.002362     -0.011174      0.096869
     17.49455      5.17491     41.31518         0.276329     -0.253503     -0.259077
     17.01931     13.75739     41.32605         0.162183     -0.142690     -0.053483
      5.44576      0.83996     40.93408        -0.099520     -0.086908     -0.004213
      5.38626      9.79648     41.16536        -0.239519     -0.226607      0.322569
     14.45025      0.85557     41.15909        -0.031044     -0.071340     -0.262886
     14.27272     10.07656     40.95380         0.037635      0.341521     -0.105810
      0.82731      3.68697     47.03596         0.028807     -0.035867     -0.088012
      0.82485     12.71837     47.03596         0.030046     -0.033074     -0.068446
      9.85771      3.68697     47.03596         0.019243     -0.025218     -0.062758
      9.85525     12.71837     47.03596         0.022125     -0.025505     -0.094631
      3.68432      8.20234     47.03465        -0.013860     -0.008970     -0.067402
      3.68186     17.23373     47.03465        -0.013344     -0.009434     -0.059580
     12.71472      8.20234     47.03465        -0.009501     -0.005538     -0.063693
     12.71226     17.23373     47.03465        -0.010742     -0.010793     -0.056821
      8.20068      5.34457     47.03603        -0.027403      0.023740     -0.063587
      8.19822     14.37597     47.03603        -0.022976      0.016930     -0.089971
     17.23108      5.34457     47.03603        -0.006376      0.004786     -0.088405
     17.22862     14.37597     47.03603        -0.013762      0.014877     -0.066100
      5.34365      0.82909     47.03465         0.003248      0.005514     -0.063628
      5.34119      9.86049     47.03465         0.012367      0.019163     -0.068860
     14.37405      0.82909     47.03465         0.025840      0.020805     -0.055713
     14.37159      9.86049     47.03465         0.027601      0.029647     -0.067908
     13.81312      9.57689     34.51694         0.124394     -0.027262     -0.085856
      9.18696      0.29541     34.45103         0.026084      0.049005      0.010432
      8.63223      8.99987     34.68120         0.089007     -0.040326     -0.014924
      0.09598      0.08065     34.31118         0.021249     -0.009165     -0.011247
      0.70912      9.13006     34.58506        -0.041724      0.003226     -0.027536
      4.23067      4.38446     34.49174         0.001824     -0.011606      0.008639
      4.61896     13.80270     34.57131        -0.031029      0.044992      0.015487
     13.29239      3.64519     34.68643         0.029639      0.119645     -0.048318
     12.69260     14.31373     34.60626        -0.006979     -0.072463     -0.029470
     18.05583     17.76785     40.86640         0.024490     -0.010674      0.020358
     18.00177      9.06549     40.93523         0.016554      0.012085      0.005298
      9.06722      0.25208     40.86734        -0.035963     -0.014366      0.005190
      9.25582      8.82959     40.95304        -0.002653      0.009013     -0.063149
      4.71736      4.43819     40.87647        -0.011195      0.006212      0.023963
      4.69221     13.60340     40.89875        -0.062851      0.006296      0.022895
     13.59972      4.74979     40.89826        -0.024306      0.018479      0.014431
     13.42683     13.56960     40.90121         0.016982      0.012038     -0.012879
      2.44238      1.99619     37.96156         0.001745      0.003168     -0.000501
      2.73306     10.90089     38.05140        -0.018059      0.029985     -0.005413
     11.70820      1.89350     38.16466        -0.011671     -0.003915     -0.040440
     11.13189     11.37805     38.15888         0.007420      0.003142     -0.103867
      6.51506      6.94278     37.86096        -0.028018      0.049834     -0.037669
      6.72877     15.92273     37.90497         0.039546     -0.015182      0.036643
     16.09827      6.58966     38.15829        -0.046600     -0.039034     -0.109688
     15.74829     15.80235     37.85042        -0.036985     -0.023793     -0.009490
      2.25426      6.65268     38.05907        -0.012654     -0.042967      0.035322
      2.21578     15.64546     37.97190         0.019492      0.012567     -0.032738
     10.64926      6.06676     37.59486         0.022552      0.014523     -0.003618
     11.15341     15.75271     38.25150        -0.022037      0.014058      0.003981
      6.94983      2.41096     37.75919         0.012432      0.014581      0.025544
      6.95910     11.38061     38.17941        -0.008478     -0.036986      0.022036
     16.00136      2.38548     38.23512         0.014202      0.043619     -0.053750
     16.24444     11.58344     38.21798        -0.064528      0.064513     -0.153452
      0.00000      0.00000     47.17356         0.002612      0.005038      0.307415
     -0.00246      9.03140     47.17356        -0.000771      0.003144      0.425993
      9.03040      0.00000     47.17356        -0.003297     -0.003053      0.378604
      9.02794      9.03140     47.17356         0.003044      0.003522      0.434754
      4.51398      4.51570     47.17425        -0.005564     -0.003525      0.416239
      4.51152     13.54710     47.17425         0.004908     -0.001514      0.410749
     13.54438      4.51570     47.17425         0.005024      0.001202      0.428131
     13.54192     13.54710     47.17425        -0.005052     -0.006800      0.408200
      2.45192      2.06295     44.04013        -0.021760     -0.017578     -0.063153
      2.44946     11.09435     44.04013         0.018074     -0.020332     -0.074562
     11.48232      2.06295     44.04013         0.054960     -0.030792     -0.059176
     11.47986     11.09435     44.04013        -0.005198     -0.019058     -0.074327
      6.57602      6.96845     44.04013        -0.040945      0.055875     -0.016677
      6.57356     15.99985     44.04013         0.005670      0.007793     -0.045112
     15.60642      6.96845     44.04013         0.067746     -0.018542      0.003973
     15.60396     15.99985     44.04013        -0.030362      0.025015     -0.013901
      2.06108      6.57881     44.04000         0.007307     -0.001043     -0.044594
      2.05862     15.61021     44.04000         0.068301      0.043716     -0.031923
     11.09148      6.57881     44.04000        -0.023819     -0.050340     -0.012032
     11.08902     15.61021     44.04000        -0.029008      0.010467     -0.041412
      6.96686      2.45259     44.04007        -0.062369     -0.071416     -0.023505
      6.96440     11.48399     44.04007         0.031299      0.004063     -0.042614
     15.99726      2.45259     44.04007         0.048388      0.017353     -0.048814
     15.99481     11.48399     44.04007         0.003231      0.009834     -0.013753
      2.43163      2.08322     50.06849         0.000969     -0.019011      0.023118
      2.42917     11.11462     50.06849         0.013431     -0.007784      0.024801
     11.46203      2.08322     50.06849         0.007200     -0.015509      0.028014
     11.45957     11.11462     50.06849         0.012522     -0.006283      0.023850
      6.59631      6.94818     50.06849        -0.015072      0.008235      0.026531
      6.59385     15.97958     50.06849        -0.010663      0.009548      0.023441
     15.62671      6.94818     50.06849        -0.007388      0.011384      0.024645
     15.62425     15.97958     50.06849        -0.002889      0.018003      0.025908
      2.08113      6.59901     50.06905        -0.010428     -0.011120      0.024062
      2.07867     15.63041     50.06905        -0.016542     -0.003138      0.024302
     11.11153      6.59901     50.06905        -0.008601     -0.010562      0.026332
     11.10907     15.63041     50.06905        -0.011913     -0.010687      0.025794
      6.94681      2.43239     50.06905         0.009658      0.006949      0.025729
      6.94435     11.46379     50.06905         0.005847      0.014310      0.024217
     15.97721      2.43239     50.06905         0.022017     -0.000389      0.025304
     15.97475     11.46379     50.06905         0.008223      0.011203      0.024671
     18.04432     18.01930     37.82679        -0.001608      0.020007     -0.041552
      0.13361      9.05137     37.81222         0.008499      0.047501      0.005777
      9.08266      0.14668     37.69539         0.021034     -0.071052      0.038696
      8.98572      8.89334     37.80001         0.013195      0.011659     -0.010795
      4.45171      4.43860     37.64618         0.001971     -0.007878     -0.021959
      4.52313     13.45133     37.72955         0.003724     -0.003161      0.002462
     13.40874      4.43446     37.67035         0.012687      0.030270      0.006161
     13.32600     13.64735     37.69105        -0.037427      0.007153     -0.055190
      0.00001      0.00001     44.04300        -0.048923     -0.135369      0.168965
     -0.00245      9.03141     44.04300        -0.038230     -0.068426      0.187563
      9.03041      0.00001     44.04300         0.048969      0.099988      0.094028
      9.02795      9.03141     44.04300        -0.051533     -0.075025      0.299364
      4.51397      4.51569     44.04275         0.096123      0.028171      0.044779
      4.51151     13.54709     44.04275        -0.066564      0.037286      0.098936
     13.54437      4.51569     44.04275        -0.063929      0.013109      0.163945
     13.54191     13.54709     44.04275         0.004180      0.112874      0.161745
      0.00000      0.00000     50.44728        -0.003747      0.001696     -0.603913
     -0.00246      9.03140     50.44728        -0.003328     -0.002149     -0.633282
      9.03040      0.00000     50.44728         0.003588      0.005140     -0.625829
      9.02794      9.03140     50.44728         0.002490     -0.005617     -0.637769
      4.51397      4.51570     50.44728         0.007432      0.007643     -0.633757
      4.51151     13.54710     50.44728         0.004462     -0.008010     -0.629807
     13.54437      4.51570     50.44728        -0.008824      0.006419     -0.640459
     13.54191     13.54710     50.44728        -0.004450     -0.007479     -0.631910
 -----------------------------------------------------------------------------------
    total drift:                                0.091669      0.092580      0.520592


--------------------------------------------------------------------------------------------------------



  FREE ENERGIE OF THE ION-ELECTRON SYSTEM (eV)
  ---------------------------------------------------
  free  energy   TOTEN  =     -1576.04466626 eV

  energy  without entropy=    -1576.04466626  energy(sigma->0) =    -1576.04466626
 


--------------------------------------------------------------------------------------------------------


    POTLOK:  cpu time    0.5021: real time    0.5020


--------------------------------------------------------------------------------------------------------


     LOOP+:  cpu time  266.1697: real time  266.7410
 vacuum level on the upper side and lower side of the slab         2.296         1.611
    4ORBIT:  cpu time    0.0000: real time    0.0000

 total amount of memory used by VASP MPI-rank0  8653580. kBytes
=======================================================================

   base      :      30000. kBytes
   nonlr-proj:      53618. kBytes
   fftplans  :     249280. kBytes
   grid      :     701440. kBytes
   one-center:       2636. kBytes
   wavefun   :    7616606. kBytes
 
  
  
 General timing and accounting informations for this job:
 ========================================================
  
                  Total CPU time used (sec):      479.047
                            User time (sec):      392.155
                          System time (sec):       86.892
                         Elapsed time (sec):      482.183
  
                   Maximum memory used (kb):    10307588.
                   Average memory used (kb):          N/A
  
                          Minor page faults:      3542723
                          Major page faults:           11
                 Voluntary context switches:        11002
