<?xml version="1.0" encoding="ISO-8859-1"?>
<modeling>
 <generator>
  <i name="program" type="string">vasp </i>
  <i name="version" type="string">6.2.1  </i>
  <i name="subversion" type="string">16May21 (build Nov 15 2021 14:57:28) complex                          parallel </i>
  <i name="platform" type="string">LinuxPGI </i>
  <i name="date" type="string">2023 07 25 </i>
  <i name="time" type="string">01:39:47 </i>
 </generator>
 <incar>
  <i type="string" name="SYSTEM">PSC</i>
  <i type="int" name="ISTART">     1</i>
  <i type="string" name="PREC">Normal</i>
  <i name="BMIX">      0.01000000</i>
  <i name="AMIN">      0.01000000</i>
  <i type="int" name="ICHARG">     1</i>
  <i type="int" name="NELM">   600</i>
  <i type="int" name="ISYM">     0</i>
  <i name="ENCUT">    500.00000000</i>
  <i type="string" name="LREAL">Auto</i>
  <i type="int" name="ISMEAR">     0</i>
  <i name="SIGMA">      0.05000000</i>
  <i type="logical" name="LWAVE"> F  </i>
  <i type="logical" name="LVTOT"> T  </i>
  <i type="logical" name="GGA_COMPAT"> F  </i>
  <i type="logical" name="LDIPOL"> T  </i>
  <i type="int" name="IDIPOL">     3</i>
  <i type="int" name="IVDW">    12</i>
 </incar>
 <primitive_cell>
  <structure name="primitive_cell" >
   <crystal>
    <varray name="basis" >
     <v>      18.06080055       0.00000000       0.00000000 </v>
     <v>      -0.00491865      18.06279945       0.00000000 </v>
     <v>       0.00000000       0.00000000      62.48749924 </v>
    </varray>
    <i name="volume">  20385.21054034 </i>
    <varray name="rec_basis" >
     <v>       0.05536853       0.00001508      -0.00000000 </v>
     <v>       0.00000000       0.05536240       0.00000000 </v>
     <v>       0.00000000      -0.00000000       0.01600320 </v>
    </varray>
   </crystal>
   <varray name="positions" >
    <v>       0.44786542       0.33252748       0.56573474 </v>
    <v>       0.42488637       0.83136884       0.56843877 </v>
    <v>       0.96041317       0.32532178       0.57699285 </v>
    <v>       0.94669296       0.81487916       0.57351962 </v>
    <v>       0.32536121       0.95235142       0.57394207 </v>
    <v>       0.35136633       0.55190912       0.56171245 </v>
    <v>       0.80574074       0.08597193       0.56903428 </v>
    <v>       0.01260712       0.14136886       0.56024005 </v>
    <v>       0.06723830       0.65635432       0.56897244 </v>
    <v>       0.55761507       0.16795496       0.55597662 </v>
    <v>       0.49664222       0.64641590       0.56155067 </v>
    <v>       0.36374263       0.02138483       0.55809722 </v>
    <v>       0.29533226       0.62867191       0.55468303 </v>
    <v>       0.87536938       0.02349480       0.56081182 </v>
    <v>       0.95920248       0.18836481       0.57862861 </v>
    <v>       0.99102906       0.69011587       0.58328494 </v>
    <v>       0.56393579       0.25665446       0.56724731 </v>
    <v>       0.43071886       0.69554844       0.57553314 </v>
    <v>       0.28147100       0.43666374       0.57229147 </v>
    <v>       0.19132857       0.92918175       0.57078409 </v>
    <v>       0.67773031       0.03419668       0.57001782 </v>
    <v>       0.36997389       0.28805492       0.55452613 </v>
    <v>       0.49376956       0.86905288       0.55228020 </v>
    <v>       0.01796702       0.36791712       0.55798715 </v>
    <v>       0.99665902       0.86361810       0.55433823 </v>
    <v>       0.18819377       0.43669368       0.56594877 </v>
    <v>       0.13944680       0.99177149       0.55625335 </v>
    <v>       0.66812588       0.94269015       0.56156703 </v>
    <v>       0.43538858       0.18207616       0.54639255 </v>
    <v>       0.54875459       0.75296303       0.54607559 </v>
    <v>       0.06065672       0.25135959       0.54512808 </v>
    <v>       0.08231369       0.76522752       0.54962659 </v>
    <v>       0.18758239       0.55787161       0.55446905 </v>
    <v>       0.24478309       0.06051517       0.54597370 </v>
    <v>       0.79225421       0.92783826       0.55500896 </v>
    <v>       0.48534831       0.33863356       0.66434259 </v>
    <v>       0.44816892       0.81175940       0.67369706 </v>
    <v>       0.96655221       0.28195328       0.67739678 </v>
    <v>       0.92705273       0.72483775       0.67316040 </v>
    <v>       0.30879224       0.05381924       0.67111769 </v>
    <v>       0.29897874       0.54965798       0.67502723 </v>
    <v>       0.80045673       0.05725290       0.67464629 </v>
    <v>       0.75331428       0.59830890       0.65974341 </v>
    <v>       0.08459300       0.16204634       0.64481427 </v>
    <v>       0.11229192       0.71848117       0.65021452 </v>
    <v>       0.57716110       0.16679515       0.64947280 </v>
    <v>       0.56281019       0.66349484       0.65088495 </v>
    <v>       0.17999941       0.41321631       0.64855220 </v>
    <v>       0.17551214       0.92179530       0.64868193 </v>
    <v>       0.70716726       0.40169704       0.66167177 </v>
    <v>       0.67374659       0.92480723       0.64967169 </v>
    <v>       0.06291765       0.17842879       0.67174153 </v>
    <v>       0.05750477       0.67479630       0.66914769 </v>
    <v>       0.59655441       0.25501871       0.65921168 </v>
    <v>       0.53038647       0.69561697       0.67560718 </v>
    <v>       0.19981212       0.44545364       0.67406262 </v>
    <v>       0.20674843       0.95181488       0.67337180 </v>
    <v>       0.66885261       0.48886217       0.66655019 </v>
    <v>       0.69527648       0.96137863       0.67478456 </v>
    <v>       0.39906666       0.29861433       0.65895596 </v>
    <v>       0.43413707       0.84502977       0.64788673 </v>
    <v>       0.93722640       0.32614403       0.65401338 </v>
    <v>       0.90250468       0.79614828       0.65565745 </v>
    <v>       0.33286058       0.07859192       0.64516407 </v>
    <v>       0.33176888       0.57547352       0.64990196 </v>
    <v>       0.83726278       0.07613040       0.64960320 </v>
    <v>       0.83975633       0.57678829       0.64956699 </v>
    <v>       0.00898093       0.25382968       0.63189714 </v>
    <v>       0.01979187       0.79946762       0.63953716 </v>
    <v>       0.44968652       0.18715515       0.64805125 </v>
    <v>       0.50543460       0.75404782       0.63159740 </v>
    <v>       0.25113718       0.99815455       0.62924939 </v>
    <v>       0.26069078       0.49147159       0.63157487 </v>
    <v>       0.76181671       0.99279725       0.63201704 </v>
    <v>       0.81834025       0.44933659       0.64924564 </v>
    <v>       0.44874502       0.30128397       0.76888902 </v>
    <v>       0.44874501       0.80128391       0.76888902 </v>
    <v>       0.94874497       0.30128397       0.76888902 </v>
    <v>       0.94874501       0.80128391       0.76888902 </v>
    <v>       0.30127600       0.05129450       0.76887296 </v>
    <v>       0.30127601       0.55129450       0.76887296 </v>
    <v>       0.80127594       0.05129450       0.76887296 </v>
    <v>       0.80127598       0.55129450       0.76887296 </v>
    <v>       0.07877100       0.17118050       0.74344197 </v>
    <v>       0.07877101       0.67118045       0.74344197 </v>
    <v>       0.57877100       0.17118050       0.74344197 </v>
    <v>       0.57877099       0.67118045       0.74344197 </v>
    <v>       0.17119950       0.42117448       0.74342103 </v>
    <v>       0.17119950       0.92117451       0.74342103 </v>
    <v>       0.67119951       0.42117448       0.74342103 </v>
    <v>       0.67119950       0.92117451       0.74342103 </v>
    <v>       0.05125600       0.19871499       0.76888902 </v>
    <v>       0.05125600       0.69871493       0.76888902 </v>
    <v>       0.55125603       0.19871499       0.76888902 </v>
    <v>       0.55125602       0.69871493       0.76888902 </v>
    <v>       0.19872349       0.44870397       0.76887205 </v>
    <v>       0.19872349       0.94870397       0.76887205 </v>
    <v>       0.69872352       0.44870397       0.76887205 </v>
    <v>       0.69872351       0.94870397       0.76887205 </v>
    <v>       0.42123152       0.32881747       0.74344197 </v>
    <v>       0.42123151       0.82881744       0.74344197 </v>
    <v>       0.92123147       0.32881747       0.74344197 </v>
    <v>       0.92123151       0.82881744       0.74344197 </v>
    <v>       0.32880050       0.07882500       0.74342103 </v>
    <v>       0.32880049       0.57882496       0.74342103 </v>
    <v>       0.82880048       0.07882500       0.74342103 </v>
    <v>       0.82880052       0.57882496       0.74342103 </v>
    <v>       0.00000350       0.25000148       0.72582199 </v>
    <v>       0.00000350       0.75000145       0.72582199 </v>
    <v>       0.50000351       0.25000148       0.72582199 </v>
    <v>       0.50000350       0.75000145       0.72582199 </v>
    <v>       0.25000050       0.00000000       0.72580398 </v>
    <v>       0.25000052       0.50000000       0.72580398 </v>
    <v>       0.75000050       0.00000000       0.72580398 </v>
    <v>       0.75000049       0.50000000       0.72580398 </v>
    <v>       0.77637475       0.55679982       0.51946596 </v>
    <v>       0.72093293       0.47809297       0.52526686 </v>
    <v>       0.86933002       0.50120548       0.53984974 </v>
    <v>       0.85761274       0.48116838       0.56739065 </v>
    <v>       0.74365646       0.64191399       0.56012021 </v>
    <v>       0.80897138       0.59575254       0.57667644 </v>
    <v>       0.66593383       0.54872589       0.56937505 </v>
    <v>       0.67877091       0.45609797       0.56055401 </v>
    <v>       0.61669189       0.55710357       0.53699376 </v>
    <v>       0.67246149       0.63688021       0.53528022 </v>
    <v>       0.60606626       0.64580307       0.50387651 </v>
    <v>       0.68689067       0.60171272       0.49463732 </v>
    <v>       0.78514741       0.39193749       0.53049960 </v>
    <v>       0.77912990       0.36958600       0.55831327 </v>
    <v>       0.86588754       0.36836366       0.54502613 </v>
    <v>       0.86300130       0.69489364       0.55437223 </v>
    <v>       0.84419906       0.64734947       0.53055698 </v>
    <v>       0.90807150       0.60973839       0.54969997 </v>
    <v>       0.76459926       0.52913330       0.59794772 </v>
    <v>       0.77224894       0.43503536       0.58954712 </v>
    <v>       0.68842413       0.46789488       0.60020977 </v>
    <v>       0.53608056       0.53048608       0.50359364 </v>
    <v>       0.57701111       0.54808804       0.47849063 </v>
    <v>       0.69753272       0.47845278       0.46913857 </v>
    <v>       0.55892627       0.41511101       0.52192220 </v>
    <v>       0.76312051       0.35836665       0.47143035 </v>
    <v>       0.62472732       0.29514959       0.52460194 </v>
    <v>       0.72822057       0.26659503       0.49960273 </v>
    <v>       0.01932559       0.25446880       0.55786848 </v>
    <v>       0.03540050       0.75985023       0.56067257 </v>
    <v>       0.46463569       0.22827604       0.55394765 </v>
    <v>       0.49825837       0.75692091       0.55565795 </v>
    <v>       0.24004829       0.53238073       0.55910676 </v>
    <v>       0.25084300       0.01152004       0.55610921 </v>
    <v>       0.77230571       0.98153255       0.56057544 </v>
    <v>       0.01097090       0.24395588       0.64903210 </v>
    <v>       0.00815904       0.75938529       0.65212494 </v>
    <v>       0.48651156       0.23155800       0.65343612 </v>
    <v>       0.49881294       0.75407875       0.64914577 </v>
    <v>       0.25595078       0.49396422       0.64893387 </v>
    <v>       0.25393643       0.00002808       0.64663501 </v>
    <v>       0.77555283       0.48687465       0.65503665 </v>
    <v>       0.75588693       0.99977389       0.64923801 </v>
    <v>       0.49998898       0.24999498       0.74327702 </v>
    <v>       0.49998903       0.74999496       0.74327702 </v>
    <v>       0.99998898       0.24999498       0.74327702 </v>
    <v>       0.99998903       0.74999496       0.74327702 </v>
    <v>       0.25000050       0.00000100       0.74325596 </v>
    <v>       0.25000052       0.50000100       0.74325596 </v>
    <v>       0.75000050       0.00000100       0.74325596 </v>
    <v>       0.75000049       0.50000100       0.74325596 </v>
    <v>       0.62451034       0.45585267       0.49547227 </v>
    <v>       0.68192721       0.43870538       0.48124390 </v>
    <v>       0.60408455       0.40287137       0.51083002 </v>
    <v>       0.71887317       0.37066266       0.48265373 </v>
    <v>       0.64077386       0.33513952       0.51233844 </v>
    <v>       0.69879792       0.31898672       0.49829446 </v>
    <v>       0.73223644       0.53532715       0.53002850 </v>
    <v>       0.83080944       0.47785363       0.55160593 </v>
    <v>       0.79204573       0.60486806       0.56005232 </v>
    <v>       0.70629137       0.50336585       0.56822187 </v>
    <v>       0.66271071       0.58269081       0.52819506 </v>
    <v>       0.63759941       0.59337179       0.50489637 </v>
    <v>       0.81281428       0.39804756       0.54607284 </v>
    <v>       0.85538294       0.63932786       0.54764353 </v>
    <v>       0.73581511       0.48303837       0.59014825 </v>
    <v>       0.58904093       0.53143216       0.49511749 </v>
    <v>       0.99666756       0.19153749       0.56645400 </v>
    <v>       0.03159262       0.69894481       0.57199820 </v>
    <v>       0.53491399       0.21897524       0.55830436 </v>
    <v>       0.47205596       0.69631960       0.56430678 </v>
    <v>       0.42608953       0.28878266       0.55766977 </v>
    <v>       0.46854674       0.82253029       0.55809686 </v>
    <v>       0.99540763       0.31973658       0.56401198 </v>
    <v>       0.98716849       0.81419902       0.56191244 </v>
    <v>       0.23828006       0.46191892       0.56447649 </v>
    <v>       0.19088568       0.97431233       0.56087225 </v>
    <v>       0.70033470       0.98778385       0.56333216 </v>
    <v>       0.31768993       0.99390641       0.56277302 </v>
    <v>       0.29957944       0.57390934       0.55847413 </v>
    <v>       0.82118485       0.03313709       0.56454150 </v>
    <v>       0.05455566       0.19169431       0.65587154 </v>
    <v>       0.06104248       0.71339105       0.65711996 </v>
    <v>       0.55746644       0.21745159       0.65437228 </v>
    <v>       0.53264698       0.70062034       0.65947315 </v>
    <v>       0.20920971       0.44830683       0.65807095 </v>
    <v>       0.20916818       0.95554435       0.65708565 </v>
    <v>       0.71195629       0.45797498       0.66093261 </v>
    <v>       0.70530703       0.95941297       0.65869205 </v>
    <v>       0.45563959       0.29455469       0.65897470 </v>
    <v>       0.45860818       0.80691738       0.65764991 </v>
    <v>       0.96872559       0.28649536       0.66117515 </v>
    <v>       0.94254138       0.76164229       0.66134907 </v>
    <v>       0.30153652       0.04650215       0.65507634 </v>
    <v>       0.29837675       0.54235680       0.65877745 </v>
    <v>       0.80010179       0.04736615       0.65867721 </v>
    <v>       0.79041123       0.55786259       0.65539195 </v>
    <v>       0.04586250       0.20411950       0.75272599 </v>
    <v>       0.04586250       0.70411946       0.75272599 </v>
    <v>       0.54586251       0.20411950       0.75272599 </v>
    <v>       0.54586250       0.70411946       0.75272599 </v>
    <v>       0.20411900       0.45410100       0.75270499 </v>
    <v>       0.20411899       0.95410095       0.75270499 </v>
    <v>       0.70411898       0.45410100       0.75270499 </v>
    <v>       0.70411896       0.95410095       0.75270499 </v>
    <v>       0.45414002       0.29588849       0.75272697 </v>
    <v>       0.45414001       0.79588852       0.75272697 </v>
    <v>       0.95414002       0.29588849       0.75272697 </v>
    <v>       0.95414006       0.79588852       0.75272697 </v>
    <v>       0.29588249       0.04590050       0.75270499 </v>
    <v>       0.29588248       0.54590053       0.75270499 </v>
    <v>       0.79588244       0.04590050       0.75270499 </v>
    <v>       0.79588248       0.54590053       0.75270499 </v>
    <v>       0.76495682       0.53019944       0.55238154 </v>
    <v>       0.50867295       0.01635477       0.55132670 </v>
    <v>       0.47808969       0.49825430       0.55501018 </v>
    <v>       0.00531546       0.00446499       0.54908877 </v>
    <v>       0.03940076       0.50546234       0.55347166 </v>
    <v>       0.23431230       0.24273424       0.55197826 </v>
    <v>       0.25595303       0.76415092       0.55325165 </v>
    <v>       0.73603501       0.20180653       0.55509387 </v>
    <v>       0.70298666       0.79244267       0.55381096 </v>
    <v>       0.99999246       0.98367068       0.65399317 </v>
    <v>       0.99686834       0.50188731       0.65509477 </v>
    <v>       0.50204233       0.01395564       0.65400819 </v>
    <v>       0.51261425       0.48882732       0.65537974 </v>
    <v>       0.26126000       0.24570897       0.65415434 </v>
    <v>       0.26000607       0.75311694       0.65451085 </v>
    <v>       0.75306798       0.26295962       0.65450310 </v>
    <v>       0.74362868       0.75124568       0.65455023 </v>
    <v>       0.13526089       0.11051362       0.60750652 </v>
    <v>       0.15148966       0.60349923       0.60894412 </v>
    <v>       0.64829457       0.10482854       0.61075668 </v>
    <v>       0.61652797       0.62991630       0.61066419 </v>
    <v>       0.36083416       0.38436873       0.60589658 </v>
    <v>       0.37280191       0.88152058       0.60660088 </v>
    <v>       0.89143705       0.36481916       0.61065485 </v>
    <v>       0.87219795       0.87485635       0.60572790 </v>
    <v>       0.12491552       0.36830838       0.60906689 </v>
    <v>       0.12292055       0.86617013       0.60767196 </v>
    <v>       0.58972517       0.33587063       0.60163810 </v>
    <v>       0.61778528       0.87210807       0.61214642 </v>
    <v>       0.38483815       0.13347661       0.60426789 </v>
    <v>       0.38548685       0.63005785       0.61099281 </v>
    <v>       0.88600776       0.13206571       0.61188429 </v>
    <v>       0.89960554       0.64128681       0.61161006 </v>
    <v>       0.00000000       0.00000000       0.75492797 </v>
    <v>       0.00000000       0.50000000       0.75492797 </v>
    <v>       0.50000000       0.00000000       0.75492797 </v>
    <v>       0.49999999       0.50000000       0.75492797 </v>
    <v>       0.25000050       0.25000000       0.75493902 </v>
    <v>       0.25000051       0.74999997       0.75493902 </v>
    <v>       0.75000047       0.25000000       0.75493902 </v>
    <v>       0.75000046       0.74999997       0.75493902 </v>
    <v>       0.13579050       0.11421000       0.70478299 </v>
    <v>       0.13579050       0.61420998       0.70478299 </v>
    <v>       0.63579045       0.11421000       0.70478299 </v>
    <v>       0.63579049       0.61420998       0.70478299 </v>
    <v>       0.36420952       0.38578999       0.70478299 </v>
    <v>       0.36420950       0.88578996       0.70478299 </v>
    <v>       0.86420954       0.38578999       0.70478299 </v>
    <v>       0.86420953       0.88578996       0.70478299 </v>
    <v>       0.11421799       0.36421899       0.70478098 </v>
    <v>       0.11421799       0.86421899       0.70478098 </v>
    <v>       0.61421800       0.36421899       0.70478098 </v>
    <v>       0.61421799       0.86421899       0.70478098 </v>
    <v>       0.38578201       0.13578149       0.70478202 </v>
    <v>       0.38578200       0.63578149       0.70478202 </v>
    <v>       0.88578199       0.13578149       0.70478202 </v>
    <v>       0.88578203       0.63578149       0.70478202 </v>
    <v>       0.13466700       0.11533200       0.80125603 </v>
    <v>       0.13466699       0.61533199       0.80125603 </v>
    <v>       0.63466699       0.11533200       0.80125603 </v>
    <v>       0.63466698       0.61533199       0.80125603 </v>
    <v>       0.36533300       0.38466799       0.80125603 </v>
    <v>       0.36533299       0.88466796       0.80125603 </v>
    <v>       0.86533295       0.38466799       0.80125603 </v>
    <v>       0.86533294       0.88466796       0.80125603 </v>
    <v>       0.11532850       0.36533700       0.80126500 </v>
    <v>       0.11532850       0.86533698       0.80126500 </v>
    <v>       0.61532850       0.36533700       0.80126500 </v>
    <v>       0.61532849       0.86533698       0.80126500 </v>
    <v>       0.38467151       0.13466300       0.80126500 </v>
    <v>       0.38467150       0.63466297       0.80126500 </v>
    <v>       0.88467149       0.13466300       0.80126500 </v>
    <v>       0.88467153       0.63466297       0.80126500 </v>
    <v>       0.99935922       0.99759164       0.60534972 </v>
    <v>       0.00753447       0.50110569       0.60511651 </v>
    <v>       0.50289553       0.00812078       0.60324688 </v>
    <v>       0.49766008       0.49235685       0.60492110 </v>
    <v>       0.24655174       0.24573154       0.60245931 </v>
    <v>       0.25064200       0.74469792       0.60379356 </v>
    <v>       0.74248915       0.24550248       0.60284622 </v>
    <v>       0.73804693       0.75555028       0.60317747 </v>
    <v>       0.00000050       0.00000050       0.70482896 </v>
    <v>       0.00000050       0.50000048       0.70482896 </v>
    <v>       0.50000048       0.00000050       0.70482896 </v>
    <v>       0.50000046       0.50000048       0.70482896 </v>
    <v>       0.24999999       0.24999947       0.70482499 </v>
    <v>       0.25000001       0.74999950       0.70482499 </v>
    <v>       0.74999999       0.24999947       0.70482499 </v>
    <v>       0.74999998       0.74999950       0.70482499 </v>
    <v>       0.00000000       0.00000000       0.80731797 </v>
    <v>       0.00000000       0.50000000       0.80731797 </v>
    <v>       0.50000000       0.00000000       0.80731797 </v>
    <v>       0.49999999       0.50000000       0.80731797 </v>
    <v>       0.24999999       0.25000000       0.80731797 </v>
    <v>       0.25000001       0.74999997       0.80731797 </v>
    <v>       0.74999999       0.25000000       0.80731797 </v>
    <v>       0.74999998       0.74999997       0.80731797 </v>
   </varray>
  </structure>
  <varray name="primitive_index" >
   <v type="int" >        1 </v>
   <v type="int" >        2 </v>
   <v type="int" >        3 </v>
   <v type="int" >        4 </v>
   <v type="int" >        5 </v>
   <v type="int" >        6 </v>
   <v type="int" >        7 </v>
   <v type="int" >        8 </v>
   <v type="int" >        9 </v>
   <v type="int" >       10 </v>
   <v type="int" >       11 </v>
   <v type="int" >       12 </v>
   <v type="int" >       13 </v>
   <v type="int" >       14 </v>
   <v type="int" >       15 </v>
   <v type="int" >       16 </v>
   <v type="int" >       17 </v>
   <v type="int" >       18 </v>
   <v type="int" >       19 </v>
   <v type="int" >       20 </v>
   <v type="int" >       21 </v>
   <v type="int" >       22 </v>
   <v type="int" >       23 </v>
   <v type="int" >       24 </v>
   <v type="int" >       25 </v>
   <v type="int" >       26 </v>
   <v type="int" >       27 </v>
   <v type="int" >       28 </v>
   <v type="int" >       29 </v>
   <v type="int" >       30 </v>
   <v type="int" >       31 </v>
   <v type="int" >       32 </v>
   <v type="int" >       33 </v>
   <v type="int" >       34 </v>
   <v type="int" >       35 </v>
   <v type="int" >       36 </v>
   <v type="int" >       37 </v>
   <v type="int" >       38 </v>
   <v type="int" >       39 </v>
   <v type="int" >       40 </v>
   <v type="int" >       41 </v>
   <v type="int" >       42 </v>
   <v type="int" >       43 </v>
   <v type="int" >       44 </v>
   <v type="int" >       45 </v>
   <v type="int" >       46 </v>
   <v type="int" >       47 </v>
   <v type="int" >       48 </v>
   <v type="int" >       49 </v>
   <v type="int" >       50 </v>
   <v type="int" >       51 </v>
   <v type="int" >       52 </v>
   <v type="int" >       53 </v>
   <v type="int" >       54 </v>
   <v type="int" >       55 </v>
   <v type="int" >       56 </v>
   <v type="int" >       57 </v>
   <v type="int" >       58 </v>
   <v type="int" >       59 </v>
   <v type="int" >       60 </v>
   <v type="int" >       61 </v>
   <v type="int" >       62 </v>
   <v type="int" >       63 </v>
   <v type="int" >       64 </v>
   <v type="int" >       65 </v>
   <v type="int" >       66 </v>
   <v type="int" >       67 </v>
   <v type="int" >       68 </v>
   <v type="int" >       69 </v>
   <v type="int" >       70 </v>
   <v type="int" >       71 </v>
   <v type="int" >       72 </v>
   <v type="int" >       73 </v>
   <v type="int" >       74 </v>
   <v type="int" >       75 </v>
   <v type="int" >       76 </v>
   <v type="int" >       77 </v>
   <v type="int" >       78 </v>
   <v type="int" >       79 </v>
   <v type="int" >       80 </v>
   <v type="int" >       81 </v>
   <v type="int" >       82 </v>
   <v type="int" >       83 </v>
   <v type="int" >       84 </v>
   <v type="int" >       85 </v>
   <v type="int" >       86 </v>
   <v type="int" >       87 </v>
   <v type="int" >       88 </v>
   <v type="int" >       89 </v>
   <v type="int" >       90 </v>
   <v type="int" >       91 </v>
   <v type="int" >       92 </v>
   <v type="int" >       93 </v>
   <v type="int" >       94 </v>
   <v type="int" >       95 </v>
   <v type="int" >       96 </v>
   <v type="int" >       97 </v>
   <v type="int" >       98 </v>
   <v type="int" >       99 </v>
   <v type="int" >      100 </v>
   <v type="int" >      101 </v>
   <v type="int" >      102 </v>
   <v type="int" >      103 </v>
   <v type="int" >      104 </v>
   <v type="int" >      105 </v>
   <v type="int" >      106 </v>
   <v type="int" >      107 </v>
   <v type="int" >      108 </v>
   <v type="int" >      109 </v>
   <v type="int" >      110 </v>
   <v type="int" >      111 </v>
   <v type="int" >      112 </v>
   <v type="int" >      113 </v>
   <v type="int" >      114 </v>
   <v type="int" >      115 </v>
   <v type="int" >      116 </v>
   <v type="int" >      117 </v>
   <v type="int" >      118 </v>
   <v type="int" >      119 </v>
   <v type="int" >      120 </v>
   <v type="int" >      121 </v>
   <v type="int" >      122 </v>
   <v type="int" >      123 </v>
   <v type="int" >      124 </v>
   <v type="int" >      125 </v>
   <v type="int" >      126 </v>
   <v type="int" >      127 </v>
   <v type="int" >      128 </v>
   <v type="int" >      129 </v>
   <v type="int" >      130 </v>
   <v type="int" >      131 </v>
   <v type="int" >      132 </v>
   <v type="int" >      133 </v>
   <v type="int" >      134 </v>
   <v type="int" >      135 </v>
   <v type="int" >      136 </v>
   <v type="int" >      137 </v>
   <v type="int" >      138 </v>
   <v type="int" >      139 </v>
   <v type="int" >      140 </v>
   <v type="int" >      141 </v>
   <v type="int" >      142 </v>
   <v type="int" >      143 </v>
   <v type="int" >      144 </v>
   <v type="int" >      145 </v>
   <v type="int" >      146 </v>
   <v type="int" >      147 </v>
   <v type="int" >      148 </v>
   <v type="int" >      149 </v>
   <v type="int" >      150 </v>
   <v type="int" >      151 </v>
   <v type="int" >      152 </v>
   <v type="int" >      153 </v>
   <v type="int" >      154 </v>
   <v type="int" >      155 </v>
   <v type="int" >      156 </v>
   <v type="int" >      157 </v>
   <v type="int" >      158 </v>
   <v type="int" >      159 </v>
   <v type="int" >      160 </v>
   <v type="int" >      161 </v>
   <v type="int" >      162 </v>
   <v type="int" >      163 </v>
   <v type="int" >      164 </v>
   <v type="int" >      165 </v>
   <v type="int" >      166 </v>
   <v type="int" >      167 </v>
   <v type="int" >      168 </v>
   <v type="int" >      169 </v>
   <v type="int" >      170 </v>
   <v type="int" >      171 </v>
   <v type="int" >      172 </v>
   <v type="int" >      173 </v>
   <v type="int" >      174 </v>
   <v type="int" >      175 </v>
   <v type="int" >      176 </v>
   <v type="int" >      177 </v>
   <v type="int" >      178 </v>
   <v type="int" >      179 </v>
   <v type="int" >      180 </v>
   <v type="int" >      181 </v>
   <v type="int" >      182 </v>
   <v type="int" >      183 </v>
   <v type="int" >      184 </v>
   <v type="int" >      185 </v>
   <v type="int" >      186 </v>
   <v type="int" >      187 </v>
   <v type="int" >      188 </v>
   <v type="int" >      189 </v>
   <v type="int" >      190 </v>
   <v type="int" >      191 </v>
   <v type="int" >      192 </v>
   <v type="int" >      193 </v>
   <v type="int" >      194 </v>
   <v type="int" >      195 </v>
   <v type="int" >      196 </v>
   <v type="int" >      197 </v>
   <v type="int" >      198 </v>
   <v type="int" >      199 </v>
   <v type="int" >      200 </v>
   <v type="int" >      201 </v>
   <v type="int" >      202 </v>
   <v type="int" >      203 </v>
   <v type="int" >      204 </v>
   <v type="int" >      205 </v>
   <v type="int" >      206 </v>
   <v type="int" >      207 </v>
   <v type="int" >      208 </v>
   <v type="int" >      209 </v>
   <v type="int" >      210 </v>
   <v type="int" >      211 </v>
   <v type="int" >      212 </v>
   <v type="int" >      213 </v>
   <v type="int" >      214 </v>
   <v type="int" >      215 </v>
   <v type="int" >      216 </v>
   <v type="int" >      217 </v>
   <v type="int" >      218 </v>
   <v type="int" >      219 </v>
   <v type="int" >      220 </v>
   <v type="int" >      221 </v>
   <v type="int" >      222 </v>
   <v type="int" >      223 </v>
   <v type="int" >      224 </v>
   <v type="int" >      225 </v>
   <v type="int" >      226 </v>
   <v type="int" >      227 </v>
   <v type="int" >      228 </v>
   <v type="int" >      229 </v>
   <v type="int" >      230 </v>
   <v type="int" >      231 </v>
   <v type="int" >      232 </v>
   <v type="int" >      233 </v>
   <v type="int" >      234 </v>
   <v type="int" >      235 </v>
   <v type="int" >      236 </v>
   <v type="int" >      237 </v>
   <v type="int" >      238 </v>
   <v type="int" >      239 </v>
   <v type="int" >      240 </v>
   <v type="int" >      241 </v>
   <v type="int" >      242 </v>
   <v type="int" >      243 </v>
   <v type="int" >      244 </v>
   <v type="int" >      245 </v>
   <v type="int" >      246 </v>
   <v type="int" >      247 </v>
   <v type="int" >      248 </v>
   <v type="int" >      249 </v>
   <v type="int" >      250 </v>
   <v type="int" >      251 </v>
   <v type="int" >      252 </v>
   <v type="int" >      253 </v>
   <v type="int" >      254 </v>
   <v type="int" >      255 </v>
   <v type="int" >      256 </v>
   <v type="int" >      257 </v>
   <v type="int" >      258 </v>
   <v type="int" >      259 </v>
   <v type="int" >      260 </v>
   <v type="int" >      261 </v>
   <v type="int" >      262 </v>
   <v type="int" >      263 </v>
   <v type="int" >      264 </v>
   <v type="int" >      265 </v>
   <v type="int" >      266 </v>
   <v type="int" >      267 </v>
   <v type="int" >      268 </v>
   <v type="int" >      269 </v>
   <v type="int" >      270 </v>
   <v type="int" >      271 </v>
   <v type="int" >      272 </v>
   <v type="int" >      273 </v>
   <v type="int" >      274 </v>
   <v type="int" >      275 </v>
   <v type="int" >      276 </v>
   <v type="int" >      277 </v>
   <v type="int" >      278 </v>
   <v type="int" >      279 </v>
   <v type="int" >      280 </v>
   <v type="int" >      281 </v>
   <v type="int" >      282 </v>
   <v type="int" >      283 </v>
   <v type="int" >      284 </v>
   <v type="int" >      285 </v>
   <v type="int" >      286 </v>
   <v type="int" >      287 </v>
   <v type="int" >      288 </v>
   <v type="int" >      289 </v>
   <v type="int" >      290 </v>
   <v type="int" >      291 </v>
   <v type="int" >      292 </v>
   <v type="int" >      293 </v>
   <v type="int" >      294 </v>
   <v type="int" >      295 </v>
   <v type="int" >      296 </v>
   <v type="int" >      297 </v>
   <v type="int" >      298 </v>
   <v type="int" >      299 </v>
   <v type="int" >      300 </v>
   <v type="int" >      301 </v>
   <v type="int" >      302 </v>
   <v type="int" >      303 </v>
   <v type="int" >      304 </v>
   <v type="int" >      305 </v>
   <v type="int" >      306 </v>
   <v type="int" >      307 </v>
   <v type="int" >      308 </v>
   <v type="int" >      309 </v>
   <v type="int" >      310 </v>
   <v type="int" >      311 </v>
   <v type="int" >      312 </v>
   <v type="int" >      313 </v>
   <v type="int" >      314 </v>
   <v type="int" >      315 </v>
   <v type="int" >      316 </v>
   <v type="int" >      317 </v>
   <v type="int" >      318 </v>
   <v type="int" >      319 </v>
   <v type="int" >      320 </v>
   <v type="int" >      321 </v>
   <v type="int" >      322 </v>
   <v type="int" >      323 </v>
   <v type="int" >      324 </v>
   <v type="int" >      325 </v>
  </varray>
 </primitive_cell>
 <kpoints>
  <generation param="Gamma">
   <v type="int" name="divisions">       3        3        1 </v>
   <v name="usershift">      0.00000000       0.00000000       0.00000000 </v>
   <v name="genvec1">      0.33333333       0.00000000       0.00000000 </v>
   <v name="genvec2">      0.00000000       0.33333333       0.00000000 </v>
   <v name="genvec3">      0.00000000       0.00000000       1.00000000 </v>
   <v name="shift">      0.00000000       0.00000000       0.00000000 </v>
  </generation>
  <varray name="kpointlist" >
   <v>       0.00000000       0.00000000       0.00000000 </v>
   <v>       0.33333333       0.00000000       0.00000000 </v>
   <v>       0.00000000       0.33333333       0.00000000 </v>
   <v>       0.33333333       0.33333333       0.00000000 </v>
   <v>      -0.33333333       0.33333333       0.00000000 </v>
  </varray>
  <varray name="weights" >
   <v>       0.11111111 </v>
   <v>       0.22222222 </v>
   <v>       0.22222222 </v>
   <v>       0.22222222 </v>
   <v>       0.22222222 </v>
  </varray>
 </kpoints>
 <parameters>
  <separator name="general" >
   <i type="string" name="SYSTEM">PSC</i>
   <i type="logical" name="LCOMPAT"> F  </i>
  </separator>
  <separator name="electronic" >
   <i type="string" name="PREC">normal</i>
   <i name="ENMAX">    500.00000000</i>
   <i name="ENAUG">    644.87300000</i>
   <i name="EDIFF">      0.00010000</i>
   <i type="int" name="IALGO">    38</i>
   <i type="int" name="IWAVPR">    10</i>
   <i type="int" name="NBANDS">   732</i>
   <i type="int" name="NBANDSLOW">    -1</i>
   <i type="int" name="NBANDSHIGH">    -1</i>
   <i name="NELECT">   1134.00000000</i>
   <i type="int" name="TURBO">     0</i>
   <i type="int" name="IRESTART">     0</i>
   <i type="int" name="NREBOOT">     0</i>
   <i type="int" name="NMIN">     0</i>
   <i name="EREF">      0.00000000</i>
   <separator name="electronic smearing" >
    <i type="int" name="ISMEAR">     0</i>
    <i name="SIGMA">      0.05000000</i>
    <i name="KSPACING">      0.50000000</i>
    <i type="logical" name="KGAMMA"> T  </i>
    <i type="logical" name="KBLOWUP"> T  </i>
   </separator>
   <separator name="electronic projectors" >
    <i type="logical" name="LREAL"> T  </i>
    <v name="ROPT">     -0.00050000     -0.00050000     -0.00050000     -0.00050000     -0.00050000</v>
    <i type="int" name="LMAXPAW">  -100</i>
    <i type="int" name="LMAXMIX">     2</i>
    <i type="logical" name="NLSPLINE"> F  </i>
   </separator>
   <separator name="electronic startup" >
    <i type="int" name="ISTART">     0</i>
    <i type="int" name="ICHARG">     1</i>
    <i type="int" name="INIWAV">     1</i>
   </separator>
   <separator name="electronic spin" >
    <i type="int" name="ISPIN">     1</i>
    <i type="logical" name="LNONCOLLINEAR"> F  </i>
    <v name="MAGMOM">      1.00000000      1.00000000      1.00000000      1.00000000      1.00000000      1.00000000      1.00000000      1.00000000      1.00000000      1.00000000      1.00000000      1.00000000      1.00000000      1.00000000      1.00000000      1.00000000      1.00000000      1.00000000      1.00000000      1.00000000
      1.00000000      1.00000000      1.00000000      1.00000000      1.00000000      1.00000000      1.00000000      1.00000000      1.00000000      1.00000000      1.00000000      1.00000000      1.00000000      1.00000000      1.00000000      1.00000000      1.00000000      1.00000000      1.00000000      1.00000000
      1.00000000      1.00000000      1.00000000      1.00000000      1.00000000      1.00000000      1.00000000      1.00000000      1.00000000      1.00000000      1.00000000      1.00000000      1.00000000      1.00000000      1.00000000      1.00000000      1.00000000      1.00000000      1.00000000      1.00000000
      1.00000000      1.00000000      1.00000000      1.00000000      1.00000000      1.00000000      1.00000000      1.00000000      1.00000000      1.00000000      1.00000000      1.00000000      1.00000000      1.00000000      1.00000000      1.00000000      1.00000000      1.00000000      1.00000000      1.00000000
      1.00000000      1.00000000      1.00000000      1.00000000      1.00000000      1.00000000      1.00000000      1.00000000      1.00000000      1.00000000      1.00000000      1.00000000      1.00000000      1.00000000      1.00000000      1.00000000      1.00000000      1.00000000      1.00000000      1.00000000
      1.00000000      1.00000000      1.00000000      1.00000000      1.00000000      1.00000000      1.00000000      1.00000000      1.00000000      1.00000000      1.00000000      1.00000000      1.00000000      1.00000000      1.00000000      1.00000000      1.00000000      1.00000000      1.00000000      1.00000000
      1.00000000      1.00000000      1.00000000      1.00000000      1.00000000      1.00000000      1.00000000      1.00000000      1.00000000      1.00000000      1.00000000      1.00000000      1.00000000      1.00000000      1.00000000      1.00000000      1.00000000      1.00000000      1.00000000      1.00000000
      1.00000000      1.00000000      1.00000000      1.00000000      1.00000000      1.00000000      1.00000000      1.00000000      1.00000000      1.00000000      1.00000000      1.00000000      1.00000000      1.00000000      1.00000000      1.00000000      1.00000000      1.00000000      1.00000000      1.00000000
      1.00000000      1.00000000      1.00000000      1.00000000      1.00000000      1.00000000      1.00000000      1.00000000      1.00000000      1.00000000      1.00000000      1.00000000      1.00000000      1.00000000      1.00000000      1.00000000      1.00000000      1.00000000      1.00000000      1.00000000
      1.00000000      1.00000000      1.00000000      1.00000000      1.00000000      1.00000000      1.00000000      1.00000000      1.00000000      1.00000000      1.00000000      1.00000000      1.00000000      1.00000000      1.00000000      1.00000000      1.00000000      1.00000000      1.00000000      1.00000000
      1.00000000      1.00000000      1.00000000      1.00000000      1.00000000      1.00000000      1.00000000      1.00000000      1.00000000      1.00000000      1.00000000      1.00000000      1.00000000      1.00000000      1.00000000      1.00000000      1.00000000      1.00000000      1.00000000      1.00000000
      1.00000000      1.00000000      1.00000000      1.00000000      1.00000000      1.00000000      1.00000000      1.00000000      1.00000000      1.00000000      1.00000000      1.00000000      1.00000000      1.00000000      1.00000000      1.00000000      1.00000000      1.00000000      1.00000000      1.00000000
      1.00000000      1.00000000      1.00000000      1.00000000      1.00000000      1.00000000      1.00000000      1.00000000      1.00000000      1.00000000      1.00000000      1.00000000      1.00000000      1.00000000      1.00000000      1.00000000      1.00000000      1.00000000      1.00000000      1.00000000
      1.00000000      1.00000000      1.00000000      1.00000000      1.00000000      1.00000000      1.00000000      1.00000000      1.00000000      1.00000000      1.00000000      1.00000000      1.00000000      1.00000000      1.00000000      1.00000000      1.00000000      1.00000000      1.00000000      1.00000000
      1.00000000      1.00000000      1.00000000      1.00000000      1.00000000      1.00000000      1.00000000      1.00000000      1.00000000      1.00000000      1.00000000      1.00000000      1.00000000      1.00000000      1.00000000      1.00000000      1.00000000      1.00000000      1.00000000      1.00000000
      1.00000000      1.00000000      1.00000000      1.00000000      1.00000000      1.00000000      1.00000000      1.00000000      1.00000000      1.00000000      1.00000000      1.00000000      1.00000000      1.00000000      1.00000000      1.00000000      1.00000000      1.00000000      1.00000000      1.00000000
      1.00000000      1.00000000      1.00000000      1.00000000      1.00000000</v>
    <i name="NUPDOWN">     -1.00000000</i>
    <i type="logical" name="LSORBIT"> F  </i>
    <v name="SAXIS">      0.00000000      0.00000000      1.00000000</v>
    <i type="logical" name="LSPIRAL"> F  </i>
    <v name="QSPIRAL">      0.00000000      0.00000000      0.00000000</v>
    <i type="logical" name="LZEROZ"> F  </i>
   </separator>
   <separator name="electronic exchange-correlation" >
    <i type="logical" name="LASPH"> F  </i>
    <i type="logical" name="LMETAGGA"> F  </i>
   </separator>
   <separator name="electronic convergence" >
    <i type="int" name="NELM">   600</i>
    <i type="int" name="NELMDL">     0</i>
    <i type="int" name="NELMIN">     2</i>
    <i name="ENINI">    500.00000000</i>
    <separator name="electronic convergence detail" >
     <i type="logical" name="LDIAG"> T  </i>
     <i type="logical" name="LSUBROT"> F  </i>
     <i name="WEIMIN">      0.00000000</i>
     <i name="EBREAK">      0.00000003</i>
     <i name="DEPER">      0.30000000</i>
     <i type="int" name="NRMM">     4</i>
     <i name="TIME">      0.40000000</i>
    </separator>
   </separator>
   <separator name="electronic mixer" >
    <i name="AMIX">      0.40000000</i>
    <i name="BMIX">      0.01000000</i>
    <i name="AMIN">      0.01000000</i>
    <i name="AMIX_MAG">      1.60000000</i>
    <i name="BMIX_MAG">      0.01000000</i>
    <separator name="electronic mixer details" >
     <i type="int" name="IMIX">     4</i>
     <i type="logical" name="MIXFIRST"> F  </i>
     <i type="int" name="MAXMIX">   -45</i>
     <i name="WC">    100.00000000</i>
     <i type="int" name="INIMIX">     1</i>
     <i type="int" name="MIXPRE">     1</i>
     <i type="int" name="MREMOVE">     5</i>
    </separator>
   </separator>
   <separator name="electronic dipolcorrection" >
    <i type="logical" name="LDIPOL"> T  </i>
    <i type="logical" name="LMONO"> F  </i>
    <i type="int" name="IDIPOL">     3</i>
    <i name="EPSILON">      1.00000000</i>
    <v name="DIPOL">   -100.00000000   -100.00000000   -100.00000000</v>
    <i name="EFIELD">      0.00000000</i>
   </separator>
  </separator>
  <separator name="grids" >
   <i type="int" name="NGX">   100</i>
   <i type="int" name="NGY">   100</i>
   <i type="int" name="NGZ">   350</i>
   <i type="int" name="NGXF">   200</i>
   <i type="int" name="NGYF">   200</i>
   <i type="int" name="NGZF">   700</i>
   <i type="logical" name="ADDGRID"> F  </i>
  </separator>
  <separator name="ionic" >
   <i type="int" name="NSW">     0</i>
   <i type="int" name="IBRION">    -1</i>
   <i type="int" name="MDALGO">     0</i>
   <i type="int" name="ISIF">     2</i>
   <i name="PSTRESS">      0.00000000</i>
   <i name="EDIFFG">      0.00100000</i>
   <i type="int" name="NFREE">     0</i>
   <i name="POTIM">      0.50000000</i>
   <i name="SMASS">     -3.00000000</i>
   <i name="SCALEE">      1.00000000</i>
  </separator>
  <separator name="ionic md" >
   <i name="TEBEG">      0.00010000</i>
   <i name="TEEND">      0.00010000</i>
   <i type="int" name="NBLOCK">     1</i>
   <i type="int" name="KBLOCK">     1</i>
   <i type="int" name="NPACO">   256</i>
   <i name="APACO">     16.00000000</i>
  </separator>
  <separator name="symmetry" >
   <i type="int" name="ISYM">     0</i>
   <i name="SYMPREC">      0.00001000</i>
  </separator>
  <separator name="dos" >
   <i type="int" name="LORBIT">     0</i>
   <v name="RWIGS">     -1.00000000     -1.00000000     -1.00000000     -1.00000000     -1.00000000</v>
   <i type="int" name="NEDOS">   301</i>
   <i name="EMIN">     10.00000000</i>
   <i name="EMAX">    -10.00000000</i>
   <i name="EFERMI">      0.00000000</i>
  </separator>
  <separator name="writing" >
   <i type="int" name="NWRITE">     2</i>
   <i type="logical" name="LWAVE"> F  </i>
   <i type="logical" name="LDOWNSAMPLE"> F  </i>
   <i type="logical" name="LCHARG"> T  </i>
   <i type="logical" name="LPARD"> F  </i>
   <i type="logical" name="LVTOT"> T  </i>
   <i type="logical" name="LVHAR"> F  </i>
   <i type="logical" name="LELF"> F  </i>
   <i type="logical" name="LOPTICS"> F  </i>
   <v name="STM">      0.00000000      0.00000000      0.00000000      0.00000000      0.00000000      0.00000000      0.00000000</v>
  </separator>
  <separator name="performance" >
   <i type="int" name="NPAR">     4</i>
   <i type="int" name="NSIM">     4</i>
   <i type="int" name="NBLK">    -1</i>
   <i type="logical" name="LPLANE"> T  </i>
   <i type="logical" name="LSCALAPACK"> T  </i>
   <i type="logical" name="LSCAAWARE"> F  </i>
   <i type="logical" name="LSCALU"> F  </i>
   <i type="logical" name="LASYNC"> F  </i>
   <i type="logical" name="LORBITALREAL"> F  </i>
  </separator>
  <separator name="miscellaneous" >
   <i type="int" name="IDIOT">     3</i>
   <i type="int" name="PHON_NSTRUCT">    -1</i>
   <i type="logical" name="LMUSIC"> F  </i>
   <v name="POMASS">      1.00000000     12.01100000     14.00100000    126.90400000    207.20000000</v>
   <v name="DARWINR">      0.00000000      0.00000000      0.00000000      0.00000000      0.00000000</v>
   <v name="DARWINV">      1.00000000      1.00000000      1.00000000      1.00000000      1.00000000</v>
   <i type="logical" name="LCORR"> T  </i>
  </separator>
  <i type="logical" name="GGA_COMPAT"> F  </i>
  <i type="logical" name="LBERRY"> F  </i>
  <i type="int" name="ICORELEVEL">     0</i>
  <i type="logical" name="LDAU"> F  </i>
  <i type="int" name="I_CONSTRAINED_M">     0</i>
  <separator name="electronic exchange-correlation" >
   <i type="string" name="GGA">--</i>
   <i type="int" name="VOSKOWN">     0</i>
   <i type="logical" name="LHFCALC"> F  </i>
   <i type="string" name="PRECFOCK"></i>
   <i type="logical" name="LSYMGRAD"> F  </i>
   <i type="logical" name="LHFONE"> F  </i>
   <i type="logical" name="LRHFCALC"> F  </i>
   <i type="logical" name="LTHOMAS"> F  </i>
   <i type="logical" name="LMODELHF"> F  </i>
   <i type="logical" name="LFOCKACE"> F  </i>
   <i name="ENCUT4O">     -1.00000000</i>
   <i type="int" name="EXXOEP">     0</i>
   <i type="int" name="FOURORBIT">     0</i>
   <i name="AEXX">      0.00000000</i>
   <i name="HFALPHA">      0.00000000</i>
   <i name="MCALPHA">      0.00000000</i>
   <i name="ALDAX">      1.00000000</i>
   <i name="AGGAX">      1.00000000</i>
   <i name="ALDAC">      1.00000000</i>
   <i name="AGGAC">      1.00000000</i>
   <i type="int" name="NKREDX">     1</i>
   <i type="int" name="NKREDY">     1</i>
   <i type="int" name="NKREDZ">     1</i>
   <i type="logical" name="SHIFTRED"> F  </i>
   <i type="logical" name="ODDONLY"> F  </i>
   <i type="logical" name="EVENONLY"> F  </i>
   <i type="int" name="LMAXFOCK">     0</i>
   <i type="int" name="NMAXFOCKAE">     0</i>
   <i type="logical" name="LFOCKAEDFT"> F  </i>
   <i name="HFSCREEN">      0.00000000</i>
   <i name="HFSCREENC">      0.00000000</i>
   <i type="int" name="NBANDSGWLOW">     0</i>
  </separator>
  <separator name="vdW DFT" >
   <i type="logical" name="LUSE_VDW"> F  </i>
   <i name="Zab_VDW">     -0.84910000</i>
   <i name="PARAM1">      0.12340000</i>
   <i name="PARAM2">      1.00000000</i>
   <i name="PARAM3">      0.00000000</i>
  </separator>
  <separator name="model GW" >
   <i type="int" name="MODEL_GW">     0</i>
   <i name="MODEL_EPS0">     37.63423484</i>
   <i name="MODEL_ALPHA">      1.00000000</i>
  </separator>
  <separator name="linear response parameters" >
   <i type="logical" name="LEPSILON"> F  </i>
   <i type="logical" name="LRPA"> F  </i>
   <i type="logical" name="LNABLA"> F  </i>
   <i type="logical" name="LVEL"> F  </i>
   <i type="int" name="KINTER">     0</i>
   <i name="CSHIFT">      0.10000000</i>
   <i name="OMEGAMAX">     -1.00000000</i>
   <i name="DEG_THRESHOLD">      0.00200000</i>
   <i name="RTIME">     -0.10000000</i>
   <i name="WPLASMAI">      0.00000000</i>
   <v name="DFIELD">      0.00000000      0.00000000      0.00000000</v>
   <v name="WPLASMA">      0.00000000      0.00000000      0.00000000      0.00000000      0.00000000      0.00000000      0.00000000      0.00000000      0.00000000</v>
  </separator>
  <separator name="orbital magnetization" >
   <i type="logical" name="NUCIND"> F  </i>
   <v name="MAGPOS">      0.00000000      0.00000000      0.00000000</v>
   <i type="logical" name="LNICSALL"> T  </i>
   <i type="logical" name="ORBITALMAG"> F  </i>
   <i type="logical" name="LMAGBLOCH"> F  </i>
   <i type="logical" name="LCHIMAG"> F  </i>
   <i type="logical" name="LGAUGE"> T  </i>
   <i type="int" name="MAGATOM">     0</i>
   <v name="MAGDIPOL">      0.00000000      0.00000000      0.00000000</v>
   <v name="AVECCONST">      0.00000000      0.00000000      0.00000000</v>
  </separator>
  <separator name="response functions" >
   <i type="logical" name="LFINITE_TEMPERATURE"> F  </i>
   <i type="logical" name="LADDER"> F  </i>
   <i type="logical" name="LRPAFORCE"> F  </i>
   <i type="logical" name="LFXC"> F  </i>
   <i type="logical" name="LHARTREE"> T  </i>
   <i type="int" name="IBSE">     0</i>
   <v type="int" name="KPOINT">    -1     0     0     0</v>
   <i type="logical" name="LTCTC"> F  </i>
   <i type="logical" name="LTCTE"> F  </i>
   <i type="logical" name="LTETE"> F  </i>
   <i type="logical" name="LTRIPLET"> F  </i>
   <i type="logical" name="LFXCEPS"> F  </i>
   <i type="logical" name="LFXHEG"> F  </i>
   <i type="int" name="NATURALO">     2</i>
   <i type="logical" name="LHOLEGF"> F  </i>
   <i type="logical" name="L2ORDER"> F  </i>
   <i type="logical" name="LDMP1"> F  </i>
   <i type="logical" name="LMP2LT"> F  </i>
   <i type="logical" name="LSMP2LT"> F  </i>
   <i type="logical" name="LGWLF"> F  </i>
   <i name="ENCUTGW">     -2.00000000</i>
   <i name="ENCUTGWSOFT">     -2.00000000</i>
   <i name="ENCUTLF">     -1.00000000</i>
   <i type="logical" name="LESF_SPLINES"> F  </i>
   <i type="int" name="LMAXMP2">    -1</i>
   <i name="SCISSOR">      0.00000000</i>
   <i type="int" name="NOMEGA">     0</i>
   <i type="int" name="NOMEGAR">     0</i>
   <i type="int" name="NBANDSGW">    -1</i>
   <i type="int" name="NBANDSO">    -1</i>
   <i type="int" name="NBANDSV">    -1</i>
   <i type="int" name="NELM">   600</i>
   <i type="int" name="NELMHF">     1</i>
   <i type="int" name="DIM">     3</i>
   <i type="int" name="IESPILON">     4</i>
   <i type="int" name="ANTIRES">     0</i>
   <i name="OMEGAMAX">    -30.00000000</i>
   <i name="OMEGAMIN">    -30.00000000</i>
   <i name="OMEGATL">   -200.00000000</i>
   <i type="int" name="OMEGAGRID">     0</i>
   <i name="CSHIFT">     -0.10000000</i>
   <i type="logical" name="LSELFENERGY"> F  </i>
   <i type="logical" name="LSPECTRAL"> F  </i>
   <i type="logical" name="LSPECTRALGW"> F  </i>
   <i type="logical" name="LSINGLES"> F  </i>
   <i type="logical" name="LFERMIGW"> F  </i>
   <i type="logical" name="ODDONLYGW"> F  </i>
   <i type="logical" name="EVENONLYGW"> F  </i>
   <i type="int" name="NKREDLFX">     1</i>
   <i type="int" name="NKREDLFY">     1</i>
   <i type="int" name="NKREDLFZ">     1</i>
   <i type="int" name="MAXMEM">  2800</i>
   <i type="int" name="TELESCOPE">     0</i>
   <i type="int" name="NTAUPAR">    -1</i>
   <i type="int" name="NOMEGAPAR">    -1</i>
   <i name="DAMP_NEWTON">      0.80000001</i>
   <i name="LAMBDA">      1.00000000</i>
  </separator>
  <separator name="External order field" >
   <i name="OFIELD_KAPPA">      0.00000000</i>
   <v name="OFIELD_K">      0.00000000      0.00000000      0.00000000</v>
   <i name="OFIELD_Q6_NEAR">      0.00000000</i>
   <i name="OFIELD_Q6_FAR">      0.00000000</i>
   <i name="OFIELD_A">      0.00000000</i>
  </separator>
 </parameters>
 <atominfo>
  <atoms>     325 </atoms>
  <types>       5 </types>
  <array name="atoms" >
   <dimension dim="1">ion</dimension>
   <field type="string">element</field>
   <field type="int">atomtype</field>
   <set>
    <rc><c>H </c><c>   1</c></rc>
    <rc><c>H </c><c>   1</c></rc>
    <rc><c>H </c><c>   1</c></rc>
    <rc><c>H </c><c>   1</c></rc>
    <rc><c>H </c><c>   1</c></rc>
    <rc><c>H </c><c>   1</c></rc>
    <rc><c>H </c><c>   1</c></rc>
    <rc><c>H </c><c>   1</c></rc>
    <rc><c>H </c><c>   1</c></rc>
    <rc><c>H </c><c>   1</c></rc>
    <rc><c>H </c><c>   1</c></rc>
    <rc><c>H </c><c>   1</c></rc>
    <rc><c>H </c><c>   1</c></rc>
    <rc><c>H </c><c>   1</c></rc>
    <rc><c>H </c><c>   1</c></rc>
    <rc><c>H </c><c>   1</c></rc>
    <rc><c>H </c><c>   1</c></rc>
    <rc><c>H </c><c>   1</c></rc>
    <rc><c>H </c><c>   1</c></rc>
    <rc><c>H </c><c>   1</c></rc>
    <rc><c>H </c><c>   1</c></rc>
    <rc><c>H </c><c>   1</c></rc>
    <rc><c>H </c><c>   1</c></rc>
    <rc><c>H </c><c>   1</c></rc>
    <rc><c>H </c><c>   1</c></rc>
    <rc><c>H </c><c>   1</c></rc>
    <rc><c>H </c><c>   1</c></rc>
    <rc><c>H </c><c>   1</c></rc>
    <rc><c>H </c><c>   1</c></rc>
    <rc><c>H </c><c>   1</c></rc>
    <rc><c>H </c><c>   1</c></rc>
    <rc><c>H </c><c>   1</c></rc>
    <rc><c>H </c><c>   1</c></rc>
    <rc><c>H </c><c>   1</c></rc>
    <rc><c>H </c><c>   1</c></rc>
    <rc><c>H </c><c>   1</c></rc>
    <rc><c>H </c><c>   1</c></rc>
    <rc><c>H </c><c>   1</c></rc>
    <rc><c>H </c><c>   1</c></rc>
    <rc><c>H </c><c>   1</c></rc>
    <rc><c>H </c><c>   1</c></rc>
    <rc><c>H </c><c>   1</c></rc>
    <rc><c>H </c><c>   1</c></rc>
    <rc><c>H </c><c>   1</c></rc>
    <rc><c>H </c><c>   1</c></rc>
    <rc><c>H </c><c>   1</c></rc>
    <rc><c>H </c><c>   1</c></rc>
    <rc><c>H </c><c>   1</c></rc>
    <rc><c>H </c><c>   1</c></rc>
    <rc><c>H </c><c>   1</c></rc>
    <rc><c>H </c><c>   1</c></rc>
    <rc><c>H </c><c>   1</c></rc>
    <rc><c>H </c><c>   1</c></rc>
    <rc><c>H </c><c>   1</c></rc>
    <rc><c>H </c><c>   1</c></rc>
    <rc><c>H </c><c>   1</c></rc>
    <rc><c>H </c><c>   1</c></rc>
    <rc><c>H </c><c>   1</c></rc>
    <rc><c>H </c><c>   1</c></rc>
    <rc><c>H </c><c>   1</c></rc>
    <rc><c>H </c><c>   1</c></rc>
    <rc><c>H </c><c>   1</c></rc>
    <rc><c>H </c><c>   1</c></rc>
    <rc><c>H </c><c>   1</c></rc>
    <rc><c>H </c><c>   1</c></rc>
    <rc><c>H </c><c>   1</c></rc>
    <rc><c>H </c><c>   1</c></rc>
    <rc><c>H </c><c>   1</c></rc>
    <rc><c>H </c><c>   1</c></rc>
    <rc><c>H </c><c>   1</c></rc>
    <rc><c>H </c><c>   1</c></rc>
    <rc><c>H </c><c>   1</c></rc>
    <rc><c>H </c><c>   1</c></rc>
    <rc><c>H </c><c>   1</c></rc>
    <rc><c>H </c><c>   1</c></rc>
    <rc><c>H </c><c>   1</c></rc>
    <rc><c>H </c><c>   1</c></rc>
    <rc><c>H </c><c>   1</c></rc>
    <rc><c>H </c><c>   1</c></rc>
    <rc><c>H </c><c>   1</c></rc>
    <rc><c>H </c><c>   1</c></rc>
    <rc><c>H </c><c>   1</c></rc>
    <rc><c>H </c><c>   1</c></rc>
    <rc><c>H </c><c>   1</c></rc>
    <rc><c>H </c><c>   1</c></rc>
    <rc><c>H </c><c>   1</c></rc>
    <rc><c>H </c><c>   1</c></rc>
    <rc><c>H </c><c>   1</c></rc>
    <rc><c>H </c><c>   1</c></rc>
    <rc><c>H </c><c>   1</c></rc>
    <rc><c>H </c><c>   1</c></rc>
    <rc><c>H </c><c>   1</c></rc>
    <rc><c>H </c><c>   1</c></rc>
    <rc><c>H </c><c>   1</c></rc>
    <rc><c>H </c><c>   1</c></rc>
    <rc><c>H </c><c>   1</c></rc>
    <rc><c>H </c><c>   1</c></rc>
    <rc><c>H </c><c>   1</c></rc>
    <rc><c>H </c><c>   1</c></rc>
    <rc><c>H </c><c>   1</c></rc>
    <rc><c>H </c><c>   1</c></rc>
    <rc><c>H </c><c>   1</c></rc>
    <rc><c>H </c><c>   1</c></rc>
    <rc><c>H </c><c>   1</c></rc>
    <rc><c>H </c><c>   1</c></rc>
    <rc><c>H </c><c>   1</c></rc>
    <rc><c>H </c><c>   1</c></rc>
    <rc><c>H </c><c>   1</c></rc>
    <rc><c>H </c><c>   1</c></rc>
    <rc><c>H </c><c>   1</c></rc>
    <rc><c>H </c><c>   1</c></rc>
    <rc><c>H </c><c>   1</c></rc>
    <rc><c>H </c><c>   1</c></rc>
    <rc><c>H </c><c>   1</c></rc>
    <rc><c>H </c><c>   1</c></rc>
    <rc><c>H </c><c>   1</c></rc>
    <rc><c>H </c><c>   1</c></rc>
    <rc><c>H </c><c>   1</c></rc>
    <rc><c>H </c><c>   1</c></rc>
    <rc><c>H </c><c>   1</c></rc>
    <rc><c>H </c><c>   1</c></rc>
    <rc><c>H </c><c>   1</c></rc>
    <rc><c>H </c><c>   1</c></rc>
    <rc><c>H </c><c>   1</c></rc>
    <rc><c>H </c><c>   1</c></rc>
    <rc><c>H </c><c>   1</c></rc>
    <rc><c>H </c><c>   1</c></rc>
    <rc><c>H </c><c>   1</c></rc>
    <rc><c>H </c><c>   1</c></rc>
    <rc><c>H </c><c>   1</c></rc>
    <rc><c>H </c><c>   1</c></rc>
    <rc><c>H </c><c>   1</c></rc>
    <rc><c>H </c><c>   1</c></rc>
    <rc><c>H </c><c>   1</c></rc>
    <rc><c>H </c><c>   1</c></rc>
    <rc><c>H </c><c>   1</c></rc>
    <rc><c>H </c><c>   1</c></rc>
    <rc><c>H </c><c>   1</c></rc>
    <rc><c>H </c><c>   1</c></rc>
    <rc><c>H </c><c>   1</c></rc>
    <rc><c>H </c><c>   1</c></rc>
    <rc><c>H </c><c>   1</c></rc>
    <rc><c>H </c><c>   1</c></rc>
    <rc><c>C </c><c>   2</c></rc>
    <rc><c>C </c><c>   2</c></rc>
    <rc><c>C </c><c>   2</c></rc>
    <rc><c>C </c><c>   2</c></rc>
    <rc><c>C </c><c>   2</c></rc>
    <rc><c>C </c><c>   2</c></rc>
    <rc><c>C </c><c>   2</c></rc>
    <rc><c>C </c><c>   2</c></rc>
    <rc><c>C </c><c>   2</c></rc>
    <rc><c>C </c><c>   2</c></rc>
    <rc><c>C </c><c>   2</c></rc>
    <rc><c>C </c><c>   2</c></rc>
    <rc><c>C </c><c>   2</c></rc>
    <rc><c>C </c><c>   2</c></rc>
    <rc><c>C </c><c>   2</c></rc>
    <rc><c>C </c><c>   2</c></rc>
    <rc><c>C </c><c>   2</c></rc>
    <rc><c>C </c><c>   2</c></rc>
    <rc><c>C </c><c>   2</c></rc>
    <rc><c>C </c><c>   2</c></rc>
    <rc><c>C </c><c>   2</c></rc>
    <rc><c>C </c><c>   2</c></rc>
    <rc><c>C </c><c>   2</c></rc>
    <rc><c>C </c><c>   2</c></rc>
    <rc><c>C </c><c>   2</c></rc>
    <rc><c>C </c><c>   2</c></rc>
    <rc><c>C </c><c>   2</c></rc>
    <rc><c>C </c><c>   2</c></rc>
    <rc><c>C </c><c>   2</c></rc>
    <rc><c>C </c><c>   2</c></rc>
    <rc><c>C </c><c>   2</c></rc>
    <rc><c>C </c><c>   2</c></rc>
    <rc><c>C </c><c>   2</c></rc>
    <rc><c>C </c><c>   2</c></rc>
    <rc><c>C </c><c>   2</c></rc>
    <rc><c>C </c><c>   2</c></rc>
    <rc><c>C </c><c>   2</c></rc>
    <rc><c>C </c><c>   2</c></rc>
    <rc><c>C </c><c>   2</c></rc>
    <rc><c>N </c><c>   3</c></rc>
    <rc><c>N </c><c>   3</c></rc>
    <rc><c>N </c><c>   3</c></rc>
    <rc><c>N </c><c>   3</c></rc>
    <rc><c>N </c><c>   3</c></rc>
    <rc><c>N </c><c>   3</c></rc>
    <rc><c>N </c><c>   3</c></rc>
    <rc><c>N </c><c>   3</c></rc>
    <rc><c>N </c><c>   3</c></rc>
    <rc><c>N </c><c>   3</c></rc>
    <rc><c>N </c><c>   3</c></rc>
    <rc><c>N </c><c>   3</c></rc>
    <rc><c>N </c><c>   3</c></rc>
    <rc><c>N </c><c>   3</c></rc>
    <rc><c>N </c><c>   3</c></rc>
    <rc><c>N </c><c>   3</c></rc>
    <rc><c>N </c><c>   3</c></rc>
    <rc><c>N </c><c>   3</c></rc>
    <rc><c>N </c><c>   3</c></rc>
    <rc><c>N </c><c>   3</c></rc>
    <rc><c>N </c><c>   3</c></rc>
    <rc><c>N </c><c>   3</c></rc>
    <rc><c>N </c><c>   3</c></rc>
    <rc><c>N </c><c>   3</c></rc>
    <rc><c>N </c><c>   3</c></rc>
    <rc><c>N </c><c>   3</c></rc>
    <rc><c>N </c><c>   3</c></rc>
    <rc><c>N </c><c>   3</c></rc>
    <rc><c>N </c><c>   3</c></rc>
    <rc><c>N </c><c>   3</c></rc>
    <rc><c>N </c><c>   3</c></rc>
    <rc><c>N </c><c>   3</c></rc>
    <rc><c>N </c><c>   3</c></rc>
    <rc><c>N </c><c>   3</c></rc>
    <rc><c>N </c><c>   3</c></rc>
    <rc><c>N </c><c>   3</c></rc>
    <rc><c>N </c><c>   3</c></rc>
    <rc><c>N </c><c>   3</c></rc>
    <rc><c>N </c><c>   3</c></rc>
    <rc><c>N </c><c>   3</c></rc>
    <rc><c>N </c><c>   3</c></rc>
    <rc><c>N </c><c>   3</c></rc>
    <rc><c>N </c><c>   3</c></rc>
    <rc><c>N </c><c>   3</c></rc>
    <rc><c>N </c><c>   3</c></rc>
    <rc><c>N </c><c>   3</c></rc>
    <rc><c>N </c><c>   3</c></rc>
    <rc><c>I </c><c>   4</c></rc>
    <rc><c>I </c><c>   4</c></rc>
    <rc><c>I </c><c>   4</c></rc>
    <rc><c>I </c><c>   4</c></rc>
    <rc><c>I </c><c>   4</c></rc>
    <rc><c>I </c><c>   4</c></rc>
    <rc><c>I </c><c>   4</c></rc>
    <rc><c>I </c><c>   4</c></rc>
    <rc><c>I </c><c>   4</c></rc>
    <rc><c>I </c><c>   4</c></rc>
    <rc><c>I </c><c>   4</c></rc>
    <rc><c>I </c><c>   4</c></rc>
    <rc><c>I </c><c>   4</c></rc>
    <rc><c>I </c><c>   4</c></rc>
    <rc><c>I </c><c>   4</c></rc>
    <rc><c>I </c><c>   4</c></rc>
    <rc><c>I </c><c>   4</c></rc>
    <rc><c>I </c><c>   4</c></rc>
    <rc><c>I </c><c>   4</c></rc>
    <rc><c>I </c><c>   4</c></rc>
    <rc><c>I </c><c>   4</c></rc>
    <rc><c>I </c><c>   4</c></rc>
    <rc><c>I </c><c>   4</c></rc>
    <rc><c>I </c><c>   4</c></rc>
    <rc><c>I </c><c>   4</c></rc>
    <rc><c>I </c><c>   4</c></rc>
    <rc><c>I </c><c>   4</c></rc>
    <rc><c>I </c><c>   4</c></rc>
    <rc><c>I </c><c>   4</c></rc>
    <rc><c>I </c><c>   4</c></rc>
    <rc><c>I </c><c>   4</c></rc>
    <rc><c>I </c><c>   4</c></rc>
    <rc><c>I </c><c>   4</c></rc>
    <rc><c>I </c><c>   4</c></rc>
    <rc><c>I </c><c>   4</c></rc>
    <rc><c>I </c><c>   4</c></rc>
    <rc><c>I </c><c>   4</c></rc>
    <rc><c>I </c><c>   4</c></rc>
    <rc><c>I </c><c>   4</c></rc>
    <rc><c>I </c><c>   4</c></rc>
    <rc><c>I </c><c>   4</c></rc>
    <rc><c>I </c><c>   4</c></rc>
    <rc><c>I </c><c>   4</c></rc>
    <rc><c>I </c><c>   4</c></rc>
    <rc><c>I </c><c>   4</c></rc>
    <rc><c>I </c><c>   4</c></rc>
    <rc><c>I </c><c>   4</c></rc>
    <rc><c>I </c><c>   4</c></rc>
    <rc><c>I </c><c>   4</c></rc>
    <rc><c>I </c><c>   4</c></rc>
    <rc><c>I </c><c>   4</c></rc>
    <rc><c>I </c><c>   4</c></rc>
    <rc><c>I </c><c>   4</c></rc>
    <rc><c>I </c><c>   4</c></rc>
    <rc><c>I </c><c>   4</c></rc>
    <rc><c>I </c><c>   4</c></rc>
    <rc><c>I </c><c>   4</c></rc>
    <rc><c>I </c><c>   4</c></rc>
    <rc><c>I </c><c>   4</c></rc>
    <rc><c>I </c><c>   4</c></rc>
    <rc><c>I </c><c>   4</c></rc>
    <rc><c>I </c><c>   4</c></rc>
    <rc><c>I </c><c>   4</c></rc>
    <rc><c>I </c><c>   4</c></rc>
    <rc><c>I </c><c>   4</c></rc>
    <rc><c>I </c><c>   4</c></rc>
    <rc><c>I </c><c>   4</c></rc>
    <rc><c>I </c><c>   4</c></rc>
    <rc><c>I </c><c>   4</c></rc>
    <rc><c>I </c><c>   4</c></rc>
    <rc><c>I </c><c>   4</c></rc>
    <rc><c>I </c><c>   4</c></rc>
    <rc><c>Pb</c><c>   5</c></rc>
    <rc><c>Pb</c><c>   5</c></rc>
    <rc><c>Pb</c><c>   5</c></rc>
    <rc><c>Pb</c><c>   5</c></rc>
    <rc><c>Pb</c><c>   5</c></rc>
    <rc><c>Pb</c><c>   5</c></rc>
    <rc><c>Pb</c><c>   5</c></rc>
    <rc><c>Pb</c><c>   5</c></rc>
    <rc><c>Pb</c><c>   5</c></rc>
    <rc><c>Pb</c><c>   5</c></rc>
    <rc><c>Pb</c><c>   5</c></rc>
    <rc><c>Pb</c><c>   5</c></rc>
    <rc><c>Pb</c><c>   5</c></rc>
    <rc><c>Pb</c><c>   5</c></rc>
    <rc><c>Pb</c><c>   5</c></rc>
    <rc><c>Pb</c><c>   5</c></rc>
    <rc><c>Pb</c><c>   5</c></rc>
    <rc><c>Pb</c><c>   5</c></rc>
    <rc><c>Pb</c><c>   5</c></rc>
    <rc><c>Pb</c><c>   5</c></rc>
    <rc><c>Pb</c><c>   5</c></rc>
    <rc><c>Pb</c><c>   5</c></rc>
    <rc><c>Pb</c><c>   5</c></rc>
    <rc><c>Pb</c><c>   5</c></rc>
   </set>
  </array>
  <array name="atomtypes" >
   <dimension dim="1">type</dimension>
   <field type="int">atomspertype</field>
   <field type="string">element</field>
   <field>mass</field>
   <field>valence</field>
   <field type="string">pseudopotential</field>
   <set>
    <rc><c> 143</c><c>H </c><c>      1.00000000</c><c>      1.00000000</c><c>  PAW_PBE H 15Jun2001                   </c></rc>
    <rc><c>  39</c><c>C </c><c>     12.01100000</c><c>      4.00000000</c><c>  PAW_PBE C 08Apr2002                   </c></rc>
    <rc><c>  47</c><c>N </c><c>     14.00100000</c><c>      5.00000000</c><c>  PAW_PBE N 08Apr2002                   </c></rc>
    <rc><c>  72</c><c>I </c><c>    126.90400000</c><c>      7.00000000</c><c>  PAW_PBE I 08Apr2002                   </c></rc>
    <rc><c>  24</c><c>Pb</c><c>    207.20000000</c><c>      4.00000000</c><c>  PAW_PBE Pb 08Apr2002                  </c></rc>
   </set>
  </array>
 </atominfo>
 <structure name="initialpos" >
  <crystal>
   <varray name="basis" >
    <v>      18.06080055       0.00000000       0.00000000 </v>
    <v>      -0.00491865      18.06279945       0.00000000 </v>
    <v>       0.00000000       0.00000000      62.48749924 </v>
   </varray>
   <i name="volume">  20385.21054034 </i>
   <varray name="rec_basis" >
    <v>       0.05536853       0.00001508      -0.00000000 </v>
    <v>       0.00000000       0.05536240       0.00000000 </v>
    <v>       0.00000000      -0.00000000       0.01600320 </v>
   </varray>
  </crystal>
  <varray name="positions" >
   <v>       0.44786542       0.33252748       0.56573474 </v>
   <v>       0.42488637       0.83136884       0.56843877 </v>
   <v>       0.96041317       0.32532178       0.57699285 </v>
   <v>       0.94669296       0.81487916       0.57351962 </v>
   <v>       0.32536121       0.95235142       0.57394207 </v>
   <v>       0.35136633       0.55190912       0.56171245 </v>
   <v>       0.80574074       0.08597193       0.56903428 </v>
   <v>       0.01260712       0.14136886       0.56024005 </v>
   <v>       0.06723830       0.65635432       0.56897244 </v>
   <v>       0.55761507       0.16795496       0.55597662 </v>
   <v>       0.49664222       0.64641590       0.56155067 </v>
   <v>       0.36374263       0.02138483       0.55809722 </v>
   <v>       0.29533226       0.62867191       0.55468303 </v>
   <v>       0.87536938       0.02349480       0.56081182 </v>
   <v>       0.95920248       0.18836481       0.57862861 </v>
   <v>       0.99102906       0.69011587       0.58328494 </v>
   <v>       0.56393579       0.25665446       0.56724731 </v>
   <v>       0.43071886       0.69554844       0.57553314 </v>
   <v>       0.28147100       0.43666374       0.57229147 </v>
   <v>       0.19132857       0.92918175       0.57078409 </v>
   <v>       0.67773031       0.03419668       0.57001782 </v>
   <v>       0.36997389       0.28805492       0.55452613 </v>
   <v>       0.49376956       0.86905288       0.55228020 </v>
   <v>       0.01796702       0.36791712       0.55798715 </v>
   <v>       0.99665902       0.86361810       0.55433823 </v>
   <v>       0.18819377       0.43669368       0.56594877 </v>
   <v>       0.13944680       0.99177149       0.55625335 </v>
   <v>       0.66812588       0.94269015       0.56156703 </v>
   <v>       0.43538858       0.18207616       0.54639255 </v>
   <v>       0.54875459       0.75296303       0.54607559 </v>
   <v>       0.06065672       0.25135959       0.54512808 </v>
   <v>       0.08231369       0.76522752       0.54962659 </v>
   <v>       0.18758239       0.55787161       0.55446905 </v>
   <v>       0.24478309       0.06051517       0.54597370 </v>
   <v>       0.79225421       0.92783826       0.55500896 </v>
   <v>       0.48534831       0.33863356       0.66434259 </v>
   <v>       0.44816892       0.81175940       0.67369706 </v>
   <v>       0.96655221       0.28195328       0.67739678 </v>
   <v>       0.92705273       0.72483775       0.67316040 </v>
   <v>       0.30879224       0.05381924       0.67111769 </v>
   <v>       0.29897874       0.54965798       0.67502723 </v>
   <v>       0.80045673       0.05725290       0.67464629 </v>
   <v>       0.75331428       0.59830890       0.65974341 </v>
   <v>       0.08459300       0.16204634       0.64481427 </v>
   <v>       0.11229192       0.71848117       0.65021452 </v>
   <v>       0.57716110       0.16679515       0.64947280 </v>
   <v>       0.56281019       0.66349484       0.65088495 </v>
   <v>       0.17999941       0.41321631       0.64855220 </v>
   <v>       0.17551214       0.92179530       0.64868193 </v>
   <v>       0.70716726       0.40169704       0.66167177 </v>
   <v>       0.67374659       0.92480723       0.64967169 </v>
   <v>       0.06291765       0.17842879       0.67174153 </v>
   <v>       0.05750477       0.67479630       0.66914769 </v>
   <v>       0.59655441       0.25501871       0.65921168 </v>
   <v>       0.53038647       0.69561697       0.67560718 </v>
   <v>       0.19981212       0.44545364       0.67406262 </v>
   <v>       0.20674843       0.95181488       0.67337180 </v>
   <v>       0.66885261       0.48886217       0.66655019 </v>
   <v>       0.69527648       0.96137863       0.67478456 </v>
   <v>       0.39906666       0.29861433       0.65895596 </v>
   <v>       0.43413707       0.84502977       0.64788673 </v>
   <v>       0.93722640       0.32614403       0.65401338 </v>
   <v>       0.90250468       0.79614828       0.65565745 </v>
   <v>       0.33286058       0.07859192       0.64516407 </v>
   <v>       0.33176888       0.57547352       0.64990196 </v>
   <v>       0.83726278       0.07613040       0.64960320 </v>
   <v>       0.83975633       0.57678829       0.64956699 </v>
   <v>       0.00898093       0.25382968       0.63189714 </v>
   <v>       0.01979187       0.79946762       0.63953716 </v>
   <v>       0.44968652       0.18715515       0.64805125 </v>
   <v>       0.50543460       0.75404782       0.63159740 </v>
   <v>       0.25113718       0.99815455       0.62924939 </v>
   <v>       0.26069078       0.49147159       0.63157487 </v>
   <v>       0.76181671       0.99279725       0.63201704 </v>
   <v>       0.81834025       0.44933659       0.64924564 </v>
   <v>       0.44874502       0.30128397       0.76888902 </v>
   <v>       0.44874501       0.80128391       0.76888902 </v>
   <v>       0.94874497       0.30128397       0.76888902 </v>
   <v>       0.94874501       0.80128391       0.76888902 </v>
   <v>       0.30127600       0.05129450       0.76887296 </v>
   <v>       0.30127601       0.55129450       0.76887296 </v>
   <v>       0.80127594       0.05129450       0.76887296 </v>
   <v>       0.80127598       0.55129450       0.76887296 </v>
   <v>       0.07877100       0.17118050       0.74344197 </v>
   <v>       0.07877101       0.67118045       0.74344197 </v>
   <v>       0.57877100       0.17118050       0.74344197 </v>
   <v>       0.57877099       0.67118045       0.74344197 </v>
   <v>       0.17119950       0.42117448       0.74342103 </v>
   <v>       0.17119950       0.92117451       0.74342103 </v>
   <v>       0.67119951       0.42117448       0.74342103 </v>
   <v>       0.67119950       0.92117451       0.74342103 </v>
   <v>       0.05125600       0.19871499       0.76888902 </v>
   <v>       0.05125600       0.69871493       0.76888902 </v>
   <v>       0.55125603       0.19871499       0.76888902 </v>
   <v>       0.55125602       0.69871493       0.76888902 </v>
   <v>       0.19872349       0.44870397       0.76887205 </v>
   <v>       0.19872349       0.94870397       0.76887205 </v>
   <v>       0.69872352       0.44870397       0.76887205 </v>
   <v>       0.69872351       0.94870397       0.76887205 </v>
   <v>       0.42123152       0.32881747       0.74344197 </v>
   <v>       0.42123151       0.82881744       0.74344197 </v>
   <v>       0.92123147       0.32881747       0.74344197 </v>
   <v>       0.92123151       0.82881744       0.74344197 </v>
   <v>       0.32880050       0.07882500       0.74342103 </v>
   <v>       0.32880049       0.57882496       0.74342103 </v>
   <v>       0.82880048       0.07882500       0.74342103 </v>
   <v>       0.82880052       0.57882496       0.74342103 </v>
   <v>       0.00000350       0.25000148       0.72582199 </v>
   <v>       0.00000350       0.75000145       0.72582199 </v>
   <v>       0.50000351       0.25000148       0.72582199 </v>
   <v>       0.50000350       0.75000145       0.72582199 </v>
   <v>       0.25000050       0.00000000       0.72580398 </v>
   <v>       0.25000052       0.50000000       0.72580398 </v>
   <v>       0.75000050       0.00000000       0.72580398 </v>
   <v>       0.75000049       0.50000000       0.72580398 </v>
   <v>       0.77637475       0.55679982       0.51946596 </v>
   <v>       0.72093293       0.47809297       0.52526686 </v>
   <v>       0.86933002       0.50120548       0.53984974 </v>
   <v>       0.85761274       0.48116838       0.56739065 </v>
   <v>       0.74365646       0.64191399       0.56012021 </v>
   <v>       0.80897138       0.59575254       0.57667644 </v>
   <v>       0.66593383       0.54872589       0.56937505 </v>
   <v>       0.67877091       0.45609797       0.56055401 </v>
   <v>       0.61669189       0.55710357       0.53699376 </v>
   <v>       0.67246149       0.63688021       0.53528022 </v>
   <v>       0.60606626       0.64580307       0.50387651 </v>
   <v>       0.68689067       0.60171272       0.49463732 </v>
   <v>       0.78514741       0.39193749       0.53049960 </v>
   <v>       0.77912990       0.36958600       0.55831327 </v>
   <v>       0.86588754       0.36836366       0.54502613 </v>
   <v>       0.86300130       0.69489364       0.55437223 </v>
   <v>       0.84419906       0.64734947       0.53055698 </v>
   <v>       0.90807150       0.60973839       0.54969997 </v>
   <v>       0.76459926       0.52913330       0.59794772 </v>
   <v>       0.77224894       0.43503536       0.58954712 </v>
   <v>       0.68842413       0.46789488       0.60020977 </v>
   <v>       0.53608056       0.53048608       0.50359364 </v>
   <v>       0.57701111       0.54808804       0.47849063 </v>
   <v>       0.69753272       0.47845278       0.46913857 </v>
   <v>       0.55892627       0.41511101       0.52192220 </v>
   <v>       0.76312051       0.35836665       0.47143035 </v>
   <v>       0.62472732       0.29514959       0.52460194 </v>
   <v>       0.72822057       0.26659503       0.49960273 </v>
   <v>       0.01932559       0.25446880       0.55786848 </v>
   <v>       0.03540050       0.75985023       0.56067257 </v>
   <v>       0.46463569       0.22827604       0.55394765 </v>
   <v>       0.49825837       0.75692091       0.55565795 </v>
   <v>       0.24004829       0.53238073       0.55910676 </v>
   <v>       0.25084300       0.01152004       0.55610921 </v>
   <v>       0.77230571       0.98153255       0.56057544 </v>
   <v>       0.01097090       0.24395588       0.64903210 </v>
   <v>       0.00815904       0.75938529       0.65212494 </v>
   <v>       0.48651156       0.23155800       0.65343612 </v>
   <v>       0.49881294       0.75407875       0.64914577 </v>
   <v>       0.25595078       0.49396422       0.64893387 </v>
   <v>       0.25393643       0.00002808       0.64663501 </v>
   <v>       0.77555283       0.48687465       0.65503665 </v>
   <v>       0.75588693       0.99977389       0.64923801 </v>
   <v>       0.49998898       0.24999498       0.74327702 </v>
   <v>       0.49998903       0.74999496       0.74327702 </v>
   <v>       0.99998898       0.24999498       0.74327702 </v>
   <v>       0.99998903       0.74999496       0.74327702 </v>
   <v>       0.25000050       0.00000100       0.74325596 </v>
   <v>       0.25000052       0.50000100       0.74325596 </v>
   <v>       0.75000050       0.00000100       0.74325596 </v>
   <v>       0.75000049       0.50000100       0.74325596 </v>
   <v>       0.62451034       0.45585267       0.49547227 </v>
   <v>       0.68192721       0.43870538       0.48124390 </v>
   <v>       0.60408455       0.40287137       0.51083002 </v>
   <v>       0.71887317       0.37066266       0.48265373 </v>
   <v>       0.64077386       0.33513952       0.51233844 </v>
   <v>       0.69879792       0.31898672       0.49829446 </v>
   <v>       0.73223644       0.53532715       0.53002850 </v>
   <v>       0.83080944       0.47785363       0.55160593 </v>
   <v>       0.79204573       0.60486806       0.56005232 </v>
   <v>       0.70629137       0.50336585       0.56822187 </v>
   <v>       0.66271071       0.58269081       0.52819506 </v>
   <v>       0.63759941       0.59337179       0.50489637 </v>
   <v>       0.81281428       0.39804756       0.54607284 </v>
   <v>       0.85538294       0.63932786       0.54764353 </v>
   <v>       0.73581511       0.48303837       0.59014825 </v>
   <v>       0.58904093       0.53143216       0.49511749 </v>
   <v>       0.99666756       0.19153749       0.56645400 </v>
   <v>       0.03159262       0.69894481       0.57199820 </v>
   <v>       0.53491399       0.21897524       0.55830436 </v>
   <v>       0.47205596       0.69631960       0.56430678 </v>
   <v>       0.42608953       0.28878266       0.55766977 </v>
   <v>       0.46854674       0.82253029       0.55809686 </v>
   <v>       0.99540763       0.31973658       0.56401198 </v>
   <v>       0.98716849       0.81419902       0.56191244 </v>
   <v>       0.23828006       0.46191892       0.56447649 </v>
   <v>       0.19088568       0.97431233       0.56087225 </v>
   <v>       0.70033470       0.98778385       0.56333216 </v>
   <v>       0.31768993       0.99390641       0.56277302 </v>
   <v>       0.29957944       0.57390934       0.55847413 </v>
   <v>       0.82118485       0.03313709       0.56454150 </v>
   <v>       0.05455566       0.19169431       0.65587154 </v>
   <v>       0.06104248       0.71339105       0.65711996 </v>
   <v>       0.55746644       0.21745159       0.65437228 </v>
   <v>       0.53264698       0.70062034       0.65947315 </v>
   <v>       0.20920971       0.44830683       0.65807095 </v>
   <v>       0.20916818       0.95554435       0.65708565 </v>
   <v>       0.71195629       0.45797498       0.66093261 </v>
   <v>       0.70530703       0.95941297       0.65869205 </v>
   <v>       0.45563959       0.29455469       0.65897470 </v>
   <v>       0.45860818       0.80691738       0.65764991 </v>
   <v>       0.96872559       0.28649536       0.66117515 </v>
   <v>       0.94254138       0.76164229       0.66134907 </v>
   <v>       0.30153652       0.04650215       0.65507634 </v>
   <v>       0.29837675       0.54235680       0.65877745 </v>
   <v>       0.80010179       0.04736615       0.65867721 </v>
   <v>       0.79041123       0.55786259       0.65539195 </v>
   <v>       0.04586250       0.20411950       0.75272599 </v>
   <v>       0.04586250       0.70411946       0.75272599 </v>
   <v>       0.54586251       0.20411950       0.75272599 </v>
   <v>       0.54586250       0.70411946       0.75272599 </v>
   <v>       0.20411900       0.45410100       0.75270499 </v>
   <v>       0.20411899       0.95410095       0.75270499 </v>
   <v>       0.70411898       0.45410100       0.75270499 </v>
   <v>       0.70411896       0.95410095       0.75270499 </v>
   <v>       0.45414002       0.29588849       0.75272697 </v>
   <v>       0.45414001       0.79588852       0.75272697 </v>
   <v>       0.95414002       0.29588849       0.75272697 </v>
[...]
   <v>       0.55761507       0.16795496       0.55597662 </v>
   <v>       0.49664222       0.64641590       0.56155067 </v>
   <v>       0.36374263       0.02138483       0.55809722 </v>
   <v>       0.29533226       0.62867191       0.55468303 </v>
   <v>       0.87536938       0.02349480       0.56081182 </v>
   <v>       0.95920248       0.18836481       0.57862861 </v>
   <v>       0.99102906       0.69011587       0.58328494 </v>
   <v>       0.56393579       0.25665446       0.56724731 </v>
   <v>       0.43071886       0.69554844       0.57553314 </v>
   <v>       0.28147100       0.43666374       0.57229147 </v>
   <v>       0.19132857       0.92918175       0.57078409 </v>
   <v>       0.67773031       0.03419668       0.57001782 </v>
   <v>       0.36997389       0.28805492       0.55452613 </v>
   <v>       0.49376956       0.86905288       0.55228020 </v>
   <v>       0.01796702       0.36791712       0.55798715 </v>
   <v>       0.99665902       0.86361810       0.55433823 </v>
   <v>       0.18819377       0.43669368       0.56594877 </v>
   <v>       0.13944680       0.99177149       0.55625335 </v>
   <v>       0.66812588       0.94269015       0.56156703 </v>
   <v>       0.43538858       0.18207616       0.54639255 </v>
   <v>       0.54875459       0.75296303       0.54607559 </v>
   <v>       0.06065672       0.25135959       0.54512808 </v>
   <v>       0.08231369       0.76522752       0.54962659 </v>
   <v>       0.18758239       0.55787161       0.55446905 </v>
   <v>       0.24478309       0.06051517       0.54597370 </v>
   <v>       0.79225421       0.92783826       0.55500896 </v>
   <v>       0.48534831       0.33863356       0.66434259 </v>
   <v>       0.44816892       0.81175940       0.67369706 </v>
   <v>       0.96655221       0.28195328       0.67739678 </v>
   <v>       0.92705273       0.72483775       0.67316040 </v>
   <v>       0.30879224       0.05381924       0.67111769 </v>
   <v>       0.29897874       0.54965798       0.67502723 </v>
   <v>       0.80045673       0.05725290       0.67464629 </v>
   <v>       0.75331428       0.59830890       0.65974341 </v>
   <v>       0.08459300       0.16204634       0.64481427 </v>
   <v>       0.11229192       0.71848117       0.65021452 </v>
   <v>       0.57716110       0.16679515       0.64947280 </v>
   <v>       0.56281019       0.66349484       0.65088495 </v>
   <v>       0.17999941       0.41321631       0.64855220 </v>
   <v>       0.17551214       0.92179530       0.64868193 </v>
   <v>       0.70716726       0.40169704       0.66167177 </v>
   <v>       0.67374659       0.92480723       0.64967169 </v>
   <v>       0.06291765       0.17842879       0.67174153 </v>
   <v>       0.05750477       0.67479630       0.66914769 </v>
   <v>       0.59655441       0.25501871       0.65921168 </v>
   <v>       0.53038647       0.69561697       0.67560718 </v>
   <v>       0.19981212       0.44545364       0.67406262 </v>
   <v>       0.20674843       0.95181488       0.67337180 </v>
   <v>       0.66885261       0.48886217       0.66655019 </v>
   <v>       0.69527648       0.96137863       0.67478456 </v>
   <v>       0.39906666       0.29861433       0.65895596 </v>
   <v>       0.43413707       0.84502977       0.64788673 </v>
   <v>       0.93722640       0.32614403       0.65401338 </v>
   <v>       0.90250468       0.79614828       0.65565745 </v>
   <v>       0.33286058       0.07859192       0.64516407 </v>
   <v>       0.33176888       0.57547352       0.64990196 </v>
   <v>       0.83726278       0.07613040       0.64960320 </v>
   <v>       0.83975633       0.57678829       0.64956699 </v>
   <v>       0.00898093       0.25382968       0.63189714 </v>
   <v>       0.01979187       0.79946762       0.63953716 </v>
   <v>       0.44968652       0.18715515       0.64805125 </v>
   <v>       0.50543460       0.75404782       0.63159740 </v>
   <v>       0.25113718       0.99815455       0.62924939 </v>
   <v>       0.26069078       0.49147159       0.63157487 </v>
   <v>       0.76181671       0.99279725       0.63201704 </v>
   <v>       0.81834025       0.44933659       0.64924564 </v>
   <v>       0.44874502       0.30128397       0.76888902 </v>
   <v>       0.44874501       0.80128391       0.76888902 </v>
   <v>       0.94874497       0.30128397       0.76888902 </v>
   <v>       0.94874501       0.80128391       0.76888902 </v>
   <v>       0.30127600       0.05129450       0.76887296 </v>
   <v>       0.30127601       0.55129450       0.76887296 </v>
   <v>       0.80127594       0.05129450       0.76887296 </v>
   <v>       0.80127598       0.55129450       0.76887296 </v>
   <v>       0.07877100       0.17118050       0.74344197 </v>
   <v>       0.07877101       0.67118045       0.74344197 </v>
   <v>       0.57877100       0.17118050       0.74344197 </v>
   <v>       0.57877099       0.67118045       0.74344197 </v>
   <v>       0.17119950       0.42117448       0.74342103 </v>
   <v>       0.17119950       0.92117451       0.74342103 </v>
   <v>       0.67119951       0.42117448       0.74342103 </v>
   <v>       0.67119950       0.92117451       0.74342103 </v>
   <v>       0.05125600       0.19871499       0.76888902 </v>
   <v>       0.05125600       0.69871493       0.76888902 </v>
   <v>       0.55125603       0.19871499       0.76888902 </v>
   <v>       0.55125602       0.69871493       0.76888902 </v>
   <v>       0.19872349       0.44870397       0.76887205 </v>
   <v>       0.19872349       0.94870397       0.76887205 </v>
   <v>       0.69872352       0.44870397       0.76887205 </v>
   <v>       0.69872351       0.94870397       0.76887205 </v>
   <v>       0.42123152       0.32881747       0.74344197 </v>
   <v>       0.42123151       0.82881744       0.74344197 </v>
   <v>       0.92123147       0.32881747       0.74344197 </v>
   <v>       0.92123151       0.82881744       0.74344197 </v>
   <v>       0.32880050       0.07882500       0.74342103 </v>
   <v>       0.32880049       0.57882496       0.74342103 </v>
   <v>       0.82880048       0.07882500       0.74342103 </v>
   <v>       0.82880052       0.57882496       0.74342103 </v>
   <v>       0.00000350       0.25000148       0.72582199 </v>
   <v>       0.00000350       0.75000145       0.72582199 </v>
   <v>       0.50000351       0.25000148       0.72582199 </v>
   <v>       0.50000350       0.75000145       0.72582199 </v>
   <v>       0.25000050       0.00000000       0.72580398 </v>
   <v>       0.25000052       0.50000000       0.72580398 </v>
   <v>       0.75000050       0.00000000       0.72580398 </v>
   <v>       0.75000049       0.50000000       0.72580398 </v>
   <v>       0.77637475       0.55679982       0.51946596 </v>
   <v>       0.72093293       0.47809297       0.52526686 </v>
   <v>       0.86933002       0.50120548       0.53984974 </v>
   <v>       0.85761274       0.48116838       0.56739065 </v>
   <v>       0.74365646       0.64191399       0.56012021 </v>
   <v>       0.80897138       0.59575254       0.57667644 </v>
   <v>       0.66593383       0.54872589       0.56937505 </v>
   <v>       0.67877091       0.45609797       0.56055401 </v>
   <v>       0.61669189       0.55710357       0.53699376 </v>
   <v>       0.67246149       0.63688021       0.53528022 </v>
   <v>       0.60606626       0.64580307       0.50387651 </v>
   <v>       0.68689067       0.60171272       0.49463732 </v>
   <v>       0.78514741       0.39193749       0.53049960 </v>
   <v>       0.77912990       0.36958600       0.55831327 </v>
   <v>       0.86588754       0.36836366       0.54502613 </v>
   <v>       0.86300130       0.69489364       0.55437223 </v>
   <v>       0.84419906       0.64734947       0.53055698 </v>
   <v>       0.90807150       0.60973839       0.54969997 </v>
   <v>       0.76459926       0.52913330       0.59794772 </v>
   <v>       0.77224894       0.43503536       0.58954712 </v>
   <v>       0.68842413       0.46789488       0.60020977 </v>
   <v>       0.53608056       0.53048608       0.50359364 </v>
   <v>       0.57701111       0.54808804       0.47849063 </v>
   <v>       0.69753272       0.47845278       0.46913857 </v>
   <v>       0.55892627       0.41511101       0.52192220 </v>
   <v>       0.76312051       0.35836665       0.47143035 </v>
   <v>       0.62472732       0.29514959       0.52460194 </v>
   <v>       0.72822057       0.26659503       0.49960273 </v>
   <v>       0.01932559       0.25446880       0.55786848 </v>
   <v>       0.03540050       0.75985023       0.56067257 </v>
   <v>       0.46463569       0.22827604       0.55394765 </v>
   <v>       0.49825837       0.75692091       0.55565795 </v>
   <v>       0.24004829       0.53238073       0.55910676 </v>
   <v>       0.25084300       0.01152004       0.55610921 </v>
   <v>       0.77230571       0.98153255       0.56057544 </v>
   <v>       0.01097090       0.24395588       0.64903210 </v>
   <v>       0.00815904       0.75938529       0.65212494 </v>
   <v>       0.48651156       0.23155800       0.65343612 </v>
   <v>       0.49881294       0.75407875       0.64914577 </v>
   <v>       0.25595078       0.49396422       0.64893387 </v>
   <v>       0.25393643       0.00002808       0.64663501 </v>
   <v>       0.77555283       0.48687465       0.65503665 </v>
   <v>       0.75588693       0.99977389       0.64923801 </v>
   <v>       0.49998898       0.24999498       0.74327702 </v>
   <v>       0.49998903       0.74999496       0.74327702 </v>
   <v>       0.99998898       0.24999498       0.74327702 </v>
   <v>       0.99998903       0.74999496       0.74327702 </v>
   <v>       0.25000050       0.00000100       0.74325596 </v>
   <v>       0.25000052       0.50000100       0.74325596 </v>
   <v>       0.75000050       0.00000100       0.74325596 </v>
   <v>       0.75000049       0.50000100       0.74325596 </v>
   <v>       0.62451034       0.45585267       0.49547227 </v>
   <v>       0.68192721       0.43870538       0.48124390 </v>
   <v>       0.60408455       0.40287137       0.51083002 </v>
   <v>       0.71887317       0.37066266       0.48265373 </v>
   <v>       0.64077386       0.33513952       0.51233844 </v>
   <v>       0.69879792       0.31898672       0.49829446 </v>
   <v>       0.73223644       0.53532715       0.53002850 </v>
   <v>       0.83080944       0.47785363       0.55160593 </v>
   <v>       0.79204573       0.60486806       0.56005232 </v>
   <v>       0.70629137       0.50336585       0.56822187 </v>
   <v>       0.66271071       0.58269081       0.52819506 </v>
   <v>       0.63759941       0.59337179       0.50489637 </v>
   <v>       0.81281428       0.39804756       0.54607284 </v>
   <v>       0.85538294       0.63932786       0.54764353 </v>
   <v>       0.73581511       0.48303837       0.59014825 </v>
   <v>       0.58904093       0.53143216       0.49511749 </v>
   <v>       0.99666756       0.19153749       0.56645400 </v>
   <v>       0.03159262       0.69894481       0.57199820 </v>
   <v>       0.53491399       0.21897524       0.55830436 </v>
   <v>       0.47205596       0.69631960       0.56430678 </v>
   <v>       0.42608953       0.28878266       0.55766977 </v>
   <v>       0.46854674       0.82253029       0.55809686 </v>
   <v>       0.99540763       0.31973658       0.56401198 </v>
   <v>       0.98716849       0.81419902       0.56191244 </v>
   <v>       0.23828006       0.46191892       0.56447649 </v>
   <v>       0.19088568       0.97431233       0.56087225 </v>
   <v>       0.70033470       0.98778385       0.56333216 </v>
   <v>       0.31768993       0.99390641       0.56277302 </v>
   <v>       0.29957944       0.57390934       0.55847413 </v>
   <v>       0.82118485       0.03313709       0.56454150 </v>
   <v>       0.05455566       0.19169431       0.65587154 </v>
   <v>       0.06104248       0.71339105       0.65711996 </v>
   <v>       0.55746644       0.21745159       0.65437228 </v>
   <v>       0.53264698       0.70062034       0.65947315 </v>
   <v>       0.20920971       0.44830683       0.65807095 </v>
   <v>       0.20916818       0.95554435       0.65708565 </v>
   <v>       0.71195629       0.45797498       0.66093261 </v>
   <v>       0.70530703       0.95941297       0.65869205 </v>
   <v>       0.45563959       0.29455469       0.65897470 </v>
   <v>       0.45860818       0.80691738       0.65764991 </v>
   <v>       0.96872559       0.28649536       0.66117515 </v>
   <v>       0.94254138       0.76164229       0.66134907 </v>
   <v>       0.30153652       0.04650215       0.65507634 </v>
   <v>       0.29837675       0.54235680       0.65877745 </v>
   <v>       0.80010179       0.04736615       0.65867721 </v>
   <v>       0.79041123       0.55786259       0.65539195 </v>
   <v>       0.04586250       0.20411950       0.75272599 </v>
   <v>       0.04586250       0.70411946       0.75272599 </v>
   <v>       0.54586251       0.20411950       0.75272599 </v>
   <v>       0.54586250       0.70411946       0.75272599 </v>
   <v>       0.20411900       0.45410100       0.75270499 </v>
   <v>       0.20411899       0.95410095       0.75270499 </v>
   <v>       0.70411898       0.45410100       0.75270499 </v>
   <v>       0.70411896       0.95410095       0.75270499 </v>
   <v>       0.45414002       0.29588849       0.75272697 </v>
   <v>       0.45414001       0.79588852       0.75272697 </v>
   <v>       0.95414002       0.29588849       0.75272697 </v>
   <v>       0.95414006       0.79588852       0.75272697 </v>
   <v>       0.29588249       0.04590050       0.75270499 </v>
   <v>       0.29588248       0.54590053       0.75270499 </v>
   <v>       0.79588244       0.04590050       0.75270499 </v>
   <v>       0.79588248       0.54590053       0.75270499 </v>
   <v>       0.76495682       0.53019944       0.55238154 </v>
   <v>       0.50867295       0.01635477       0.55132670 </v>
   <v>       0.47808969       0.49825430       0.55501018 </v>
   <v>       0.00531546       0.00446499       0.54908877 </v>
   <v>       0.03940076       0.50546234       0.55347166 </v>
   <v>       0.23431230       0.24273424       0.55197826 </v>
   <v>       0.25595303       0.76415092       0.55325165 </v>
   <v>       0.73603501       0.20180653       0.55509387 </v>
   <v>       0.70298666       0.79244267       0.55381096 </v>
   <v>       0.99999246       0.98367068       0.65399317 </v>
   <v>       0.99686834       0.50188731       0.65509477 </v>
   <v>       0.50204233       0.01395564       0.65400819 </v>
   <v>       0.51261425       0.48882732       0.65537974 </v>
   <v>       0.26126000       0.24570897       0.65415434 </v>
   <v>       0.26000607       0.75311694       0.65451085 </v>
   <v>       0.75306798       0.26295962       0.65450310 </v>
   <v>       0.74362868       0.75124568       0.65455023 </v>
   <v>       0.13526089       0.11051362       0.60750652 </v>
   <v>       0.15148966       0.60349923       0.60894412 </v>
   <v>       0.64829457       0.10482854       0.61075668 </v>
   <v>       0.61652797       0.62991630       0.61066419 </v>
   <v>       0.36083416       0.38436873       0.60589658 </v>
   <v>       0.37280191       0.88152058       0.60660088 </v>
   <v>       0.89143705       0.36481916       0.61065485 </v>
   <v>       0.87219795       0.87485635       0.60572790 </v>
   <v>       0.12491552       0.36830838       0.60906689 </v>
   <v>       0.12292055       0.86617013       0.60767196 </v>
   <v>       0.58972517       0.33587063       0.60163810 </v>
   <v>       0.61778528       0.87210807       0.61214642 </v>
   <v>       0.38483815       0.13347661       0.60426789 </v>
   <v>       0.38548685       0.63005785       0.61099281 </v>
   <v>       0.88600776       0.13206571       0.61188429 </v>
   <v>       0.89960554       0.64128681       0.61161006 </v>
   <v>       0.00000000       0.00000000       0.75492797 </v>
   <v>       0.00000000       0.50000000       0.75492797 </v>
   <v>       0.50000000       0.00000000       0.75492797 </v>
   <v>       0.49999999       0.50000000       0.75492797 </v>
   <v>       0.25000050       0.25000000       0.75493902 </v>
   <v>       0.25000051       0.74999997       0.75493902 </v>
   <v>       0.75000047       0.25000000       0.75493902 </v>
   <v>       0.75000046       0.74999997       0.75493902 </v>
   <v>       0.13579050       0.11421000       0.70478299 </v>
   <v>       0.13579050       0.61420998       0.70478299 </v>
   <v>       0.63579045       0.11421000       0.70478299 </v>
   <v>       0.63579049       0.61420998       0.70478299 </v>
   <v>       0.36420952       0.38578999       0.70478299 </v>
   <v>       0.36420950       0.88578996       0.70478299 </v>
   <v>       0.86420954       0.38578999       0.70478299 </v>
   <v>       0.86420953       0.88578996       0.70478299 </v>
   <v>       0.11421799       0.36421899       0.70478098 </v>
   <v>       0.11421799       0.86421899       0.70478098 </v>
   <v>       0.61421800       0.36421899       0.70478098 </v>
   <v>       0.61421799       0.86421899       0.70478098 </v>
   <v>       0.38578201       0.13578149       0.70478202 </v>
   <v>       0.38578200       0.63578149       0.70478202 </v>
   <v>       0.88578199       0.13578149       0.70478202 </v>
   <v>       0.88578203       0.63578149       0.70478202 </v>
   <v>       0.13466700       0.11533200       0.80125603 </v>
   <v>       0.13466699       0.61533199       0.80125603 </v>
   <v>       0.63466699       0.11533200       0.80125603 </v>
   <v>       0.63466698       0.61533199       0.80125603 </v>
   <v>       0.36533300       0.38466799       0.80125603 </v>
   <v>       0.36533299       0.88466796       0.80125603 </v>
   <v>       0.86533295       0.38466799       0.80125603 </v>
   <v>       0.86533294       0.88466796       0.80125603 </v>
   <v>       0.11532850       0.36533700       0.80126500 </v>
   <v>       0.11532850       0.86533698       0.80126500 </v>
   <v>       0.61532850       0.36533700       0.80126500 </v>
   <v>       0.61532849       0.86533698       0.80126500 </v>
   <v>       0.38467151       0.13466300       0.80126500 </v>
   <v>       0.38467150       0.63466297       0.80126500 </v>
   <v>       0.88467149       0.13466300       0.80126500 </v>
   <v>       0.88467153       0.63466297       0.80126500 </v>
   <v>       0.99935922       0.99759164       0.60534972 </v>
   <v>       0.00753447       0.50110569       0.60511651 </v>
   <v>       0.50289553       0.00812078       0.60324688 </v>
   <v>       0.49766008       0.49235685       0.60492110 </v>
   <v>       0.24655174       0.24573154       0.60245931 </v>
   <v>       0.25064200       0.74469792       0.60379356 </v>
   <v>       0.74248915       0.24550248       0.60284622 </v>
   <v>       0.73804693       0.75555028       0.60317747 </v>
   <v>       0.00000050       0.00000050       0.70482896 </v>
   <v>       0.00000050       0.50000048       0.70482896 </v>
   <v>       0.50000048       0.00000050       0.70482896 </v>
   <v>       0.50000046       0.50000048       0.70482896 </v>
   <v>       0.24999999       0.24999947       0.70482499 </v>
   <v>       0.25000001       0.74999950       0.70482499 </v>
   <v>       0.74999999       0.24999947       0.70482499 </v>
   <v>       0.74999998       0.74999950       0.70482499 </v>
   <v>       0.00000000       0.00000000       0.80731797 </v>
   <v>       0.00000000       0.50000000       0.80731797 </v>
   <v>       0.50000000       0.00000000       0.80731797 </v>
   <v>       0.49999999       0.50000000       0.80731797 </v>
   <v>       0.24999999       0.25000000       0.80731797 </v>
   <v>       0.25000001       0.74999997       0.80731797 </v>
   <v>       0.74999999       0.25000000       0.80731797 </v>
   <v>       0.74999998       0.74999997       0.80731797 </v>
  </varray>
 </structure>
</modeling>
