 vasp.6.2.1 16May21 (build Nov 15 2021 14:57:28) complex                         
 executed on             LinuxPGI date 2023.07.30  16:50:00
 running on    4 total cores
 distrk:  each k-point on    4 cores,    1 groups
 distr:  one band on NCORE=   1 cores,    4 groups


--------------------------------------------------------------------------------------------------------


 INCAR:
   SYSTEM = PSC
   ISTART = 1
   ICHARG = 1
   PREC = Normal
   ENCUT = 500
   GGA_COMPAT = F
   NELM = 600
   ISYM = 0
   LREAL = Auto
   ISMEAR = 0
   SIGMA = 0.05
   AMIN = 0.01
   BMIX = 0.01
   LVTOT = T
   LWAVE = F
   LDIPOL = T
   IDIPOL = 3
   LVDW = T
   IVDW = 12

 POTCAR:    PAW_PBE H 15Jun2001                   
 POTCAR:    PAW_PBE C 08Apr2002                   
 POTCAR:    PAW_PBE N 08Apr2002                   
 POTCAR:    PAW_PBE I 08Apr2002                   
 POTCAR:    PAW_PBE Pb 08Apr2002                  
 WARNING: For LVTOT=.TRUE., VASP.5.x writes the TOTAL local potential to the
     file LOCPOT. If you want only the Hartree contributions, use LVHAR=.TRUE.
     instead. 

 POTCAR:    PAW_PBE H 15Jun2001                   
   SHA256 =  030f79b5d3ab3cf0e668861823c8fb652ff669f3e15e46930bd03bfd63a607b6 H/POTCAR              
   COPYR  = (c) Copyright 15Jun2001 Georg Kresse                                                    
   COPYR  = This file is part of the software VASP. Any use, copying, and all other rights are regul
   COPYR  = If you do not have a valid VASP license, you may not use, copy or distribute this file. 
   VRHFIN =H: ultrasoft test                                                                        
   LEXCH  = PE                                                                                      
   EATOM  =    12.4884 eV,    0.9179 Ry                                                             
                                                                                                    
   TITEL  = PAW_PBE H 15Jun2001                                                                     
   LULTRA =        F    use ultrasoft PP ?                                                          
   IUNSCR =        0    unscreen: 0-lin 1-nonlin 2-no                                               
   RPACOR =    0.000    partial core radius                                                         
   POMASS =    1.000; ZVAL   =    1.000    mass and valenz                                          
   RCORE  =    1.100    outmost cutoff radius                                                       
   RWIGS  =    0.700; RWIGS  =    0.370    wigner-seitz radius (au A)                               
   ENMAX  =  250.000; ENMIN  =  200.000 eV                                                          
   RCLOC  =    0.701    cutoff for local pot                                                        
   LCOR   =        T    correct aug charges                                                         
   LPAW   =        T    paw PP                                                                      
   EAUG   =  400.000                                                                                
   RMAX   =    1.123    core radius for proj-oper                                                   
   RAUG   =    1.200    factor for augmentation sphere                                              
   RDEP   =    1.112    radius for radial grids                                                     
   RDEPT  =    0.926    core radius for aug-charge                                                  
                                                                                                    
   Atomic configuration                                                                             
    2 entries                                                                                       
     n  l   j            E        occ.                                                              
     1  0  0.50        -6.4927   1.0000                                                             
     2  1  0.50        -3.4015   0.0000                                                             
   Description                                                                                      
     l       E           TYP  RCUT    TYP  RCUT                                                     
     0     -6.4927494     23  1.100                                                                 
     0      6.8029130     23  1.100                                                                 
     1     -4.0817478     23  1.100                                                                 
  local pseudopotential read in
  atomic valenz-charges read in
  non local Contribution for L=            0  read in
    real space projection operators read in
  non local Contribution for L=            0  read in
    real space projection operators read in
  non local Contribution for L=            1  read in
    real space projection operators read in
    PAW grid and wavefunctions read in
 
   number of l-projection  operators is LMAX  =            3
   number of lm-projection operators is LMMAX =            5
 
 POTCAR:    PAW_PBE C 08Apr2002                   
   SHA256 =  253f7b50bb8d59471dbedb8285d89021f4a42ed1a2c5d38a03a736e69125dd95 C/POTCAR              
   COPYR  = (c) Copyright 08Apr2002 Georg Kresse                                                    
   COPYR  = This file is part of the software VASP. Any use, copying, and all other rights are regul
   COPYR  = If you do not have a valid VASP license, you may not use, copy or distribute this file. 
   VRHFIN =C: s2p2                                                                                  
   LEXCH  = PE                                                                                      
   EATOM  =   147.1560 eV,   10.8157 Ry                                                             
                                                                                                    
   TITEL  = PAW_PBE C 08Apr2002                                                                     
   LULTRA =        F    use ultrasoft PP ?                                                          
   IUNSCR =        1    unscreen: 0-lin 1-nonlin 2-no                                               
   RPACOR =    1.200    partial core radius                                                         
   POMASS =   12.011; ZVAL   =    4.000    mass and valenz                                          
   RCORE  =    1.500    outmost cutoff radius                                                       
   RWIGS  =    1.630; RWIGS  =    0.863    wigner-seitz radius (au A)                               
   ENMAX  =  400.000; ENMIN  =  300.000 eV                                                          
   ICORE  =        2    local potential                                                             
   LCOR   =        T    correct aug charges                                                         
   LPAW   =        T    paw PP                                                                      
   EAUG   =  644.873                                                                                
   DEXC   =    0.000                                                                                
   RMAX   =    1.529    core radius for proj-oper                                                   
   RAUG   =    1.300    factor for augmentation sphere                                              
   RDEP   =    1.501    radius for radial grids                                                     
   RDEPT  =    1.300    core radius for aug-charge                                                  
                                                                                                    
   Atomic configuration                                                                             
    4 entries                                                                                       
     n  l   j            E        occ.                                                              
     1  0  0.50      -273.3789   2.0000                                                             
     2  0  0.50       -13.7508   2.0000                                                             
     2  1  0.50        -5.2854   2.0000                                                             
     3  2  1.50        -5.4423   0.0000                                                             
   Description                                                                                      
     l       E           TYP  RCUT    TYP  RCUT                                                     
     0    -13.7508458     23  1.200                                                                 
     0     -8.2022199     23  1.200                                                                 
     1     -5.2854383     23  1.500                                                                 
     1     34.0145650     23  1.500                                                                 
     2     -5.4423304      7  1.500                                                                 
  local pseudopotential read in
  partial core-charges read in
  partial kinetic energy density read in
  atomic valenz-charges read in
  non local Contribution for L=            0  read in
    real space projection operators read in
  non local Contribution for L=            0  read in
    real space projection operators read in
  non local Contribution for L=            1  read in
    real space projection operators read in
  non local Contribution for L=            1  read in
    real space projection operators read in
    PAW grid and wavefunctions read in
 
   number of l-projection  operators is LMAX  =            4
   number of lm-projection operators is LMMAX =            8
 
 POTCAR:    PAW_PBE N 08Apr2002                   
   SHA256 =  e053789ff3a61a86a1b75d8a110fcc91f86041011e7b0817c7c99e4e8a6349d7 N/POTCAR              
   COPYR  = (c) Copyright 08Apr2002 Georg Kresse                                                    
   COPYR  = This file is part of the software VASP. Any use, copying, and all other rights are regul
   COPYR  = If you do not have a valid VASP license, you may not use, copy or distribute this file. 
   VRHFIN =N: s2p3                                                                                  
   LEXCH  = PE                                                                                      
   EATOM  =   264.5486 eV,   19.4438 Ry                                                             
                                                                                                    
   TITEL  = PAW_PBE N 08Apr2002                                                                     
   LULTRA =        F    use ultrasoft PP ?                                                          
   IUNSCR =        1    unscreen: 0-lin 1-nonlin 2-no                                               
   RPACOR =    1.200    partial core radius                                                         
   POMASS =   14.001; ZVAL   =    5.000    mass and valenz                                          
   RCORE  =    1.500    outmost cutoff radius                                                       
   RWIGS  =    1.400; RWIGS  =    0.741    wigner-seitz radius (au A)                               
   ENMAX  =  400.000; ENMIN  =  300.000 eV                                                          
   ICORE  =        2    local potential                                                             
   LCOR   =        T    correct aug charges                                                         
   LPAW   =        T    paw PP                                                                      
   EAUG   =  627.112                                                                                
   DEXC   =    0.000                                                                                
   RMAX   =    1.529    core radius for proj-oper                                                   
   RAUG   =    1.300    factor for augmentation sphere                                              
   RDEP   =    1.514    radius for radial grids                                                     
   RDEPT  =    1.338    core radius for aug-charge                                                  
                                                                                                    
   Atomic configuration                                                                             
    4 entries                                                                                       
     n  l   j            E        occ.                                                              
     1  0  0.50      -384.7179   2.0000                                                             
     2  0  0.50       -18.5828   2.0000                                                             
     2  1  0.50        -7.0898   3.0000                                                             
     3  2  1.50        -6.8029   0.0000                                                             
   Description                                                                                      
     l       E           TYP  RCUT    TYP  RCUT                                                     
     0    -18.5828119     23  1.200                                                                 
     0    -13.5018863     23  1.200                                                                 
     1     -7.0897853     23  1.500                                                                 
     1      9.5240782     23  1.500                                                                 
     2     -6.8029130      7  1.500                                                                 
  local pseudopotential read in
  partial core-charges read in
  partial kinetic energy density read in
  atomic valenz-charges read in
  non local Contribution for L=            0  read in
    real space projection operators read in
  non local Contribution for L=            0  read in
    real space projection operators read in
  non local Contribution for L=            1  read in
    real space projection operators read in
  non local Contribution for L=            1  read in
    real space projection operators read in
    PAW grid and wavefunctions read in
 
   number of l-projection  operators is LMAX  =            4
   number of lm-projection operators is LMMAX =            8
 
 POTCAR:    PAW_PBE I 08Apr2002                   
   SHA256 =  e40f3f59b681c1fc3e3091736183c4589116986673d2b852a5012aec72758799 I/POTCAR              
   COPYR  = (c) Copyright 08Apr2002 Georg Kresse                                                    
   COPYR  = This file is part of the software VASP. Any use, copying, and all other rights are regul
   COPYR  = If you do not have a valid VASP license, you may not use, copy or distribute this file. 
   VRHFIN =I : s2p5                                                                                 
   LEXCH  = PE                                                                                      
   EATOM  =   315.8678 eV,   23.2156 Ry                                                             
                                                                                                    
   TITEL  = PAW_PBE I 08Apr2002                                                                     
   LULTRA =        F    use ultrasoft PP ?                                                          
   IUNSCR =        1    unscreen: 0-lin 1-nonlin 2-no                                               
   RPACOR =    2.200    partial core radius                                                         
   POMASS =  126.904; ZVAL   =    7.000    mass and valenz                                          
   RCORE  =    2.300    outmost cutoff radius                                                       
   RWIGS  =    2.810; RWIGS  =    1.487    wigner-seitz radius (au A)                               
   ENMAX  =  175.647; ENMIN  =  131.735 eV                                                          
   ICORE  =        3    local potential                                                             
   LCOR   =        T    correct aug charges                                                         
   LPAW   =        T    paw PP                                                                      
   EAUG   =  370.139                                                                                
   DEXC   =    0.000                                                                                
   RMAX   =    2.359    core radius for proj-oper                                                   
   RAUG   =    1.300    factor for augmentation sphere                                              
   RDEP   =    2.392    radius for radial grids                                                     
   RDEPT  =    2.170    core radius for aug-charge                                                  
                                                                                                    
   Atomic configuration                                                                             
   13 entries                                                                                       
     n  l   j            E        occ.                                                              
     1  0  0.50    -32976.3739   2.0000                                                             
     2  0  0.50     -5094.5933   2.0000                                                             
     2  1  1.50     -4572.0131   6.0000                                                             
     3  0  0.50     -1028.2813   2.0000                                                             
     3  1  1.50      -859.0250   6.0000                                                             
     3  2  2.50      -605.7620  10.0000                                                             
     4  0  0.50      -180.5540   2.0000                                                             
     4  1  1.50      -127.5306   6.0000                                                             
     4  2  2.50       -50.2720  10.0000                                                             
     5  0  0.50       -17.4058   2.0000                                                             
     5  1  0.50        -7.0851   5.0000                                                             
     5  2  1.50        -7.0750   0.0000                                                             
     4  3  2.50        -7.0750   0.0000                                                             
   Description                                                                                      
     l       E           TYP  RCUT    TYP  RCUT                                                     
     0    -17.4058016     23  2.300                                                                 
     0    -18.7663842     23  2.300                                                                 
     1     -7.0850686     23  2.300                                                                 
     1     -4.2150896     23  2.300                                                                 
     2     -7.0750295     23  2.300                                                                 
     3     -1.3605826     23  2.300                                                                 
  local pseudopotential read in
  partial core-charges read in
  partial kinetic energy density read in
  atomic valenz-charges read in
  non local Contribution for L=            0  read in
    real space projection operators read in
  non local Contribution for L=            0  read in
    real space projection operators read in
  non local Contribution for L=            1  read in
    real space projection operators read in
  non local Contribution for L=            1  read in
    real space projection operators read in
  non local Contribution for L=            2  read in
    real space projection operators read in
    PAW grid and wavefunctions read in
 
   number of l-projection  operators is LMAX  =            5
   number of lm-projection operators is LMMAX =           13
 
 POTCAR:    PAW_PBE Pb 08Apr2002                  
   SHA256 =  797118a27cf1bcd06b9881c67a26cdde129e3cd1a551dd4a281f9681ce847303 Pb/POTCAR             
   COPYR  = (c) Copyright 08Apr2002 Georg Kresse                                                    
   COPYR  = This file is part of the software VASP. Any use, copying, and all other rights are regul
   COPYR  = If you do not have a valid VASP license, you may not use, copy or distribute this file. 
   VRHFIN =Pb:                                                                                      
   LEXCH  = PE                                                                                      
   EATOM  =    96.9868 eV,    7.1283 Ry                                                             
                                                                                                    
   TITEL  = PAW_PBE Pb 08Apr2002                                                                    
   LULTRA =        F    use ultrasoft PP ?                                                          
   IUNSCR =        1    unscreen: 0-lin 1-nonlin 2-no                                               
   RPACOR =    2.200    partial core radius                                                         
   POMASS =  207.200; ZVAL   =    4.000    mass and valenz                                          
   RCORE  =    3.100    outmost cutoff radius                                                       
   RWIGS  =    3.260; RWIGS  =    1.725    wigner-seitz radius (au A)                               
   ENMAX  =   97.973; ENMIN  =   73.480 eV                                                          
   ICORE  =        3    local potential                                                             
   LCOR   =        T    correct aug charges                                                         
   LPAW   =        T    paw PP                                                                      
   EAUG   =  234.873                                                                                
   DEXC   =    0.000                                                                                
   RMAX   =    3.158    core radius for proj-oper                                                   
   RAUG   =    1.300    factor for augmentation sphere                                              
   RDEP   =    3.202    radius for radial grids                                                     
   RDEPT  =    2.659    core radius for aug-charge                                                  
                                                                                                    
   Atomic configuration                                                                             
   17 entries                                                                                       
     n  l   j            E        occ.                                                              
     1  0  0.50    -88091.8466   2.0000                                                             
     2  0  0.50    -15753.4197   2.0000                                                             
     2  1  1.50    -13508.1797   6.0000                                                             
     3  0  0.50     -3781.7194   2.0000                                                             
     3  1  1.50     -3138.2529   6.0000                                                             
     3  2  2.50     -2483.2977  10.0000                                                             
     4  0  0.50      -856.2895   2.0000                                                             
     4  1  1.50      -645.4943   6.0000                                                             
     4  2  2.50      -401.8768  10.0000                                                             
     4  3  3.50      -132.9059  14.0000                                                             
     5  0  0.50      -144.0950   2.0000                                                             
     5  1  1.50       -85.7879   6.0000                                                             
     5  2  2.50       -21.1769  10.0000                                                             
     6  0  0.50       -12.0372   2.0000                                                             
     6  1  1.50        -3.4971   2.0000                                                             
     6  2  2.50        -1.3606   0.0000                                                             
     5  3  2.50        -2.7212   0.0000                                                             
   Description                                                                                      
     l       E           TYP  RCUT    TYP  RCUT                                                     
     0    -12.0371566     23  3.100                                                                 
     0    -13.3977392     23  3.100                                                                 
     1     -3.4971341     23  3.100                                                                 
     1     -5.4423304     23  3.100                                                                 
     2     -1.3605826     23  3.100                                                                 
     3     -1.3605826     23  3.100                                                                 
  local pseudopotential read in
  partial core-charges read in
  partial kinetic energy density read in
  atomic valenz-charges read in
  non local Contribution for L=            0  read in
    real space projection operators read in
  non local Contribution for L=            0  read in
    real space projection operators read in
  non local Contribution for L=            1  read in
    real space projection operators read in
  non local Contribution for L=            1  read in
    real space projection operators read in
  non local Contribution for L=            2  read in
    real space projection operators read in
    PAW grid and wavefunctions read in
 
   number of l-projection  operators is LMAX  =            5
   number of lm-projection operators is LMMAX =           13
 
 Optimization of the real space projectors (new method)

 maximal supplied QI-value         = 34.20
 optimisation between [QCUT,QGAM] = [ 11.29, 22.57] = [ 35.68,142.71] Ry 
 Optimized for a Real-space Cutoff    1.16 Angstroem

   l    n(q)    QCUT    max X(q) W(low)/X(q) W(high)/X(q)  e(spline) 
   0      8    11.287    19.460    0.40E-03    0.73E-03    0.16E-06
   0      8    11.287    12.209    0.38E-03    0.70E-03    0.15E-06
   1      7    11.287     4.655    0.22E-03    0.25E-04    0.22E-06
 Optimization of the real space projectors (new method)

 maximal supplied QI-value         = 25.13
 optimisation between [QCUT,QGAM] = [ 11.31, 22.87] = [ 35.82,146.48] Ry 
 Optimized for a Real-space Cutoff    1.00 Angstroem

   l    n(q)    QCUT    max X(q) W(low)/X(q) W(high)/X(q)  e(spline) 
   0      7    11.310   115.676    0.43E-03    0.13E-02    0.19E-06
   0      7    11.310    87.132    0.43E-03    0.13E-02    0.18E-06
   1      6    11.310     4.429    0.42E-03    0.74E-03    0.11E-06
   1      6    11.310     2.733    0.34E-03    0.55E-03    0.92E-07
 Optimization of the real space projectors (new method)

 maximal supplied QI-value         = 25.13
 optimisation between [QCUT,QGAM] = [ 11.31, 22.87] = [ 35.82,146.48] Ry 
 Optimized for a Real-space Cutoff    1.27 Angstroem

   l    n(q)    QCUT    max X(q) W(low)/X(q) W(high)/X(q)  e(spline) 
   0      9    11.310    79.467    0.75E-04    0.16E-03    0.36E-06
   0      9    11.310    66.151    0.74E-04    0.16E-03    0.36E-06
   1      8    11.310    17.416    0.35E-03    0.12E-03    0.95E-06
   1      8    11.310    12.382    0.37E-03    0.13E-03    0.98E-06
 Optimization of the real space projectors (new method)

 maximal supplied QI-value         = 16.25
 optimisation between [QCUT,QGAM] = [ 11.38, 22.75] = [ 36.24,144.96] Ry 
 Optimized for a Real-space Cutoff    1.31 Angstroem

   l    n(q)    QCUT    max X(q) W(low)/X(q) W(high)/X(q)  e(spline) 
   0      9    11.376   194.483    0.24E-03    0.23E-03    0.67E-07
   0      9    11.376   190.334    0.23E-03    0.22E-03    0.65E-07
   1      8    11.376   116.687    0.25E-03    0.63E-04    0.16E-06
   1      8    11.376    88.696    0.25E-03    0.61E-04    0.16E-06
   2      8    11.376     4.877    0.17E-03    0.14E-03    0.29E-07
 Optimization of the real space projectors (new method)

 maximal supplied QI-value         = 12.09
 optimisation between [QCUT,QGAM] = [ 11.37, 22.86] = [ 36.19,146.31] Ry 
 Optimized for a Real-space Cutoff    1.66 Angstroem

   l    n(q)    QCUT    max X(q) W(low)/X(q) W(high)/X(q)  e(spline) 
   0     11    11.369   135.111    0.12E-03    0.69E-04    0.19E-05
   0     11    11.369   146.850    0.11E-03    0.65E-04    0.18E-05
   1     11    11.369   148.016    0.17E-03    0.32E-03    0.89E-06
   1     11    11.369   122.989    0.17E-03    0.32E-03    0.91E-06
   2     10    11.369     8.916    0.12E-03    0.45E-04    0.33E-06
  PAW_PBE H 15Jun2001                   :
 energy of atom  1       EATOM=  -12.4884
 kinetic energy error for atom=    0.0020 (will be added to EATOM!!)
  PAW_PBE C 08Apr2002                   :
 energy of atom  2       EATOM= -147.1560
 kinetic energy error for atom=    0.0076 (will be added to EATOM!!)
  PAW_PBE N 08Apr2002                   :
 energy of atom  3       EATOM= -264.5486
 kinetic energy error for atom=    0.0138 (will be added to EATOM!!)
  PAW_PBE I 08Apr2002                   :
 energy of atom  4       EATOM= -315.8678
 kinetic energy error for atom=    0.0009 (will be added to EATOM!!)
  PAW_PBE Pb 08Apr2002                  :
 energy of atom  5       EATOM=  -96.9868
 kinetic energy error for atom=    0.0000 (will be added to EATOM!!)
 
 
 POSCAR:  H  C  N  I Pb
  positions in cartesian coordinates
  No initial velocities read in
 exchange correlation table for  LEXCH =        8
   RHO(1)=    0.500       N(1)  =     2000
   RHO(2)=  100.500       N(2)  =     4000
 


--------------------------------------------------------------------------------------------------------


 ion  position               nearest neighbor table
   1  0.445  0.298  0.583- 187 1.08
   2  0.443  0.825  0.579- 188 1.04
   3  0.959  0.271  0.587- 189 1.02
   4  0.970  0.806  0.586- 190 1.04
   5  0.299  0.045  0.584- 194 1.02
   6  0.300  0.548  0.583- 195 1.03
   7  0.783  0.065  0.581- 196 1.02
   8  0.095  0.184  0.554- 183 0.97
   9  0.078  0.674  0.555- 184 1.03
  10  0.588  0.180  0.556- 185 1.02
  11  0.551  0.661  0.566- 186 1.01
  12  0.343  0.063  0.559- 194 1.05
  13  0.321  0.590  0.558- 195 1.04
  14  0.829  0.082  0.557- 196 1.04
  15  0.072  0.197  0.580- 183 1.01
  16  0.050  0.695  0.581- 184 1.04
  17  0.564  0.217  0.582- 185 1.07
  18  0.518  0.711  0.587- 186 1.02
  19  0.207  0.438  0.581- 191 1.02
  20  0.183  0.960  0.581- 192 1.03
  21  0.696  0.951  0.581- 193 1.02
  22  0.397  0.303  0.558- 187 1.03
  23  0.432  0.847  0.552- 188 1.04
  24  0.910  0.305  0.565- 189 1.02
  25  0.947  0.856  0.563- 190 1.02
  26  0.175  0.417  0.555- 191 1.05
  27  0.160  0.930  0.556- 192 1.04
  28  0.692  0.902  0.557- 193 1.06
  29  0.485  0.229  0.539- 146 1.09
  30  0.504  0.741  0.541- 147 1.10
  31  0.993  0.253  0.541- 144 1.10
  32  0.012  0.778  0.541- 145 1.10
  33  0.246  0.512  0.539- 148 1.11
  34  0.259  0.992  0.539- 149 1.11
  35  0.775  0.982  0.539- 150 1.11
  36  0.451  0.306  0.675- 205 1.03
  37  0.442  0.800  0.676- 206 1.03
  38  0.943  0.299  0.674- 207 1.01
  39  0.947  0.806  0.675- 208 1.04
  40  0.297  0.045  0.676- 209 1.03
  41  0.295  0.554  0.675- 210 1.02
  42  0.809  0.055  0.673- 211 1.04
  43  0.826  0.539  0.675- 212 1.04
  44  0.084  0.171  0.650- 197 1.02
  45  0.084  0.677  0.652- 198 1.03
  46  0.574  0.166  0.650- 199 1.03
  47  0.573  0.670  0.651- 200 1.04
  48  0.183  0.413  0.648- 201 1.02
  49  0.169  0.920  0.646- 202 1.06
  50  0.660  0.445  0.652- 203 1.01
  51  0.668  0.925  0.652- 204 1.06
  52  0.053  0.199  0.675- 197 1.04
  53  0.046  0.704  0.677- 198 1.02
  54  0.551  0.202  0.676- 199 1.04
  55  0.546  0.699  0.676- 200 0.98
  56  0.206  0.444  0.674- 201 1.03
  57  0.194  0.943  0.673- 202 1.03
  58  0.705  0.448  0.676- 203 1.01
  59  0.703  0.956  0.676- 204 1.02
  60  0.419  0.328  0.649- 205 1.02
  61  0.415  0.829  0.651- 206 1.02
  62  0.919  0.322  0.649- 207 1.04
  63  0.924  0.834  0.649- 208 1.02
  64  0.331  0.077  0.651- 209 1.02
  65  0.324  0.586  0.650- 210 0.99
  66  0.831  0.079  0.647- 211 1.01
  67  0.841  0.575  0.650- 212 1.04
  68  0.002  0.247  0.631- 151 1.10
  69  0.010  0.756  0.633- 152 1.10
  70  0.491  0.241  0.632- 153 1.10
  71  0.496  0.748  0.633- 154 1.10
  72  0.251  1.000  0.631- 156 1.09
  73  0.257  0.502  0.631- 155 1.10
  74  0.744  0.997  0.632- 158 1.09
  75  0.737  0.521  0.634- 157 1.13
  76  0.449  0.301  0.769- 221 1.02
  77  0.449  0.801  0.769- 222 1.02
  78  0.949  0.301  0.769- 223 1.02
  79  0.949  0.801  0.769- 224 1.02
  80  0.301  0.051  0.769- 225 1.02
  81  0.301  0.551  0.769- 226 1.02
  82  0.801  0.051  0.769- 227 1.02
  83  0.801  0.551  0.769- 228 1.02
  84  0.079  0.171  0.743- 213 1.02
  85  0.079  0.671  0.743- 214 1.02
  86  0.579  0.171  0.743- 215 1.02
  87  0.579  0.671  0.743- 216 1.02
  88  0.171  0.421  0.743- 217 1.02
  89  0.171  0.921  0.743- 218 1.02
  90  0.671  0.421  0.743- 219 1.02
  91  0.671  0.921  0.743- 220 1.02
  92  0.051  0.199  0.769- 213 1.02
  93  0.051  0.699  0.769- 214 1.02
  94  0.551  0.199  0.769- 215 1.02
  95  0.551  0.699  0.769- 216 1.02
  96  0.199  0.449  0.769- 217 1.02
  97  0.199  0.949  0.769- 218 1.02
  98  0.699  0.449  0.769- 219 1.02
  99  0.699  0.949  0.769- 220 1.02
 100  0.421  0.329  0.743- 221 1.02
 101  0.421  0.829  0.743- 222 1.02
 102  0.921  0.329  0.743- 223 1.02
 103  0.921  0.829  0.743- 224 1.02
 104  0.329  0.079  0.743- 225 1.02
 105  0.329  0.579  0.743- 226 1.02
 106  0.829  0.079  0.743- 227 1.02
 107  0.829  0.579  0.743- 228 1.02
 108  0.000  0.250  0.726- 161 1.09
 109  0.000  0.750  0.726- 162 1.09
 110  0.500  0.250  0.726- 159 1.09
 111  0.500  0.750  0.726- 160 1.09
 112  0.250  0.000  0.726- 163 1.09
 113  0.250  0.500  0.726- 164 1.09
 114  0.750  0.000  0.726- 165 1.09
 115  0.750  0.500  0.726- 166 1.09
 116  0.718  0.454  0.548- 173 1.10
 117  0.741  0.517  0.526- 173 1.11
 118  0.656  0.551  0.562- 174 1.07
 119  0.689  0.642  0.564- 174 1.10
 120  0.839  0.516  0.581- 175 1.11
 121  0.776  0.585  0.588- 175 1.10
 122  0.877  0.559  0.545- 176 1.09
 123  0.817  0.621  0.530- 176 1.11
 124  0.873  0.482  0.528- 177 1.11
 125  0.864  0.454  0.555- 177 1.10
 126  0.887  0.353  0.531- 178 1.11
 127  0.794  0.341  0.541- 178 1.12
 128  0.621  0.560  0.527- 179 1.09
 129  0.700  0.614  0.519- 179 1.11
 130  0.628  0.657  0.533- 179 1.08
 131  0.724  0.468  0.603- 180 1.10
 132  0.743  0.418  0.579- 180 1.11
 133  0.669  0.483  0.581- 180 1.11
 134  0.841  0.678  0.574- 181 1.09
 135  0.876  0.713  0.550- 181 1.11
 136  0.925  0.638  0.565- 181 1.11
 137  0.842  0.398  0.497- 182 1.11
 138  0.803  0.310  0.503- 182 1.09
 139  0.675  0.320  0.525- 168 1.10
 140  0.755  0.489  0.481- 169 1.10
 141  0.546  0.368  0.522- 170 1.11
 142  0.626  0.539  0.478- 171 1.10
 143  0.523  0.484  0.498- 172 1.10
 144  0.003  0.244  0.558-  31 1.10 189 1.30 183 1.32
 145  0.013  0.765  0.558-  32 1.10 184 1.29 190 1.31
 146  0.493  0.241  0.556-  29 1.09 185 1.33 187 1.34
 147  0.494  0.753  0.558-  30 1.10 186 1.32 188 1.33
 148  0.248  0.504  0.556-  33 1.11 195 1.31 191 1.32
 149  0.251  0.996  0.557-  34 1.11 192 1.32 194 1.32
 150  0.760  0.992  0.556-  35 1.11 196 1.32 193 1.32
 151  0.000  0.247  0.649-  68 1.10 207 1.29 197 1.33
 152  0.003  0.757  0.650-  69 1.10 208 1.29 198 1.34
 153  0.496  0.247  0.649-  70 1.10 205 1.32 199 1.33
 154  0.495  0.750  0.650-  71 1.10 200 1.31 206 1.33
 155  0.253  0.499  0.649-  73 1.10 201 1.31 210 1.35
 156  0.250  0.999  0.648-  72 1.09 202 1.32 209 1.33
 157  0.750  0.509  0.651-  75 1.13 203 1.30 212 1.33
 158  0.750  0.002  0.649-  74 1.09 204 1.32 211 1.33
 159  0.500  0.250  0.743- 110 1.09 221 1.31 215 1.31
 160  0.500  0.750  0.743- 111 1.09 222 1.31 216 1.31
 161  1.000  0.250  0.743- 108 1.09 223 1.31 213 1.31
 162  1.000  0.750  0.743- 109 1.09 224 1.31 214 1.31
 163  0.250  0.000  0.743- 112 1.09 225 1.31 218 1.31
 164  0.250  0.500  0.743- 113 1.09 226 1.31 217 1.31
 165  0.750  0.000  0.743- 114 1.09 227 1.31 220 1.31
 166  0.750  0.500  0.743- 115 1.09 228 1.31 219 1.31
 167  0.723  0.400  0.503- 169 1.38 168 1.42 182 1.57
 168  0.664  0.367  0.514- 139 1.10 170 1.41 167 1.42
 169  0.709  0.461  0.490- 140 1.10 167 1.38 171 1.39
 170  0.591  0.395  0.513- 141 1.11 168 1.41 172 1.42
 171  0.638  0.490  0.488- 142 1.10 169 1.39 172 1.41
 172  0.578  0.458  0.500- 143 1.10 171 1.41 170 1.42
 173  0.761  0.491  0.541- 116 1.10 117 1.11 229 1.51 177 1.53
 174  0.689  0.591  0.554- 118 1.07 119 1.10 229 1.50 179 1.52
 175  0.781  0.534  0.579- 121 1.10 120 1.11 180 1.53 229 1.58
 176  0.835  0.602  0.546- 122 1.09 123 1.11 181 1.51 229 1.58
 177  0.836  0.452  0.540- 125 1.10 124 1.11 178 1.49 173 1.53
 178  0.830  0.376  0.531- 126 1.11 127 1.12 177 1.49 182 1.53
 179  0.657  0.605  0.532- 130 1.08 128 1.09 129 1.11 174 1.52
 180  0.727  0.473  0.586- 131 1.10 133 1.11 132 1.11 175 1.53
 181  0.871  0.661  0.560- 134 1.09 135 1.11 136 1.11 176 1.51
 182  0.803  0.369  0.508- 138 1.09 137 1.11 178 1.53 167 1.57
 183  0.061  0.206  0.564-   8 0.97  15 1.01 144 1.32
 184  0.048  0.708  0.565-   9 1.03  16 1.04 145 1.29
 185  0.551  0.209  0.565-  10 1.02  17 1.07 146 1.33
 186  0.525  0.707  0.571-  11 1.01  18 1.02 147 1.32
 187  0.442  0.284  0.566-  22 1.03   1 1.08 146 1.34
 188  0.454  0.812  0.564-   2 1.04  23 1.04 147 1.33
 189  0.955  0.276  0.571-   3 1.02  24 1.02 144 1.30
 190  0.977  0.814  0.569-  25 1.02   4 1.04 145 1.31
 191  0.209  0.451  0.565-  19 1.02  26 1.05 148 1.32
 192  0.195  0.961  0.565-  20 1.03  27 1.04 149 1.32
 193  0.713  0.947  0.566-  21 1.02  28 1.06 150 1.32
 194  0.300  0.037  0.567-   5 1.02  12 1.05 149 1.32
 195  0.291  0.550  0.567-   6 1.03  13 1.04 148 1.31
 196  0.792  0.049  0.566-   7 1.02  14 1.04 150 1.32
 197  0.049  0.203  0.659-  44 1.02  52 1.04 151 1.33
 198  0.048  0.709  0.661-  53 1.02  45 1.03 152 1.34
 199  0.543  0.202  0.659-  46 1.03  54 1.04 153 1.33
 200  0.540  0.705  0.660-  55 0.98  47 1.04 154 1.31
 201  0.213  0.448  0.658-  48 1.02  56 1.03 155 1.31
 202  0.203  0.953  0.657-  57 1.03  49 1.06 156 1.32
 203  0.703  0.466  0.660-  50 1.01  58 1.01 157 1.30
 204  0.705  0.960  0.660-  59 1.02  51 1.06 158 1.32
 205  0.453  0.297  0.658-  60 1.02  36 1.03 153 1.32
 206  0.448  0.796  0.660-  61 1.02  37 1.03 154 1.33
 207  0.953  0.290  0.658-  38 1.01  62 1.04 151 1.29
 208  0.956  0.801  0.659-  63 1.02  39 1.04 152 1.29
 209  0.296  0.043  0.659-  64 1.02  40 1.03 156 1.33
 210  0.293  0.552  0.659-  65 0.99  41 1.02 155 1.35
 211  0.800  0.048  0.657-  66 1.01  42 1.04 158 1.33
 212  0.808  0.542  0.660-  67 1.04  43 1.04 157 1.33
 213  0.046  0.204  0.753-  92 1.02  84 1.02 161 1.31
 214  0.046  0.704  0.753-  93 1.02  85 1.02 162 1.31
 215  0.546  0.204  0.753-  94 1.02  86 1.02 159 1.31
 216  0.546  0.704  0.753-  95 1.02  87 1.02 160 1.31
 217  0.204  0.454  0.753-  96 1.02  88 1.02 164 1.31
 218  0.204  0.954  0.753-  97 1.02  89 1.02 163 1.31
 219  0.704  0.454  0.753-  98 1.02  90 1.02 166 1.31
 220  0.704  0.954  0.753-  99 1.02  91 1.02 165 1.31
 221  0.454  0.296  0.753-  76 1.02 100 1.02 159 1.31
 222  0.454  0.796  0.753-  77 1.02 101 1.02 160 1.31
 223  0.954  0.296  0.753-  78 1.02 102 1.02 161 1.31
 224  0.954  0.796  0.753-  79 1.02 103 1.02 162 1.31
 225  0.296  0.046  0.753-  80 1.02 104 1.02 163 1.31
 226  0.296  0.546  0.753-  81 1.02 105 1.02 164 1.31
 227  0.796  0.046  0.753-  82 1.02 106 1.02 165 1.31
 228  0.796  0.546  0.753-  83 1.02 107 1.02 166 1.31
 229  0.766  0.559  0.555- 174 1.50 173 1.51 176 1.58 175 1.58
 230  0.498  0.012  0.552- 304 3.12
 231  0.486  0.515  0.555- 305 3.14
 232  0.997  0.003  0.552- 302 3.21
 233  0.020  0.512  0.557- 303 3.13
 234  0.252  0.246  0.551- 306 3.27
 235  0.251  0.754  0.552- 307 3.16
 236  0.732  0.229  0.558- 308 3.06
 237  0.730  0.771  0.547- 309 3.67
 238  0.006  0.002  0.654- 310 3.17 302 3.18
 239  0.012  0.503  0.656- 311 3.03 303 3.14
 240  0.500  0.003  0.655- 312 3.13 304 3.30
 241  0.502  0.498  0.656- 313 3.08 305 3.16
 242  0.250  0.244  0.655- 314 3.12 306 3.23
 243  0.247  0.752  0.655- 315 3.15 307 3.24
 244  0.744  0.253  0.656- 316 3.04 308 3.13
 245  0.751  0.755  0.654- 309 3.05 317 3.17
 246  0.143  0.106  0.607- 302 3.24 306 3.27
 247  0.149  0.608  0.609- 307 3.14 303 3.24
 248  0.643  0.103  0.610- 308 3.22 304 3.23
 249  0.624  0.627  0.613- 305 3.30 309 3.30
 250  0.355  0.393  0.608- 306 3.19 305 3.21
 251  0.358  0.895  0.609- 304 3.23 307 3.33
 252  0.874  0.377  0.612- 303 3.29 308 3.30
 253  0.854  0.896  0.609- 309 3.13 302 3.25
 254  0.111  0.355  0.609- 306 3.20 303 3.32
 255  0.114  0.865  0.610- 307 3.23 302 3.26
 256  0.593  0.345  0.607- 308 3.20 305 3.26
 257  0.603  0.861  0.610- 309 3.13 304 3.28
 258  0.395  0.141  0.609- 304 3.09 306 3.27
 259  0.391  0.641  0.611- 305 3.24 307 3.28
 260  0.890  0.140  0.609- 302 3.20 308 3.32
 261  0.911  0.647  0.613- 303 3.11 309 3.70
 262  0.000  0.000  0.755- 310 3.13 318 3.27
 263  0.000  0.500  0.755- 311 3.13 319 3.27
 264  0.500  0.000  0.755- 312 3.13 320 3.27
 265  0.500  0.500  0.755- 313 3.13 321 3.27
 266  0.250  0.250  0.755- 314 3.13 322 3.27
 267  0.250  0.750  0.755- 315 3.13 323 3.27
 268  0.750  0.250  0.755- 316 3.13 324 3.27
 269  0.750  0.750  0.755- 317 3.13 325 3.27
 270  0.136  0.114  0.705- 310 3.20 314 3.20
 271  0.136  0.614  0.705- 311 3.20 315 3.20
 272  0.636  0.114  0.705- 312 3.20 316 3.20
 273  0.636  0.614  0.705- 313 3.20 317 3.20
 274  0.364  0.386  0.705- 313 3.20 314 3.20
 275  0.364  0.886  0.705- 312 3.20 315 3.20
 276  0.864  0.386  0.705- 311 3.20 316 3.20
 277  0.864  0.886  0.705- 310 3.20 317 3.20
 278  0.114  0.364  0.705- 314 3.21 311 3.21
 279  0.114  0.864  0.705- 315 3.21 310 3.21
 280  0.614  0.364  0.705- 316 3.21 313 3.21
 281  0.614  0.864  0.705- 317 3.21 312 3.21
 282  0.386  0.136  0.705- 314 3.21 312 3.21
 283  0.386  0.636  0.705- 315 3.21 313 3.21
 284  0.886  0.136  0.705- 316 3.21 310 3.21
 285  0.886  0.636  0.705- 317 3.21 311 3.21
 286  0.135  0.115  0.801- 318 3.22 322 3.22
 287  0.135  0.615  0.801- 319 3.22 323 3.22
 288  0.635  0.115  0.801- 320 3.22 324 3.22
 289  0.635  0.615  0.801- 321 3.22 325 3.22
 290  0.365  0.385  0.801- 321 3.22 322 3.22
 291  0.365  0.885  0.801- 320 3.22 323 3.22
 292  0.865  0.385  0.801- 319 3.22 324 3.22
 293  0.865  0.885  0.801- 318 3.22 325 3.22
 294  0.115  0.365  0.801- 319 3.23 322 3.23
 295  0.115  0.865  0.801- 318 3.23 323 3.23
 296  0.615  0.365  0.801- 321 3.23 324 3.23
 297  0.615  0.865  0.801- 320 3.23 325 3.23
 298  0.385  0.135  0.801- 320 3.23 322 3.23
 299  0.385  0.635  0.801- 321 3.23 323 3.23
 300  0.885  0.135  0.801- 318 3.23 324 3.23
 301  0.885  0.635  0.801- 319 3.23 325 3.23
 302  0.999  0.001  0.603- 238 3.18 260 3.20 232 3.21 246 3.24 253 3.25 255 3.26
 303  0.003  0.504  0.606- 261 3.11 233 3.13 239 3.14 247 3.24 252 3.29 254 3.32
 304  0.496  0.005  0.602- 258 3.09 230 3.12 251 3.23 248 3.23 257 3.28 240 3.30
 305  0.498  0.498  0.605- 231 3.14 241 3.16 250 3.21 259 3.24 256 3.26 249 3.30
 306  0.252  0.251  0.603- 250 3.19 254 3.20 242 3.23 234 3.27 246 3.27 258 3.27
 307  0.248  0.749  0.603- 247 3.14 235 3.16 255 3.23 243 3.24 259 3.28 251 3.33
 308  0.743  0.251  0.606- 236 3.06 244 3.13 256 3.20 248 3.22 252 3.30 260 3.32
 309  0.744  0.762  0.605- 245 3.05 257 3.13 253 3.13 249 3.30 237 3.67 261 3.70
 310  0.000  0.000  0.705- 262 3.13 238 3.17 270 3.20 277 3.20 279 3.21 284 3.21
 311  0.000  0.500  0.705- 239 3.03 263 3.13 271 3.20 276 3.20 278 3.21 285 3.21
 312  0.500  0.000  0.705- 264 3.13 240 3.13 272 3.20 275 3.20 281 3.21 282 3.21
 313  0.500  0.500  0.705- 241 3.08 265 3.13 273 3.20 274 3.20 280 3.21 283 3.21
 314  0.250  0.250  0.705- 242 3.12 266 3.13 270 3.20 274 3.20 282 3.21 278 3.21
 315  0.250  0.750  0.705- 267 3.13 243 3.15 271 3.20 275 3.20 283 3.21 279 3.21
 316  0.750  0.250  0.705- 244 3.04 268 3.13 272 3.20 276 3.20 284 3.21 280 3.21
 317  0.750  0.750  0.705- 269 3.13 245 3.17 273 3.20 277 3.20 285 3.21 281 3.21
 318  0.000  0.000  0.807- 286 3.22 293 3.22 300 3.23 295 3.23 262 3.27
 319  0.000  0.500  0.807- 287 3.22 292 3.22 301 3.23 294 3.23 263 3.27
 320  0.500  0.000  0.807- 288 3.22 291 3.22 298 3.23 297 3.23 264 3.27
 321  0.500  0.500  0.807- 289 3.22 290 3.22 299 3.23 296 3.23 265 3.27
 322  0.250  0.250  0.807- 290 3.22 286 3.22 294 3.23 298 3.23 266 3.27
 323  0.250  0.750  0.807- 291 3.22 287 3.22 299 3.23 295 3.23 267 3.27
 324  0.750  0.250  0.807- 292 3.22 288 3.22 296 3.23 300 3.23 268 3.27
 325  0.750  0.750  0.807- 293 3.22 289 3.22 297 3.23 301 3.23 269 3.27
 

IMPORTANT INFORMATION: All symmetrisations will be switched off!
NOSYMM: (Re-)initialisation of all symmetry stuff for point group C_1.


----------------------------------------------------------------------------------------

                                     Primitive cell                                     

  volume of cell :   20385.2105

  direct lattice vectors                    reciprocal lattice vectors
    18.060800552  0.000000000  0.000000000     0.055368531  0.000015077 -0.000000000
    -0.004918649 18.062799454  0.000000000     0.000000000  0.055362404  0.000000000
     0.000000000  0.000000000 62.487499237     0.000000000 -0.000000000  0.016003201

  length of vectors
    18.060800552 18.062800123 62.487499237     0.055368533  0.055362404  0.016003201

  position of ions in fractional coordinates (direct lattice)
     0.445138640  0.298371539  0.582650656
     0.443179583  0.824614373  0.579439076
     0.959177420  0.271251181  0.586703407
     0.969998838  0.806258249  0.585864861
     0.299244698  0.045487458  0.583572898
     0.299908975  0.548466707  0.582890145
     0.782801452  0.065029578  0.581347539
     0.095456935  0.183629592  0.554317169
     0.078071375  0.674198259  0.555206873
     0.588261762  0.180321195  0.555938038
     0.550827179  0.661029667  0.565544451
     0.342821701  0.062666267  0.558965010
     0.320747386  0.590320238  0.558291292
     0.828578556  0.082360707  0.557181939
     0.071953920  0.197014813  0.580139778
     0.050419369  0.694544698  0.581359138
     0.564176269  0.216965547  0.581511451
     0.518177659  0.710937804  0.587316201
     0.206975360  0.438357441  0.581159940
     0.182899985  0.960102390  0.581483613
     0.695691013  0.951389066  0.581136315
     0.397180287  0.303289619  0.557798029
     0.431752935  0.847248749  0.552211890
     0.910116523  0.304743562  0.565319553
     0.946824022  0.855992365  0.563145412
     0.175442809  0.417360745  0.555406498
     0.159667366  0.930211112  0.555690491
     0.691864589  0.901892253  0.556742031
     0.484605355  0.229434450  0.538824446
     0.503725415  0.740920933  0.540511857
     0.992796309  0.252757703  0.540651960
     0.011959126  0.777765916  0.540506362
     0.245834906  0.512340037  0.538583065
     0.258596247  0.991812564  0.539105203
     0.774988234  0.981528097  0.539351712
     0.451279386  0.305583574  0.674833034
     0.442347039  0.799539741  0.676219053
     0.943360501  0.298857859  0.674185505
     0.947023856  0.805819342  0.675305785
     0.297478278  0.044966955  0.675613341
     0.294958690  0.554069652  0.675175998
     0.808875353  0.055281495  0.673183656
     0.826398481  0.538866448  0.675442592
     0.083757718  0.170767860  0.650073077
     0.083985839  0.677439088  0.651821534
     0.573600554  0.166410532  0.649799768
     0.573223282  0.670363087  0.650973098
     0.182597270  0.412863886  0.648498543
     0.169480328  0.920434020  0.646010863
     0.660196213  0.445059555  0.651791194
     0.667744681  0.925011119  0.651787043
     0.053387924  0.198619929  0.675383193
     0.045769986  0.703796757  0.676865850
     0.550514688  0.202097265  0.675525067
     0.545650045  0.698606003  0.676003495
     0.205859847  0.444037128  0.674319259
     0.193901104  0.943337228  0.672564575
     0.704866467  0.448301757  0.675922241
     0.702621944  0.956198844  0.676484304
     0.418536600  0.328194612  0.649283551
     0.415037804  0.829084597  0.650699240
     0.918607208  0.322051916  0.648695360
     0.923771352  0.834050696  0.649357052
     0.330562870  0.077161453  0.650961804
     0.323605243  0.586046528  0.650093955
     0.830812172  0.078578148  0.646674997
     0.841484075  0.575285406  0.650072466
     0.001587849  0.246787946  0.631442214
     0.010181077  0.756236016  0.632827074
     0.491474687  0.240535009  0.631838656
     0.496275031  0.748236953  0.632839405
     0.251442675  0.999914721  0.630653848
     0.256607271  0.502039153  0.631165486
     0.744002065  0.996679100  0.631544102
     0.737368358  0.520967499  0.633565197
     0.448745018  0.301283966  0.768889017
     0.448745007  0.801283913  0.768889017
     0.948744965  0.301283966  0.768889017
     0.948745007  0.801283913  0.768889017
     0.301275995  0.051294496  0.768872961
     0.301276011  0.551294499  0.768872961
     0.801275943  0.051294496  0.768872961
     0.801275984  0.551294499  0.768872961
     0.078771004  0.171180501  0.743441971
     0.078771006  0.671180448  0.743441971
     0.578771004  0.171180501  0.743441971
     0.578770992  0.671180448  0.743441971
     0.171199499  0.421174482  0.743421032
     0.171199501  0.921174508  0.743421032
     0.671199512  0.421174482  0.743421032
     0.671199501  0.921174508  0.743421032
     0.051256000  0.198714991  0.768889017
     0.051256002  0.698714925  0.768889017
     0.551256027  0.198714991  0.768889017
     0.551256016  0.698714925  0.768889017
     0.198723491  0.448703970  0.768872046
     0.198723493  0.948703970  0.768872046
     0.698723518  0.448703970  0.768872046
     0.698723507  0.948703970  0.768872046
     0.421231519  0.328817467  0.743441971
     0.421231508  0.828817440  0.743441971
     0.921231466  0.328817467  0.743441971
     0.921231508  0.828817440  0.743441971
     0.328800503  0.078824997  0.743421032
     0.328800492  0.578824964  0.743421032
     0.828800477  0.078824997  0.743421032
     0.828800519  0.578824964  0.743421032
     0.000003500  0.250001478  0.725821992
     0.000003500  0.750001452  0.725821992
     0.500003506  0.250001478  0.725821992
     0.500003495  0.750001452  0.725821992
     0.250000502  0.000000000  0.725803983
     0.250000517  0.500000000  0.725803983
     0.750000502  0.000000000  0.725803983
     0.750000490  0.500000000  0.725803983
     0.718482373  0.454057604  0.547703480
     0.740697797  0.516569820  0.526272131
     0.656016093  0.550802953  0.562413454
     0.688560692  0.642239123  0.563731222
     0.839407986  0.516493422  0.581053657
     0.775833522  0.585138619  0.588407545
     0.876691500  0.559292190  0.544689450
     0.816523906  0.620708009  0.530192959
     0.873211837  0.482454848  0.528418556
     0.863784732  0.453631157  0.555229278
     0.886717260  0.353199129  0.530944880
     0.794009591  0.340954259  0.541089243
     0.620679677  0.560234259  0.527158783
     0.699648221  0.613535810  0.519474995
     0.627680372  0.657182668  0.532515140
     0.723745293  0.467787066  0.603229235
     0.743273108  0.418375385  0.579106795
     0.668623920  0.483242696  0.580814839
     0.840887637  0.678159301  0.574067701
     0.876255197  0.713285718  0.550355928
     0.924945759  0.637824549  0.564640706
     0.841971349  0.398466454  0.496622646
     0.803439697  0.310417441  0.503441759
     0.674721835  0.319999643  0.524579165
     0.754993293  0.488617607  0.481362972
     0.545904517  0.368455791  0.521579725
     0.625863317  0.538790525  0.478027710
     0.523317010  0.483826744  0.498451289
     0.003465435  0.244461627  0.557845157
     0.013202049  0.765479257  0.557815794
     0.492679595  0.241250998  0.555837248
     0.494060416  0.753150941  0.557531740
     0.247743640  0.504261936  0.556191323
     0.251263648  0.996242058  0.556711630
     0.760393250  0.992271019  0.556335700
     0.000436104  0.247146020  0.649082095
     0.003332594  0.756735324  0.650371110
     0.496033840  0.247086755  0.649218780
     0.494916023  0.749581235  0.650464207
     0.253185533  0.499074509  0.648783634
     0.250407275  0.999324213  0.648102101
     0.749519655  0.509089600  0.650991962
     0.750206964  0.001745128  0.648831618
     0.499988984  0.249994984  0.743277021
     0.499989025  0.749994958  0.743277021
     0.999988984  0.249994984  0.743277021
     0.999989025  0.749994958  0.743277021
     0.250000502  0.000001000  0.743255960
     0.250000517  0.500001003  0.743255960
     0.750000502  0.000001000  0.743255960
     0.750000491  0.500001003  0.743255960
     0.723492178  0.400021636  0.502608157
     0.663927808  0.366998574  0.513839835
     0.708928287  0.460562439  0.489695082
     0.591355698  0.395410470  0.512639521
     0.637768326  0.490029893  0.488095702
     0.578305952  0.458483530  0.499505852
     0.761302453  0.491263195  0.541263838
     0.689120837  0.591068065  0.554263142
     0.781066186  0.533723160  0.579107955
     0.834517437  0.602225751  0.546258245
     0.836259265  0.452339303  0.539531375
     0.829829433  0.375959743  0.530651181
     0.657225739  0.605173605  0.532177304
     0.726869442  0.473121798  0.585744964
     0.870958188  0.661438427  0.559665468
     0.803115189  0.369249076  0.507572773
     0.060942822  0.205640215  0.564436564
     0.047692124  0.708328964  0.565196481
     0.550681998  0.208790509  0.565004548
     0.524592859  0.706644401  0.571149515
     0.442489305  0.283745652  0.565915131
     0.454304704  0.811604808  0.563573903
     0.955465041  0.276005772  0.570506747
     0.977078346  0.813737888  0.569439212
     0.208706342  0.450875169  0.565194772
     0.195333586  0.960501643  0.565446837
     0.712953816  0.947134937  0.565680587
     0.299552221  0.036841495  0.567427579
     0.291392143  0.549862942  0.566677490
     0.792130368  0.049160172  0.565832045
     0.048642107  0.202935402  0.658817257
     0.047911816  0.709491200  0.660643550
     0.543332564  0.202301592  0.659053450
     0.540274663  0.704688404  0.660463949
     0.212600909  0.447923778  0.657974376
     0.202521785  0.952792970  0.656577613
     0.702552241  0.465539256  0.660482324
     0.705277916  0.959517404  0.660135941
     0.452562121  0.296585076  0.658487296
     0.447629189  0.795565025  0.659809460
     0.953210045  0.290288105  0.658426371
     0.955789558  0.801030748  0.658935689
     0.295699243  0.043110186  0.659098380
     0.292888555  0.552233084  0.658805170
     0.800154894  0.047698629  0.656942432
     0.808432212  0.541894132  0.659657941
     0.045862501  0.204119496  0.752725994
     0.045862500  0.704119456  0.752725994
     0.545862507  0.204119496  0.752725994
     0.545862496  0.704119456  0.752725994
     0.204119002  0.454101003  0.752704994
     0.204118991  0.954100951  0.752704994
     0.704118976  0.454101003  0.752704994
     0.704118964  0.954100951  0.752704994
     0.454140018  0.295888490  0.752726971
     0.454140007  0.795888516  0.752726971
     0.954140018  0.295888490  0.752726971
     0.954140060  0.795888516  0.752726971
     0.295882492  0.045900498  0.752704994
     0.295882481  0.545900528  0.752704994
     0.795882439  0.045900498  0.752704994
     0.795882481  0.545900528  0.752704994
     0.765583101  0.559017431  0.555380919
     0.497571811  0.011763161  0.552127705
     0.485513755  0.515111231  0.555284220
     0.997217795  0.002641915  0.552030335
     0.020287713  0.512005670  0.556503764
     0.252003553  0.245664226  0.550960174
     0.250645264  0.753860594  0.552204564
     0.732054243  0.229093218  0.557662382
     0.729889211  0.770696831  0.546804497
     0.005544339  0.002055469  0.654185716
     0.012370354  0.502704879  0.656431221
     0.500322301  0.002670845  0.654730808
     0.502013012  0.497843372  0.655625823
     0.249680478  0.244465138  0.654885990
     0.246783165  0.751647262  0.654503528
     0.743781465  0.252660661  0.656224148
     0.751457313  0.755253398  0.654056234
     0.143239736  0.106365401  0.607317211
     0.148789886  0.608040309  0.609163649
     0.643430510  0.103440599  0.609616865
     0.624251108  0.627162422  0.613135940
     0.355170255  0.393036289  0.608407822
     0.358420591  0.894581889  0.609414676
     0.873949314  0.376869870  0.612262414
     0.854118223  0.896179864  0.609421635
     0.110581875  0.355260668  0.608562394
     0.114450102  0.864988988  0.610368480
     0.593321051  0.344821189  0.607420442
     0.603345200  0.861259358  0.610228498
     0.394743976  0.140584298  0.608693768
     0.391481917  0.640768179  0.610824443
     0.889774276  0.139558755  0.608559830
     0.910895196  0.646884054  0.613373720
     0.000000000  0.000000000  0.754927972
     0.000000000  0.500000000  0.754927972
     0.500000000  0.000000000  0.754927972
     0.499999989  0.500000000  0.754927972
     0.250000496  0.250000000  0.754939022
     0.250000511  0.749999974  0.754939022
     0.750000470  0.250000000  0.754939022
     0.750000458  0.749999974  0.754939022
     0.135790500  0.114209997  0.704782994
     0.135790502  0.614209984  0.704782994
     0.635790447  0.114209997  0.704782994
     0.635790488  0.614209984  0.704782994
     0.364209516  0.385789989  0.704782994
     0.364209505  0.885789963  0.704782994
     0.864209542  0.385789989  0.704782994
     0.864209531  0.885789963  0.704782994
     0.114217990  0.364218986  0.704780979
     0.114217992  0.864218986  0.704780979
     0.614218004  0.364218986  0.704780979
     0.614217992  0.864218986  0.704780979
     0.385782012  0.135781489  0.704782017
     0.385782001  0.635781489  0.704782017
     0.885781985  0.135781489  0.704782017
     0.885782027  0.635781489  0.704782017
     0.134667000  0.115332001  0.801256025
     0.134666989  0.615331988  0.801256025
     0.634666987  0.115332001  0.801256025
     0.634666976  0.615331988  0.801256025
     0.365333002  0.384667985  0.801256025
     0.365332990  0.884667959  0.801256025
     0.865332949  0.384667985  0.801256025
     0.865332938  0.884667959  0.801256025
     0.115328503  0.365337004  0.801264999
     0.115328505  0.865336978  0.801264999
     0.615328503  0.365337004  0.801264999
     0.615328492  0.865336978  0.801264999
     0.384671513  0.134662996  0.801264999
     0.384671501  0.634662970  0.801264999
     0.884671486  0.134662996  0.801264999
     0.884671528  0.634662970  0.801264999
     0.998610783  0.000943645  0.603320684
     0.002838636  0.503757243  0.606205538
     0.496465133  0.005092618  0.601956275
     0.498376577  0.497796382  0.605068775
     0.252031483  0.250500733  0.603202984
     0.248137253  0.748913555  0.602678832
     0.743445677  0.250877999  0.606187895
     0.744389148  0.762471319  0.605373524
     0.000000500  0.000000500  0.704828963
     0.000000500  0.500000475  0.704828963
     0.500000475  0.000000500  0.704828963
     0.500000464  0.500000475  0.704828963
     0.249999994  0.249999472  0.704824995
     0.250000010  0.749999498  0.704824995
     0.749999994  0.249999472  0.704824995
     0.749999983  0.749999498  0.704824995
     0.000000000  0.000000000  0.807317968
     0.000000000  0.500000000  0.807317968
     0.500000000  0.000000000  0.807317968
     0.499999989  0.500000000  0.807317968
     0.249999994  0.250000000  0.807317968
     0.250000010  0.749999974  0.807317968
     0.749999994  0.250000000  0.807317968
     0.749999983  0.749999974  0.807317968

  ion indices of the primitive-cell ions
   primitive index   ion index
                 1           1
                 2           2
                 3           3
                 4           4
                 5           5
                 6           6
                 7           7
                 8           8
                 9           9
                10          10
                11          11
                12          12
                13          13
                14          14
                15          15
                16          16
                17          17
                18          18
                19          19
                20          20
                21          21
                22          22
                23          23
                24          24
                25          25
                26          26
                27          27
                28          28
                29          29
                30          30
                31          31
                32          32
                33          33
                34          34
                35          35
                36          36
                37          37
                38          38
                39          39
                40          40
                41          41
                42          42
                43          43
                44          44
                45          45
                46          46
                47          47
                48          48
                49          49
                50          50
                51          51
                52          52
                53          53
                54          54
                55          55
                56          56
                57          57
                58          58
                59          59
                60          60
                61          61
                62          62
                63          63
                64          64
                65          65
                66          66
                67          67
                68          68
                69          69
                70          70
                71          71
                72          72
                73          73
                74          74
                75          75
                76          76
                77          77
                78          78
                79          79
                80          80
                81          81
                82          82
                83          83
                84          84
                85          85
                86          86
                87          87
                88          88
                89          89
                90          90
                91          91
                92          92
                93          93
                94          94
                95          95
                96          96
                97          97
                98          98
                99          99
               100         100
               101         101
               102         102
               103         103
               104         104
               105         105
               106         106
               107         107
               108         108
               109         109
               110         110
               111         111
               112         112
               113         113
               114         114
               115         115
               116         116
               117         117
               118         118
               119         119
               120         120
               121         121
               122         122
               123         123
               124         124
               125         125
               126         126
               127         127
               128         128
               129         129
               130         130
               131         131
               132         132
               133         133
               134         134
               135         135
               136         136
               137         137
               138         138
               139         139
               140         140
               141         141
               142         142
               143         143
               144         144
               145         145
               146         146
               147         147
               148         148
               149         149
               150         150
               151         151
               152         152
               153         153
               154         154
               155         155
               156         156
               157         157
               158         158
               159         159
               160         160
               161         161
               162         162
               163         163
               164         164
               165         165
               166         166
               167         167
               168         168
               169         169
               170         170
               171         171
               172         172
               173         173
               174         174
               175         175
               176         176
               177         177
               178         178
               179         179
               180         180
               181         181
               182         182
               183         183
               184         184
               185         185
               186         186
               187         187
               188         188
               189         189
               190         190
               191         191
               192         192
               193         193
               194         194
               195         195
               196         196
               197         197
               198         198
               199         199
               200         200
               201         201
               202         202
               203         203
               204         204
               205         205
               206         206
               207         207
               208         208
               209         209
               210         210
               211         211
               212         212
               213         213
               214         214
               215         215
               216         216
               217         217
               218         218
               219         219
               220         220
               221         221
               222         222
               223         223
               224         224
               225         225
               226         226
               227         227
               228         228
               229         229
               230         230
               231         231
               232         232
               233         233
               234         234
               235         235
               236         236
               237         237
               238         238
               239         239
               240         240
               241         241
               242         242
               243         243
               244         244
               245         245
               246         246
               247         247
               248         248
               249         249
               250         250
               251         251
               252         252
               253         253
               254         254
               255         255
               256         256
               257         257
               258         258
               259         259
               260         260
               261         261
               262         262
               263         263
               264         264
               265         265
               266         266
               267         267
               268         268
               269         269
               270         270
               271         271
               272         272
               273         273
               274         274
               275         275
               276         276
               277         277
               278         278
               279         279
               280         280
               281         281
               282         282
               283         283
               284         284
               285         285
               286         286
               287         287
               288         288
               289         289
               290         290
               291         291
               292         292
               293         293
               294         294
               295         295
               296         296
               297         297
               298         298
               299         299
               300         300
               301         301
               302         302
               303         303
               304         304
               305         305
               306         306
               307         307
               308         308
               309         309
               310         310
               311         311
               312         312
               313         313
               314         314
               315         315
               316         316
               317         317
               318         318
               319         319
               320         320
               321         321
               322         322
               323         323
               324         324
               325         325

----------------------------------------------------------------------------------------

 
 
 KPOINTS: Automatic Mesh                          

Automatic generation of k-mesh.
 Grid dimensions read from file:
 generate k-points for:    3    3    1

 Generating k-lattice:

  Cartesian coordinates                     Fractional coordinates (reciprocal lattice)
     0.018456177  0.000005026 -0.000000000     0.333333333  0.000000000  0.000000000
     0.000000000  0.018454135  0.000000000     0.000000000  0.333333333  0.000000000
     0.000000000 -0.000000000  0.016003201     0.000000000  0.000000000  1.000000000

  Length of vectors
     0.018456178  0.018454135  0.016003201

  Shift w.r.t. Gamma in fractional coordinates (k-lattice)
     0.000000000  0.000000000  0.000000000

 
 Subroutine IBZKPT returns following result:
 ===========================================
 
 Found      5 irreducible k-points:
 
 Following reciprocal coordinates:
            Coordinates               Weight
  0.000000  0.000000  0.000000      1.000000
  0.333333  0.000000  0.000000      2.000000
  0.000000  0.333333  0.000000      2.000000
  0.333333  0.333333  0.000000      2.000000
 -0.333333  0.333333  0.000000      2.000000
 
 Following cartesian coordinates:
            Coordinates               Weight
  0.000000  0.000000  0.000000      1.000000
  0.018456  0.000005  0.000000      2.000000
  0.000000  0.018454  0.000000      2.000000
  0.018456  0.018459  0.000000      2.000000
 -0.018456  0.018449  0.000000      2.000000
 


--------------------------------------------------------------------------------------------------------




 Dimension of arrays:
   k-points           NKPTS =      5   k-points in BZ     NKDIM =      5   number of bands    NBANDS=    732
   number of dos      NEDOS =    301   number of ions     NIONS =    325
   non local maximal  LDIM  =      5   non local SUM 2l+1 LMDIM =     13
   total plane-waves  NPLWV = ******
   max r-space proj   IRMAX =   3336   max aug-charges    IRDMAX=  19845
   dimension x,y,z NGX =   100 NGY =  100 NGZ =  350
   dimension x,y,z NGXF=   200 NGYF=  200 NGZF=  700
   support grid    NGXF=   200 NGYF=  200 NGZF=  700
   ions per type =             143  39  47  72  24
   NGX,Y,Z   is equivalent  to a cutoff of   9.20,  9.20,  9.31 a.u.
   NGXF,Y,Z  is equivalent  to a cutoff of  18.41, 18.41, 18.62 a.u.

 SYSTEM =  PSC                                     
 POSCAR =   H  C  N  I Pb                          

 Startparameter for this run:
   NWRITE =      2    write-flag & timer
   PREC   = normal    normal or accurate (medium, high low for compatibility)
   ISTART =      0    job   : 0-new  1-cont  2-samecut
   ICHARG =      1    charge: 1-file 2-atom 10-const
   ISPIN  =      1    spin polarized calculation?
   LNONCOLLINEAR =      F non collinear calculations
   LSORBIT =      F    spin-orbit coupling
   INIWAV =      1    electr: 0-lowe 1-rand  2-diag
   LASPH  =      F    aspherical Exc in radial PAW
 Electronic Relaxation 1
   ENCUT  =  500.0 eV  36.75 Ry    6.06 a.u.  32.93 32.93113.93*2*pi/ulx,y,z
   ENINI  =  500.0     initial cutoff
   ENAUG  =  644.9 eV  augmentation charge cutoff
   NELM   =    600;   NELMIN=  2; NELMDL=  0     # of ELM steps 
   EDIFF  = 0.1E-03   stopping-criterion for ELM
   LREAL  =      T    real-space projection
   NLSPLINE    = F    spline interpolate recip. space projectors
   LCOMPAT=      F    compatible to vasp.4.4
   GGA_COMPAT  = F    GGA compatible to vasp.4.4-vasp.4.6
   LMAXPAW     = -100 max onsite density
   LMAXMIX     =    2 max onsite mixed and CHGCAR
   VOSKOWN=      0    Vosko Wilk Nusair interpolation
   ROPT   =   -0.00050  -0.00050  -0.00050  -0.00050
   ROPT   =   -0.00050
 Ionic relaxation
   EDIFFG = 0.1E-02   stopping-criterion for IOM
   NSW    =      0    number of steps for IOM
   NBLOCK =      1;   KBLOCK =      1    inner block; outer block 
   IBRION =     -1    ionic relax: 0-MD 1-quasi-New 2-CG
   NFREE  =      0    steps in history (QN), initial steepest desc. (CG)
   ISIF   =      2    stress and relaxation
   IWAVPR =     10    prediction:  0-non 1-charg 2-wave 3-comb
   ISYM   =      0    0-nonsym 1-usesym 2-fastsym
   LCORR  =      T    Harris-Foulkes like correction to forces

   POTIM  = 0.5000    time-step for ionic-motion
   TEIN   =    0.0    initial temperature
   TEBEG  =    0.0;   TEEND  =   0.0 temperature during run
   SMASS  =  -3.00    Nose mass-parameter (am)
   estimated Nose-frequenzy (Omega)   =  0.10E-29 period in steps = 0.13E+47 mass=  -0.745E-26a.u.
   SCALEE = 1.0000    scale energy and forces
   NPACO  =    256;   APACO  = 16.0  distance and # of slots for P.C.
   PSTRESS=    0.0 pullay stress

  Mass of Ions in am
   POMASS =   1.00 12.01 14.00126.90207.20
  Ionic Valenz
   ZVAL   =   1.00  4.00  5.00  7.00  4.00
  Atomic Wigner-Seitz radii
   RWIGS  =  -1.00 -1.00 -1.00 -1.00 -1.00
  virtual crystal weights 
   VCA    =   1.00  1.00  1.00  1.00  1.00
   NELECT =    1134.0000    total number of electrons
   NUPDOWN=      -1.0000    fix difference up-down

 DOS related values:
   EMIN   =  10.00;   EMAX   =-10.00  energy-range for DOS
   EFERMI =   0.00
   ISMEAR =     0;   SIGMA  =   0.05  broadening in eV -4-tet -1-fermi 0-gaus

 Electronic relaxation 2 (details)
   IALGO  =     38    algorithm
   LDIAG  =      T    sub-space diagonalisation (order eigenvalues)
   LSUBROT=      F    optimize rotation matrix (better conditioning)
   TURBO    =      0    0=normal 1=particle mesh
   IRESTART =      0    0=no restart 2=restart with 2 vectors
   NREBOOT  =      0    no. of reboots
   NMIN     =      0    reboot dimension
   EREF     =   0.00    reference energy to select bands
   IMIX   =      4    mixing-type and parameters
     AMIX     =   0.40;   BMIX     =  0.01
     AMIX_MAG =   1.60;   BMIX_MAG =  0.01
     AMIN     =   0.01
     WC   =   100.;   INIMIX=   1;  MIXPRE=   1;  MAXMIX= -45

 Intra band minimization:
   WEIMIN = 0.0000     energy-eigenvalue tresh-hold
   EBREAK =  0.34E-07  absolut break condition
   DEPER  =   0.30     relativ break condition  

   TIME   =   0.40     timestep for ELM

  volume/ion in A,a.u.               =      62.72       423.28
  Fermi-wavevector in a.u.,A,eV,Ry     =   0.624944  1.180972  5.313816  0.390554
  Thomas-Fermi vector in A             =   1.685677
 
 Write flags
   LWAVE        =      F    write WAVECAR
   LDOWNSAMPLE  =      F    k-point downsampling of WAVECAR
   LCHARG       =      T    write CHGCAR
   LVTOT        =      T    write LOCPOT, total local potential
   LVHAR        =      F    write LOCPOT, Hartree potential only
   LELF         =      F    write electronic localiz. function (ELF)
   LORBIT       =      0    0 simple, 1 ext, 2 COOP (PROOUT), +10 PAW based schemes


 Dipole corrections
   LMONO  =      F    monopole corrections only (constant potential shift)
   LDIPOL =      T    correct potential (dipole corrections)
   IDIPOL =      3    1-x, 2-y, 3-z, 4-all directions 
   EPSILON=  1.0000000 bulk dielectric constant

 Exchange correlation treatment:
   GGA     =    --    GGA type
   LEXCH   =     8    internal setting for exchange type
   VOSKOWN=      0    Vosko Wilk Nusair interpolation
   LHFCALC =     F    Hartree Fock is set to
   LHFONE  =     F    Hartree Fock one center treatment
   AEXX    =    0.0000 exact exchange contribution

 Linear response parameters
   LEPSILON=     F    determine dielectric tensor
   LRPA    =     F    only Hartree local field effects (RPA)
   LNABLA  =     F    use nabla operator in PAW spheres
   LVEL    =     F    velocity operator in full k-point grid
   LINTERFAST=   F  fast interpolation
   KINTER  =     0    interpolate to denser k-point grid
   CSHIFT  =0.1000    complex shift for real part using Kramers Kronig
   OMEGAMAX=  -1.0    maximum frequency
   DEG_THRESHOLD= 0.2000000E-02 threshold for treating states as degnerate
   RTIME   =   -0.100 relaxation time in fs
  (WPLASMAI=    0.000 imaginary part of plasma frequency in eV, 0.658/RTIME)
   DFIELD  = 0.0000000 0.0000000 0.0000000 field for delta impulse in time
 
 Orbital magnetization related:
   ORBITALMAG=     F  switch on orbital magnetization
   LCHIMAG   =     F  perturbation theory with respect to B field
   DQ        =  0.001000  dq finite difference perturbation B field
   LLRAUG    =     F  two centre corrections for induced B field



--------------------------------------------------------------------------------------------------------


 Static calculation
 charge density and potential will be updated during run
 non-spin polarized calculation
 Variant of blocked Davidson
 Davidson routine will perform the subspace rotation
 perform sub-space diagonalisation
    after iterative eigenvector-optimisation
 modified Broyden-mixing scheme, WC =      100.0
 initial mixing is a Kerker type mixing with AMIX =  0.4000 and BMIX =      0.0100
 Hartree-type preconditioning will be used
 using additional bands           165
 real space projection scheme for non local part
[...]
     13.54561      0.00000     45.35368        -0.003093      0.004922      0.011566
     13.54315      9.03140     45.35368        -0.003584      0.002664      0.011975
     12.97413      8.20155     34.22462         0.070110      0.201545     -0.146846
     13.37505      9.33070     32.88543         0.338780     -0.854620      0.115449
     11.84547      9.94904     35.14381        -0.623321     -0.373831      0.258311
     12.43280     11.60064     35.22615         0.170997     -0.087828     -0.000714
     15.15784      9.32932     36.30859        -0.299318      0.020099     -0.384686
     14.00930     10.56924     36.76812        -0.199667     -0.194432      0.066201
     15.83100     10.10238     34.03628        -0.212008      0.138574     -0.135213
     14.74402     11.21172     33.13043         0.077342      0.012856      0.334388
     15.76853      8.71449     33.01955        -0.125037     -0.065174      0.205718
     15.59841      8.19385     34.69489         0.025298     -0.299877     -0.098801
     16.01309      6.37977     33.17742        -0.129919     -0.263371      0.043606
     14.33877      6.15859     33.81131         0.416228      0.243007     -0.301365
     11.20722     10.11940     32.94083        -0.039322     -0.013411     -0.031043
     12.63319     11.08217     32.46069        -0.258130     -0.024361      0.375272
     11.33318     11.87056     33.27554        -0.390609      0.403453      0.024625
     13.06912      8.44954     37.69429         0.257174      0.010339     -0.140064
     13.42205      7.55703     36.18694        -0.101535      0.397441      0.302478
     12.07351      8.72872     36.29367         0.520395     -0.049187      0.131558
     15.18377     12.24946     35.87206        -0.047555     -0.150064     -0.094958
     15.82236     12.88394     34.39037         0.127156     -0.408170      0.121980
     16.70212     11.52090     35.28299        -0.314228      0.481456     -0.007297
     15.20472      7.19742     31.03271        -0.100056     -0.240097      0.194776
     14.50924      5.60701     31.45882         0.050687     -0.187958     -0.170333
     12.18444      5.78009     32.77964        -0.000948      0.146132     -0.207144
     13.63338      8.82580     30.07917        -0.245988     -0.224484      0.088027
      9.85766      6.65534     32.59221         0.357120      0.355370     -0.197309
     11.30094      9.73207     29.87076         0.266405     -0.297257      0.193903
      9.44914      8.73927     31.14697         0.125703     -0.165720      0.048405
      0.06139      4.41566     34.85835         0.057867     -0.035688     -0.531904
      0.23467     13.82670     34.85651        -0.638681      1.237847     -0.911400
      8.89700      4.35767     34.73288        -0.218972      0.116566      1.240494
      8.91942     13.60401     34.83876        -0.207466      0.373044      0.612046
      4.47197      9.10838     34.75500         0.169477      0.012388      0.196700
      4.53312     17.99492     34.78752         0.170412      0.107287      0.217917
     13.72843     17.92319     34.76403        -0.160001     -0.099949      0.214106
      0.00666      4.46415     40.55952         1.255670     -1.110931     -0.030120
      0.05647     13.66876     40.64006         1.754812     -1.586780     -0.626567
      8.95755      4.46308     40.56806         0.060094     -0.212937      0.378532
      8.93489     13.53954     40.64588        -0.537019      0.519575      0.164056
      4.57028      9.01468     40.54087         1.113770      1.550909      0.209750
      4.51764     18.05059     40.49828         0.011013     -0.010276      0.854592
     13.53442      9.19558     40.67886         1.077829      1.060957     -0.804866
     13.54933      0.03152     40.54387         0.091155      0.074108      0.875779
      9.02897      4.51561     46.44552         0.019523     -0.006085      0.043411
      9.02651     13.54701     46.44552         0.003697      0.010873      0.045530
     18.05937      4.51561     46.44552         0.014448      0.002602      0.042226
     18.05691     13.54701     46.44552         0.035656     -0.019184      0.052627
      4.51521      0.00002     46.44421         0.008593      0.007439      0.051877
      4.51275      9.03142     46.44421        -0.004660     -0.001792      0.052622
     13.54561      0.00002     46.44421        -0.000112      0.003631      0.055489
     13.54315      9.03142     46.44421        -0.013692     -0.012639      0.056299
     13.06488      7.22551     31.40673         0.607026     -1.237459      1.396586
     11.98926      6.62902     32.10857        -0.453992      0.190219     -0.009995
     12.80155      8.31905     30.59982         0.585688      0.646241     -0.461752
     10.67841      7.14222     32.03356         0.309246      0.346876     -0.602939
     11.51620      8.85131     30.49988        -0.951413      0.006861     -0.004450
     10.44241      8.28150     31.21287         0.391119     -0.509885      0.219519
     13.74732      8.87359     33.82222         0.342119      0.342791     -0.316031
     12.44317     10.67634     34.63452         0.362414      1.150369      0.030365
     14.10406      9.64053     36.18701        -0.612772      0.539772     -0.529606
     15.06909     10.87788     34.13431        -1.061287      0.063638      0.125731
     15.10129      8.17051     33.71397        -0.464273      0.615787     -0.721104
     14.98553      6.79089     33.15907        -0.110019     -0.896175      0.282283
     11.86705     10.93113     33.25443         0.691479     -0.267450     -0.562877
     13.12552      8.54590     36.60174        -0.089360     -0.255293     -0.132848
     15.72695     11.94743     34.97210         0.049536      0.203206     -0.074708
     14.50309      6.66967     31.71695        -0.928236      0.985793     -1.064235
      1.09966      3.71444     35.27023        -1.916088      1.201548      0.616475
      0.85787     12.79440     35.31771         1.179832     -1.386732      0.403533
      9.94473      3.77134     35.30572        -0.721293      0.769036      1.029202
      9.47109     12.76398     35.68970        -0.212315      0.478202     -0.326763
      7.99032      5.12524     35.36262         1.057554     -0.181831      0.882837
      8.20111     14.65985     35.21632         0.034037     -0.032347     -0.868343
     17.25511      4.98544     35.64954        -0.370700      0.238975      0.425079
     17.64281     14.69838     35.58283        -0.545515     -0.270357      1.559534
      3.76719      8.14407     35.31761        -0.607658     -0.636216     -1.415684
      3.52316     17.34935     35.33336        -0.496408     -0.490033     -0.873562
     12.87186     17.10791     35.34797        -0.298095     -0.465842     -1.208948
      5.40997      0.66546     35.45713         0.663753      0.399350     -1.247416
      5.26007      9.93206     35.41026         0.432996      0.696299     -0.587200
     14.30627      0.88797     35.35743         0.709417      0.437318     -0.786910
      0.87752      3.66558     41.16784        -0.419610      0.382705      0.464709
      0.86184     12.81540     41.28196        -0.713240      0.695130     -0.654168
      9.81203      3.65413     41.18260        -0.498420      0.594998      0.036592
      9.75433     12.72865     41.27074         0.425544     -0.433334     -2.400941
      3.83754      8.09076     41.11517         0.090833      0.260649      0.100717
      3.65302     17.21011     41.02789        -0.700666     -0.713287     -0.936984
     12.68637      8.40894     41.27189        -0.077830     -0.286636      0.116253
     12.73316     17.33157     41.25024        -0.840329     -0.830529     -0.820444
      8.17218      5.35716     41.14722         0.507452     -0.442899      0.311336
      8.08063     14.37013     41.22984         0.590412     -0.524646      0.040695
     17.21431      5.24342     41.14342        -1.374649      1.246566     -0.664480
     17.25838     14.46886     41.17524        -0.896033      0.778819      0.918303
      5.34035      0.77869     41.18541        -0.518592     -0.482239     -0.151350
      5.28709      9.97488     41.16709        -1.992422     -2.674564      0.414274
     14.45120      0.86157     41.05069        -0.582755     -0.517105      0.128588
     14.59827      9.78813     41.22038        -0.060609      0.044016     -0.460951
      0.82731      3.68697     47.03596         0.015949     -0.023712     -0.088877
      0.82485     12.71837     47.03596         0.003019     -0.006608     -0.097119
      9.85771      3.68697     47.03596         0.014756     -0.016132     -0.089690
      9.85525     12.71837     47.03596         0.027573     -0.023717     -0.085136
      3.68432      8.20234     47.03465        -0.007729     -0.010991     -0.073567
      3.68186     17.23373     47.03465        -0.018483     -0.015429     -0.070900
     12.71472      8.20234     47.03465        -0.002403     -0.003183     -0.085530
     12.71226     17.23373     47.03465        -0.006385     -0.017987     -0.074765
      8.20068      5.34457     47.03603        -0.025112      0.024279     -0.091277
      8.19822     14.37597     47.03603        -0.014722      0.011981     -0.097060
     17.23108      5.34457     47.03603        -0.023182      0.019462     -0.099721
     17.22862     14.37597     47.03603        -0.036313      0.028739     -0.093844
      5.34365      0.82909     47.03465         0.003352      0.004318     -0.073565
      5.34119      9.86049     47.03465         0.013768      0.010756     -0.074382
     14.37405      0.82909     47.03465         0.013006      0.004641     -0.076169
     14.37159      9.86049     47.03465         0.015272      0.021192     -0.077915
     13.82429     10.09742     34.70436         1.410935     -1.048892      0.501267
      8.98649      0.21248     34.50108        -0.100716     -0.012422     -0.039616
      8.76623      9.30435     34.69832         0.054448     -0.055694      0.083209
     18.01054      0.04772     34.49500        -0.054600     -0.000117      0.032429
      0.36389      9.24826     34.77453         0.167310     -0.100667     -0.164600
      4.55018      4.43738     34.42812        -0.004559      0.053990      0.161143
      4.52315     13.61683     34.50588        -0.012649     -0.039344      0.036318
     13.22036      4.13806     34.84693         0.200979     -0.229703     -0.106262
     13.17859     13.92094     34.16845        -0.219685      0.909805      0.167239
      0.10013      0.03713     40.87843        -0.080334      0.002736      0.030106
      0.22095      9.08026     41.01875         0.024202     -0.062881     -0.172960
      9.03621      0.04824     40.91249        -0.003598     -0.043118     -0.034937
      9.06431      8.99244     40.96842        -0.029920     -0.048119     -0.104851
      4.50823      4.41572     40.92219         0.023856      0.024058     -0.217428
      4.45340     13.57685     40.89829         0.034868      0.025226      0.009739
     13.43205      4.56376     41.00581         0.026499      0.016565     -0.132465
     13.56821     13.64199     40.87034         0.023381     -0.036033     -0.006079
      2.58650      1.92126     37.94973         0.012639      0.035210      0.007094
      2.68427     10.98291     38.06511        -0.153778     -0.053639     -0.029518
     11.62036      1.86843     38.09343         0.026944      0.087366     -0.031158
     11.27139     11.32831     38.31333         0.106426     -0.121990     -0.013310
      6.41273      7.09934     38.01788         0.018719     -0.018836     -0.038351
      6.46896     16.15865     38.08080         0.037476     -0.147630     -0.102617
     15.78237      6.80732     38.25875         0.006663      0.099245     -0.053528
     15.42165     16.18752     38.08123         0.161808      0.006854     -0.048212
      1.99545      6.41700     38.02754         0.140132     -0.046345     -0.046316
      2.06281     15.62412     38.14040        -0.046189     -0.058299     -0.101140
     10.71416      6.22844     37.95618        -0.036047     -0.016690      0.018624
     10.89266     15.55676     38.13165         0.201381     -0.054353     -0.059340
      7.12870      2.53935     38.03575        -0.215537      0.148823     -0.006220
      7.06733     11.57407     38.16889        -0.161510     -0.023610     -0.044841
     16.06935      2.52082     38.02738        -0.019348     -0.007797      0.045869
     16.44831     11.68454     38.32819        -0.196700      0.147024      0.304808
      0.00000      0.00000     47.17356        -0.003156     -0.002169      0.389961
     -0.00246      9.03140     47.17356        -0.003537      0.000965      0.523572
      9.03040      0.00000     47.17356         0.001335     -0.003482      0.488697
      9.02794      9.03140     47.17356         0.001323      0.000824      0.478974
      4.51398      4.51570     47.17425        -0.000546     -0.001065      0.433475
      4.51152     13.54710     47.17425        -0.000632      0.001287      0.448351
     13.54438      4.51570     47.17425         0.003064      0.001632      0.517526
     13.54192     13.54710     47.17425         0.004507      0.000059      0.278870
      2.45192      2.06295     44.04013        -0.005589     -0.025263      0.007965
      2.44946     11.09435     44.04013         0.046578     -0.013429      0.051347
     11.48232      2.06295     44.04013         0.019106      0.000454      0.004794
     11.47986     11.09435     44.04013         0.039710      0.031034     -0.004202
      6.57602      6.96845     44.04013        -0.009131      0.010200     -0.031304
      6.57356     15.99985     44.04013        -0.039018      0.021451      0.027195
     15.60642      6.96845     44.04013        -0.000062      0.018217     -0.079746
     15.60396     15.99985     44.04013        -0.010173     -0.002280     -0.023616
      2.06108      6.57881     44.04000         0.027540     -0.005460     -0.031183
      2.05862     15.61021     44.04000        -0.010055      0.030589     -0.041719
     11.09148      6.57881     44.04000        -0.010045     -0.003994     -0.009361
     11.08902     15.61021     44.04000         0.033809     -0.043980     -0.018189
      6.96686      2.45259     44.04007        -0.002689      0.005581     -0.004336
      6.96440     11.48399     44.04007         0.017804      0.021179     -0.010091
     15.99726      2.45259     44.04007         0.003382     -0.024616     -0.057643
     15.99481     11.48399     44.04007         0.027518      0.049933     -0.003975
      2.43163      2.08322     50.06849         0.001656     -0.019065      0.021885
      2.42917     11.11462     50.06849         0.012048     -0.005782      0.021849
     11.46203      2.08322     50.06849         0.008520     -0.014125      0.022700
     11.45957     11.11462     50.06849         0.027616      0.006303      0.020952
      6.59631      6.94818     50.06849        -0.010956      0.009245      0.023117
      6.59385     15.97958     50.06849        -0.011834      0.007116      0.022799
     15.62671      6.94818     50.06849        -0.008754      0.011414      0.021812
     15.62425     15.97958     50.06849        -0.018206      0.001509      0.019569
      2.08113      6.59901     50.06905        -0.008090     -0.013212      0.023221
      2.07867     15.63041     50.06905        -0.018540     -0.003838      0.021789
     11.11153      6.59901     50.06905        -0.012327     -0.005972      0.022242
     11.10907     15.63041     50.06905         0.008266     -0.028329      0.021234
      6.94681      2.43239     50.06905         0.008423      0.010163      0.023669
      6.94435     11.46379     50.06905         0.008788      0.011714      0.022965
     15.97721      2.43239     50.06905         0.021292     -0.003384      0.021630
     15.97475     11.46379     50.06905        -0.008647      0.028656      0.020485
     18.03571      0.01704     37.70000        -0.037622      0.129043     -0.004222
      0.04879      9.09927     37.88027         0.083882     -0.114448     -0.012121
      8.96653      0.09199     37.61474         0.125967     -0.095800      0.108452
      8.99863      8.99160     37.80923         0.002953      0.133303     -0.178420
      4.55066      4.52474     37.69265        -0.098146     -0.079486     -0.041598
      4.47787     13.52748     37.65989         0.211540      0.112625      0.019162
     13.42599      4.53156     37.87917         0.038750     -0.033520      0.118018
     13.44051     13.77237     37.82828        -0.140365     -0.133970     -0.249335
      0.00001      0.00001     44.04300         0.045600      0.022774      0.037759
     -0.00245      9.03141     44.04300         0.091789     -0.021476      0.292524
      9.03041      0.00001     44.04300        -0.015522      0.036249     -0.043183
      9.02795      9.03141     44.04300        -0.010204      0.005039      0.227702
      4.51397      4.51569     44.04275         0.014502     -0.015629      0.119629
      4.51151     13.54709     44.04275        -0.016932     -0.014341      0.002355
     13.54437      4.51569     44.04275        -0.043748     -0.046669      0.277697
     13.54191     13.54709     44.04275        -0.072040     -0.011410      0.196880
      0.00000      0.00000     50.44728         0.008229      0.011609     -0.618546
     -0.00246      9.03140     50.44728         0.006863     -0.013560     -0.654035
      9.03040      0.00000     50.44728        -0.007025      0.012612     -0.648550
      9.02794      9.03140     50.44728        -0.008486     -0.012499     -0.643890
      4.51397      4.51570     50.44728         0.004684      0.005381     -0.633424
      4.51151     13.54710     50.44728         0.005458     -0.005737     -0.637468
     13.54437      4.51570     50.44728        -0.005727      0.004716     -0.652689
     13.54191     13.54710     50.44728        -0.004766     -0.006323     -0.587243
 -----------------------------------------------------------------------------------
    total drift:                                0.035080      0.165425      0.207512


--------------------------------------------------------------------------------------------------------



  FREE ENERGIE OF THE ION-ELECTRON SYSTEM (eV)
  ---------------------------------------------------
  free  energy   TOTEN  =     -1571.01747957 eV

  energy  without entropy=    -1571.01747957  energy(sigma->0) =    -1571.01747957
 


--------------------------------------------------------------------------------------------------------


    POTLOK:  cpu time    0.5004: real time    0.5003


--------------------------------------------------------------------------------------------------------


     LOOP+:  cpu time  326.1782: real time  326.8178
 vacuum level on the upper side and lower side of the slab         2.429         1.486
    4ORBIT:  cpu time    0.0000: real time    0.0000

 total amount of memory used by VASP MPI-rank0  8653570. kBytes
=======================================================================

   base      :      30000. kBytes
   nonlr-proj:      53608. kBytes
   fftplans  :     249280. kBytes
   grid      :     701440. kBytes
   one-center:       2636. kBytes
   wavefun   :    7616606. kBytes
 
  
  
 General timing and accounting informations for this job:
 ========================================================
  
                  Total CPU time used (sec):      540.135
                            User time (sec):      431.923
                          System time (sec):      108.212
                         Elapsed time (sec):      540.986
  
                   Maximum memory used (kb):    10308976.
                   Average memory used (kb):          N/A
  
                          Minor page faults:      3757073
                          Major page faults:           13
                 Voluntary context switches:        11052
