<?xml version="1.0" encoding="ISO-8859-1"?>
<modeling>
 <generator>
  <i name="program" type="string">vasp </i>
  <i name="version" type="string">6.2.1  </i>
  <i name="subversion" type="string">16May21 (build Nov 15 2021 14:57:28) complex                          parallel </i>
  <i name="platform" type="string">LinuxPGI </i>
  <i name="date" type="string">2023 07 30 </i>
  <i name="time" type="string">16:50:00 </i>
 </generator>
 <incar>
  <i type="string" name="SYSTEM">PSC</i>
  <i type="int" name="ISTART">     1</i>
  <i type="string" name="PREC">Normal</i>
  <i name="BMIX">      0.01000000</i>
  <i name="AMIN">      0.01000000</i>
  <i type="int" name="ICHARG">     1</i>
  <i type="int" name="NELM">   600</i>
  <i type="int" name="ISYM">     0</i>
  <i name="ENCUT">    500.00000000</i>
  <i type="string" name="LREAL">Auto</i>
  <i type="int" name="ISMEAR">     0</i>
  <i name="SIGMA">      0.05000000</i>
  <i type="logical" name="LWAVE"> F  </i>
  <i type="logical" name="LVTOT"> T  </i>
  <i type="logical" name="GGA_COMPAT"> F  </i>
  <i type="logical" name="LDIPOL"> T  </i>
  <i type="int" name="IDIPOL">     3</i>
  <i type="int" name="IVDW">    12</i>
 </incar>
 <primitive_cell>
  <structure name="primitive_cell" >
   <crystal>
    <varray name="basis" >
     <v>      18.06080055       0.00000000       0.00000000 </v>
     <v>      -0.00491865      18.06279945       0.00000000 </v>
     <v>       0.00000000       0.00000000      62.48749924 </v>
    </varray>
    <i name="volume">  20385.21054034 </i>
    <varray name="rec_basis" >
     <v>       0.05536853       0.00001508      -0.00000000 </v>
     <v>       0.00000000       0.05536240       0.00000000 </v>
     <v>       0.00000000      -0.00000000       0.01600320 </v>
    </varray>
   </crystal>
   <varray name="positions" >
    <v>       0.44513864       0.29837154       0.58265066 </v>
    <v>       0.44317958       0.82461437       0.57943908 </v>
    <v>       0.95917742       0.27125118       0.58670341 </v>
    <v>       0.96999884       0.80625825       0.58586486 </v>
    <v>       0.29924470       0.04548746       0.58357290 </v>
    <v>       0.29990898       0.54846671       0.58289014 </v>
    <v>       0.78280145       0.06502958       0.58134754 </v>
    <v>       0.09545694       0.18362959       0.55431717 </v>
    <v>       0.07807138       0.67419826       0.55520687 </v>
    <v>       0.58826176       0.18032120       0.55593804 </v>
    <v>       0.55082718       0.66102967       0.56554445 </v>
    <v>       0.34282170       0.06266627       0.55896501 </v>
    <v>       0.32074739       0.59032024       0.55829129 </v>
    <v>       0.82857856       0.08236071       0.55718194 </v>
    <v>       0.07195392       0.19701481       0.58013978 </v>
    <v>       0.05041937       0.69454470       0.58135914 </v>
    <v>       0.56417627       0.21696555       0.58151145 </v>
    <v>       0.51817766       0.71093780       0.58731620 </v>
    <v>       0.20697536       0.43835744       0.58115994 </v>
    <v>       0.18289998       0.96010239       0.58148361 </v>
    <v>       0.69569101       0.95138907       0.58113631 </v>
    <v>       0.39718029       0.30328962       0.55779803 </v>
    <v>       0.43175293       0.84724875       0.55221189 </v>
    <v>       0.91011652       0.30474356       0.56531955 </v>
    <v>       0.94682402       0.85599237       0.56314541 </v>
    <v>       0.17544281       0.41736075       0.55540650 </v>
    <v>       0.15966737       0.93021111       0.55569049 </v>
    <v>       0.69186459       0.90189225       0.55674203 </v>
    <v>       0.48460535       0.22943445       0.53882445 </v>
    <v>       0.50372541       0.74092093       0.54051186 </v>
    <v>       0.99279631       0.25275770       0.54065196 </v>
    <v>       0.01195913       0.77776592       0.54050636 </v>
    <v>       0.24583491       0.51234004       0.53858306 </v>
    <v>       0.25859625       0.99181256       0.53910520 </v>
    <v>       0.77498823       0.98152810       0.53935171 </v>
    <v>       0.45127939       0.30558357       0.67483303 </v>
    <v>       0.44234704       0.79953974       0.67621905 </v>
    <v>       0.94336050       0.29885786       0.67418550 </v>
    <v>       0.94702386       0.80581934       0.67530578 </v>
    <v>       0.29747828       0.04496696       0.67561334 </v>
    <v>       0.29495869       0.55406965       0.67517600 </v>
    <v>       0.80887535       0.05528149       0.67318366 </v>
    <v>       0.82639848       0.53886645       0.67544259 </v>
    <v>       0.08375772       0.17076786       0.65007308 </v>
    <v>       0.08398584       0.67743909       0.65182153 </v>
    <v>       0.57360055       0.16641053       0.64979977 </v>
    <v>       0.57322328       0.67036309       0.65097310 </v>
    <v>       0.18259727       0.41286389       0.64849854 </v>
    <v>       0.16948033       0.92043402       0.64601086 </v>
    <v>       0.66019621       0.44505956       0.65179119 </v>
    <v>       0.66774468       0.92501112       0.65178704 </v>
    <v>       0.05338792       0.19861993       0.67538319 </v>
    <v>       0.04576999       0.70379676       0.67686585 </v>
    <v>       0.55051469       0.20209726       0.67552507 </v>
    <v>       0.54565004       0.69860600       0.67600350 </v>
    <v>       0.20585985       0.44403713       0.67431926 </v>
    <v>       0.19390110       0.94333723       0.67256457 </v>
    <v>       0.70486647       0.44830176       0.67592224 </v>
    <v>       0.70262194       0.95619884       0.67648430 </v>
    <v>       0.41853660       0.32819461       0.64928355 </v>
    <v>       0.41503780       0.82908460       0.65069924 </v>
    <v>       0.91860721       0.32205192       0.64869536 </v>
    <v>       0.92377135       0.83405070       0.64935705 </v>
    <v>       0.33056287       0.07716145       0.65096180 </v>
    <v>       0.32360524       0.58604653       0.65009395 </v>
    <v>       0.83081217       0.07857815       0.64667500 </v>
    <v>       0.84148408       0.57528541       0.65007247 </v>
    <v>       0.00158785       0.24678795       0.63144221 </v>
    <v>       0.01018108       0.75623602       0.63282707 </v>
    <v>       0.49147469       0.24053501       0.63183866 </v>
    <v>       0.49627503       0.74823695       0.63283941 </v>
    <v>       0.25144268       0.99991472       0.63065385 </v>
    <v>       0.25660727       0.50203915       0.63116549 </v>
    <v>       0.74400206       0.99667910       0.63154410 </v>
    <v>       0.73736836       0.52096750       0.63356520 </v>
    <v>       0.44874502       0.30128397       0.76888902 </v>
    <v>       0.44874501       0.80128391       0.76888902 </v>
    <v>       0.94874497       0.30128397       0.76888902 </v>
    <v>       0.94874501       0.80128391       0.76888902 </v>
    <v>       0.30127600       0.05129450       0.76887296 </v>
    <v>       0.30127601       0.55129450       0.76887296 </v>
    <v>       0.80127594       0.05129450       0.76887296 </v>
    <v>       0.80127598       0.55129450       0.76887296 </v>
    <v>       0.07877100       0.17118050       0.74344197 </v>
    <v>       0.07877101       0.67118045       0.74344197 </v>
    <v>       0.57877100       0.17118050       0.74344197 </v>
    <v>       0.57877099       0.67118045       0.74344197 </v>
    <v>       0.17119950       0.42117448       0.74342103 </v>
    <v>       0.17119950       0.92117451       0.74342103 </v>
    <v>       0.67119951       0.42117448       0.74342103 </v>
    <v>       0.67119950       0.92117451       0.74342103 </v>
    <v>       0.05125600       0.19871499       0.76888902 </v>
    <v>       0.05125600       0.69871493       0.76888902 </v>
    <v>       0.55125603       0.19871499       0.76888902 </v>
    <v>       0.55125602       0.69871493       0.76888902 </v>
    <v>       0.19872349       0.44870397       0.76887205 </v>
    <v>       0.19872349       0.94870397       0.76887205 </v>
    <v>       0.69872352       0.44870397       0.76887205 </v>
    <v>       0.69872351       0.94870397       0.76887205 </v>
    <v>       0.42123152       0.32881747       0.74344197 </v>
    <v>       0.42123151       0.82881744       0.74344197 </v>
    <v>       0.92123147       0.32881747       0.74344197 </v>
    <v>       0.92123151       0.82881744       0.74344197 </v>
    <v>       0.32880050       0.07882500       0.74342103 </v>
    <v>       0.32880049       0.57882496       0.74342103 </v>
    <v>       0.82880048       0.07882500       0.74342103 </v>
    <v>       0.82880052       0.57882496       0.74342103 </v>
    <v>       0.00000350       0.25000148       0.72582199 </v>
    <v>       0.00000350       0.75000145       0.72582199 </v>
    <v>       0.50000351       0.25000148       0.72582199 </v>
    <v>       0.50000350       0.75000145       0.72582199 </v>
    <v>       0.25000050       0.00000000       0.72580398 </v>
    <v>       0.25000052       0.50000000       0.72580398 </v>
    <v>       0.75000050       0.00000000       0.72580398 </v>
    <v>       0.75000049       0.50000000       0.72580398 </v>
    <v>       0.71848237       0.45405760       0.54770348 </v>
    <v>       0.74069780       0.51656982       0.52627213 </v>
    <v>       0.65601609       0.55080295       0.56241345 </v>
    <v>       0.68856069       0.64223912       0.56373122 </v>
    <v>       0.83940799       0.51649342       0.58105366 </v>
    <v>       0.77583352       0.58513862       0.58840754 </v>
    <v>       0.87669150       0.55929219       0.54468945 </v>
    <v>       0.81652391       0.62070801       0.53019296 </v>
    <v>       0.87321184       0.48245485       0.52841856 </v>
    <v>       0.86378473       0.45363116       0.55522928 </v>
    <v>       0.88671726       0.35319913       0.53094488 </v>
    <v>       0.79400959       0.34095426       0.54108924 </v>
    <v>       0.62067968       0.56023426       0.52715878 </v>
    <v>       0.69964822       0.61353581       0.51947500 </v>
    <v>       0.62768037       0.65718267       0.53251514 </v>
    <v>       0.72374529       0.46778707       0.60322923 </v>
    <v>       0.74327311       0.41837539       0.57910680 </v>
    <v>       0.66862392       0.48324270       0.58081484 </v>
    <v>       0.84088764       0.67815930       0.57406770 </v>
    <v>       0.87625520       0.71328572       0.55035593 </v>
    <v>       0.92494576       0.63782455       0.56464071 </v>
    <v>       0.84197135       0.39846645       0.49662265 </v>
    <v>       0.80343970       0.31041744       0.50344176 </v>
    <v>       0.67472183       0.31999964       0.52457917 </v>
    <v>       0.75499329       0.48861761       0.48136297 </v>
    <v>       0.54590452       0.36845579       0.52157973 </v>
    <v>       0.62586332       0.53879053       0.47802771 </v>
    <v>       0.52331701       0.48382674       0.49845129 </v>
    <v>       0.00346543       0.24446163       0.55784516 </v>
    <v>       0.01320205       0.76547926       0.55781579 </v>
    <v>       0.49267959       0.24125100       0.55583725 </v>
    <v>       0.49406042       0.75315094       0.55753174 </v>
    <v>       0.24774364       0.50426194       0.55619132 </v>
    <v>       0.25126365       0.99624206       0.55671163 </v>
    <v>       0.76039325       0.99227102       0.55633570 </v>
    <v>       0.00043610       0.24714602       0.64908209 </v>
    <v>       0.00333259       0.75673532       0.65037111 </v>
    <v>       0.49603384       0.24708675       0.64921878 </v>
    <v>       0.49491602       0.74958124       0.65046421 </v>
    <v>       0.25318553       0.49907451       0.64878363 </v>
    <v>       0.25040727       0.99932421       0.64810210 </v>
    <v>       0.74951966       0.50908960       0.65099196 </v>
    <v>       0.75020696       0.00174513       0.64883162 </v>
    <v>       0.49998898       0.24999498       0.74327702 </v>
    <v>       0.49998903       0.74999496       0.74327702 </v>
    <v>       0.99998898       0.24999498       0.74327702 </v>
    <v>       0.99998903       0.74999496       0.74327702 </v>
    <v>       0.25000050       0.00000100       0.74325596 </v>
    <v>       0.25000052       0.50000100       0.74325596 </v>
    <v>       0.75000050       0.00000100       0.74325596 </v>
    <v>       0.75000049       0.50000100       0.74325596 </v>
    <v>       0.72349218       0.40002164       0.50260816 </v>
    <v>       0.66392781       0.36699857       0.51383983 </v>
    <v>       0.70892829       0.46056244       0.48969508 </v>
    <v>       0.59135570       0.39541047       0.51263952 </v>
    <v>       0.63776833       0.49002989       0.48809570 </v>
    <v>       0.57830595       0.45848353       0.49950585 </v>
    <v>       0.76130245       0.49126319       0.54126384 </v>
    <v>       0.68912084       0.59106806       0.55426314 </v>
    <v>       0.78106619       0.53372316       0.57910796 </v>
    <v>       0.83451744       0.60222575       0.54625825 </v>
    <v>       0.83625926       0.45233930       0.53953137 </v>
    <v>       0.82982943       0.37595974       0.53065118 </v>
    <v>       0.65722574       0.60517360       0.53217730 </v>
    <v>       0.72686944       0.47312180       0.58574496 </v>
    <v>       0.87095819       0.66143843       0.55966547 </v>
    <v>       0.80311519       0.36924908       0.50757277 </v>
    <v>       0.06094282       0.20564021       0.56443656 </v>
    <v>       0.04769212       0.70832896       0.56519648 </v>
    <v>       0.55068200       0.20879051       0.56500455 </v>
    <v>       0.52459286       0.70664440       0.57114952 </v>
    <v>       0.44248930       0.28374565       0.56591513 </v>
    <v>       0.45430470       0.81160481       0.56357390 </v>
    <v>       0.95546504       0.27600577       0.57050675 </v>
    <v>       0.97707835       0.81373789       0.56943921 </v>
    <v>       0.20870634       0.45087517       0.56519477 </v>
    <v>       0.19533359       0.96050164       0.56544684 </v>
    <v>       0.71295382       0.94713494       0.56568059 </v>
    <v>       0.29955222       0.03684149       0.56742758 </v>
    <v>       0.29139214       0.54986294       0.56667749 </v>
    <v>       0.79213037       0.04916017       0.56583205 </v>
    <v>       0.04864211       0.20293540       0.65881726 </v>
    <v>       0.04791182       0.70949120       0.66064355 </v>
    <v>       0.54333256       0.20230159       0.65905345 </v>
    <v>       0.54027466       0.70468840       0.66046395 </v>
    <v>       0.21260091       0.44792378       0.65797438 </v>
    <v>       0.20252179       0.95279297       0.65657761 </v>
    <v>       0.70255224       0.46553926       0.66048232 </v>
    <v>       0.70527792       0.95951740       0.66013594 </v>
    <v>       0.45256212       0.29658508       0.65848730 </v>
    <v>       0.44762919       0.79556502       0.65980946 </v>
    <v>       0.95321004       0.29028811       0.65842637 </v>
    <v>       0.95578956       0.80103075       0.65893569 </v>
    <v>       0.29569924       0.04311019       0.65909838 </v>
    <v>       0.29288855       0.55223308       0.65880517 </v>
    <v>       0.80015489       0.04769863       0.65694243 </v>
    <v>       0.80843221       0.54189413       0.65965794 </v>
    <v>       0.04586250       0.20411950       0.75272599 </v>
    <v>       0.04586250       0.70411946       0.75272599 </v>
    <v>       0.54586251       0.20411950       0.75272599 </v>
    <v>       0.54586250       0.70411946       0.75272599 </v>
    <v>       0.20411900       0.45410100       0.75270499 </v>
    <v>       0.20411899       0.95410095       0.75270499 </v>
    <v>       0.70411898       0.45410100       0.75270499 </v>
    <v>       0.70411896       0.95410095       0.75270499 </v>
    <v>       0.45414002       0.29588849       0.75272697 </v>
    <v>       0.45414001       0.79588852       0.75272697 </v>
    <v>       0.95414002       0.29588849       0.75272697 </v>
    <v>       0.95414006       0.79588852       0.75272697 </v>
    <v>       0.29588249       0.04590050       0.75270499 </v>
    <v>       0.29588248       0.54590053       0.75270499 </v>
    <v>       0.79588244       0.04590050       0.75270499 </v>
    <v>       0.79588248       0.54590053       0.75270499 </v>
    <v>       0.76558310       0.55901743       0.55538092 </v>
    <v>       0.49757181       0.01176316       0.55212771 </v>
    <v>       0.48551376       0.51511123       0.55528422 </v>
    <v>       0.99721779       0.00264191       0.55203033 </v>
    <v>       0.02028771       0.51200567       0.55650376 </v>
    <v>       0.25200355       0.24566423       0.55096017 </v>
    <v>       0.25064526       0.75386059       0.55220456 </v>
    <v>       0.73205424       0.22909322       0.55766238 </v>
    <v>       0.72988921       0.77069683       0.54680450 </v>
    <v>       0.00554434       0.00205547       0.65418572 </v>
    <v>       0.01237035       0.50270488       0.65643122 </v>
    <v>       0.50032230       0.00267085       0.65473081 </v>
    <v>       0.50201301       0.49784337       0.65562582 </v>
    <v>       0.24968048       0.24446514       0.65488599 </v>
    <v>       0.24678316       0.75164726       0.65450353 </v>
    <v>       0.74378146       0.25266066       0.65622415 </v>
    <v>       0.75145731       0.75525340       0.65405623 </v>
    <v>       0.14323974       0.10636540       0.60731721 </v>
    <v>       0.14878989       0.60804031       0.60916365 </v>
    <v>       0.64343051       0.10344060       0.60961686 </v>
    <v>       0.62425111       0.62716242       0.61313594 </v>
    <v>       0.35517025       0.39303629       0.60840782 </v>
    <v>       0.35842059       0.89458189       0.60941468 </v>
    <v>       0.87394931       0.37686987       0.61226241 </v>
    <v>       0.85411822       0.89617986       0.60942164 </v>
    <v>       0.11058187       0.35526067       0.60856239 </v>
    <v>       0.11445010       0.86498899       0.61036848 </v>
    <v>       0.59332105       0.34482119       0.60742044 </v>
    <v>       0.60334520       0.86125936       0.61022850 </v>
    <v>       0.39474398       0.14058430       0.60869377 </v>
    <v>       0.39148192       0.64076818       0.61082444 </v>
    <v>       0.88977428       0.13955876       0.60855983 </v>
    <v>       0.91089520       0.64688405       0.61337372 </v>
    <v>       0.00000000       0.00000000       0.75492797 </v>
    <v>       0.00000000       0.50000000       0.75492797 </v>
    <v>       0.50000000       0.00000000       0.75492797 </v>
    <v>       0.49999999       0.50000000       0.75492797 </v>
    <v>       0.25000050       0.25000000       0.75493902 </v>
    <v>       0.25000051       0.74999997       0.75493902 </v>
    <v>       0.75000047       0.25000000       0.75493902 </v>
    <v>       0.75000046       0.74999997       0.75493902 </v>
    <v>       0.13579050       0.11421000       0.70478299 </v>
    <v>       0.13579050       0.61420998       0.70478299 </v>
    <v>       0.63579045       0.11421000       0.70478299 </v>
    <v>       0.63579049       0.61420998       0.70478299 </v>
    <v>       0.36420952       0.38578999       0.70478299 </v>
    <v>       0.36420950       0.88578996       0.70478299 </v>
    <v>       0.86420954       0.38578999       0.70478299 </v>
    <v>       0.86420953       0.88578996       0.70478299 </v>
    <v>       0.11421799       0.36421899       0.70478098 </v>
    <v>       0.11421799       0.86421899       0.70478098 </v>
    <v>       0.61421800       0.36421899       0.70478098 </v>
    <v>       0.61421799       0.86421899       0.70478098 </v>
    <v>       0.38578201       0.13578149       0.70478202 </v>
    <v>       0.38578200       0.63578149       0.70478202 </v>
    <v>       0.88578199       0.13578149       0.70478202 </v>
    <v>       0.88578203       0.63578149       0.70478202 </v>
    <v>       0.13466700       0.11533200       0.80125603 </v>
    <v>       0.13466699       0.61533199       0.80125603 </v>
    <v>       0.63466699       0.11533200       0.80125603 </v>
    <v>       0.63466698       0.61533199       0.80125603 </v>
    <v>       0.36533300       0.38466799       0.80125603 </v>
    <v>       0.36533299       0.88466796       0.80125603 </v>
    <v>       0.86533295       0.38466799       0.80125603 </v>
    <v>       0.86533294       0.88466796       0.80125603 </v>
    <v>       0.11532850       0.36533700       0.80126500 </v>
    <v>       0.11532850       0.86533698       0.80126500 </v>
    <v>       0.61532850       0.36533700       0.80126500 </v>
    <v>       0.61532849       0.86533698       0.80126500 </v>
    <v>       0.38467151       0.13466300       0.80126500 </v>
    <v>       0.38467150       0.63466297       0.80126500 </v>
    <v>       0.88467149       0.13466300       0.80126500 </v>
    <v>       0.88467153       0.63466297       0.80126500 </v>
    <v>       0.99861078       0.00094365       0.60332068 </v>
    <v>       0.00283864       0.50375724       0.60620554 </v>
    <v>       0.49646513       0.00509262       0.60195628 </v>
    <v>       0.49837658       0.49779638       0.60506878 </v>
    <v>       0.25203148       0.25050073       0.60320298 </v>
    <v>       0.24813725       0.74891356       0.60267883 </v>
    <v>       0.74344568       0.25087800       0.60618790 </v>
    <v>       0.74438915       0.76247132       0.60537352 </v>
    <v>       0.00000050       0.00000050       0.70482896 </v>
    <v>       0.00000050       0.50000048       0.70482896 </v>
    <v>       0.50000048       0.00000050       0.70482896 </v>
    <v>       0.50000046       0.50000048       0.70482896 </v>
    <v>       0.24999999       0.24999947       0.70482499 </v>
    <v>       0.25000001       0.74999950       0.70482499 </v>
    <v>       0.74999999       0.24999947       0.70482499 </v>
    <v>       0.74999998       0.74999950       0.70482499 </v>
    <v>       0.00000000       0.00000000       0.80731797 </v>
    <v>       0.00000000       0.50000000       0.80731797 </v>
    <v>       0.50000000       0.00000000       0.80731797 </v>
    <v>       0.49999999       0.50000000       0.80731797 </v>
    <v>       0.24999999       0.25000000       0.80731797 </v>
    <v>       0.25000001       0.74999997       0.80731797 </v>
    <v>       0.74999999       0.25000000       0.80731797 </v>
    <v>       0.74999998       0.74999997       0.80731797 </v>
   </varray>
  </structure>
  <varray name="primitive_index" >
   <v type="int" >        1 </v>
   <v type="int" >        2 </v>
   <v type="int" >        3 </v>
   <v type="int" >        4 </v>
   <v type="int" >        5 </v>
   <v type="int" >        6 </v>
   <v type="int" >        7 </v>
   <v type="int" >        8 </v>
   <v type="int" >        9 </v>
   <v type="int" >       10 </v>
   <v type="int" >       11 </v>
   <v type="int" >       12 </v>
   <v type="int" >       13 </v>
   <v type="int" >       14 </v>
   <v type="int" >       15 </v>
   <v type="int" >       16 </v>
   <v type="int" >       17 </v>
   <v type="int" >       18 </v>
   <v type="int" >       19 </v>
   <v type="int" >       20 </v>
   <v type="int" >       21 </v>
   <v type="int" >       22 </v>
   <v type="int" >       23 </v>
   <v type="int" >       24 </v>
   <v type="int" >       25 </v>
   <v type="int" >       26 </v>
   <v type="int" >       27 </v>
   <v type="int" >       28 </v>
   <v type="int" >       29 </v>
   <v type="int" >       30 </v>
   <v type="int" >       31 </v>
   <v type="int" >       32 </v>
   <v type="int" >       33 </v>
   <v type="int" >       34 </v>
   <v type="int" >       35 </v>
   <v type="int" >       36 </v>
   <v type="int" >       37 </v>
   <v type="int" >       38 </v>
   <v type="int" >       39 </v>
   <v type="int" >       40 </v>
   <v type="int" >       41 </v>
   <v type="int" >       42 </v>
   <v type="int" >       43 </v>
   <v type="int" >       44 </v>
   <v type="int" >       45 </v>
   <v type="int" >       46 </v>
   <v type="int" >       47 </v>
   <v type="int" >       48 </v>
   <v type="int" >       49 </v>
   <v type="int" >       50 </v>
   <v type="int" >       51 </v>
   <v type="int" >       52 </v>
   <v type="int" >       53 </v>
   <v type="int" >       54 </v>
   <v type="int" >       55 </v>
   <v type="int" >       56 </v>
   <v type="int" >       57 </v>
   <v type="int" >       58 </v>
   <v type="int" >       59 </v>
   <v type="int" >       60 </v>
   <v type="int" >       61 </v>
   <v type="int" >       62 </v>
   <v type="int" >       63 </v>
   <v type="int" >       64 </v>
   <v type="int" >       65 </v>
   <v type="int" >       66 </v>
   <v type="int" >       67 </v>
   <v type="int" >       68 </v>
   <v type="int" >       69 </v>
   <v type="int" >       70 </v>
   <v type="int" >       71 </v>
   <v type="int" >       72 </v>
   <v type="int" >       73 </v>
   <v type="int" >       74 </v>
   <v type="int" >       75 </v>
   <v type="int" >       76 </v>
   <v type="int" >       77 </v>
   <v type="int" >       78 </v>
   <v type="int" >       79 </v>
   <v type="int" >       80 </v>
   <v type="int" >       81 </v>
   <v type="int" >       82 </v>
   <v type="int" >       83 </v>
   <v type="int" >       84 </v>
   <v type="int" >       85 </v>
   <v type="int" >       86 </v>
   <v type="int" >       87 </v>
   <v type="int" >       88 </v>
   <v type="int" >       89 </v>
   <v type="int" >       90 </v>
   <v type="int" >       91 </v>
   <v type="int" >       92 </v>
   <v type="int" >       93 </v>
   <v type="int" >       94 </v>
   <v type="int" >       95 </v>
   <v type="int" >       96 </v>
   <v type="int" >       97 </v>
   <v type="int" >       98 </v>
   <v type="int" >       99 </v>
   <v type="int" >      100 </v>
   <v type="int" >      101 </v>
   <v type="int" >      102 </v>
   <v type="int" >      103 </v>
   <v type="int" >      104 </v>
   <v type="int" >      105 </v>
   <v type="int" >      106 </v>
   <v type="int" >      107 </v>
   <v type="int" >      108 </v>
   <v type="int" >      109 </v>
   <v type="int" >      110 </v>
   <v type="int" >      111 </v>
   <v type="int" >      112 </v>
   <v type="int" >      113 </v>
   <v type="int" >      114 </v>
   <v type="int" >      115 </v>
   <v type="int" >      116 </v>
   <v type="int" >      117 </v>
   <v type="int" >      118 </v>
   <v type="int" >      119 </v>
   <v type="int" >      120 </v>
   <v type="int" >      121 </v>
   <v type="int" >      122 </v>
   <v type="int" >      123 </v>
   <v type="int" >      124 </v>
   <v type="int" >      125 </v>
   <v type="int" >      126 </v>
   <v type="int" >      127 </v>
   <v type="int" >      128 </v>
   <v type="int" >      129 </v>
   <v type="int" >      130 </v>
   <v type="int" >      131 </v>
   <v type="int" >      132 </v>
   <v type="int" >      133 </v>
   <v type="int" >      134 </v>
   <v type="int" >      135 </v>
   <v type="int" >      136 </v>
   <v type="int" >      137 </v>
   <v type="int" >      138 </v>
   <v type="int" >      139 </v>
   <v type="int" >      140 </v>
   <v type="int" >      141 </v>
   <v type="int" >      142 </v>
   <v type="int" >      143 </v>
   <v type="int" >      144 </v>
   <v type="int" >      145 </v>
   <v type="int" >      146 </v>
   <v type="int" >      147 </v>
   <v type="int" >      148 </v>
   <v type="int" >      149 </v>
   <v type="int" >      150 </v>
   <v type="int" >      151 </v>
   <v type="int" >      152 </v>
   <v type="int" >      153 </v>
   <v type="int" >      154 </v>
   <v type="int" >      155 </v>
   <v type="int" >      156 </v>
   <v type="int" >      157 </v>
   <v type="int" >      158 </v>
   <v type="int" >      159 </v>
   <v type="int" >      160 </v>
   <v type="int" >      161 </v>
   <v type="int" >      162 </v>
   <v type="int" >      163 </v>
   <v type="int" >      164 </v>
   <v type="int" >      165 </v>
   <v type="int" >      166 </v>
   <v type="int" >      167 </v>
   <v type="int" >      168 </v>
   <v type="int" >      169 </v>
   <v type="int" >      170 </v>
   <v type="int" >      171 </v>
   <v type="int" >      172 </v>
   <v type="int" >      173 </v>
   <v type="int" >      174 </v>
   <v type="int" >      175 </v>
   <v type="int" >      176 </v>
   <v type="int" >      177 </v>
   <v type="int" >      178 </v>
   <v type="int" >      179 </v>
   <v type="int" >      180 </v>
   <v type="int" >      181 </v>
   <v type="int" >      182 </v>
   <v type="int" >      183 </v>
   <v type="int" >      184 </v>
   <v type="int" >      185 </v>
   <v type="int" >      186 </v>
   <v type="int" >      187 </v>
   <v type="int" >      188 </v>
   <v type="int" >      189 </v>
   <v type="int" >      190 </v>
   <v type="int" >      191 </v>
   <v type="int" >      192 </v>
   <v type="int" >      193 </v>
   <v type="int" >      194 </v>
   <v type="int" >      195 </v>
   <v type="int" >      196 </v>
   <v type="int" >      197 </v>
   <v type="int" >      198 </v>
   <v type="int" >      199 </v>
   <v type="int" >      200 </v>
   <v type="int" >      201 </v>
   <v type="int" >      202 </v>
   <v type="int" >      203 </v>
   <v type="int" >      204 </v>
   <v type="int" >      205 </v>
   <v type="int" >      206 </v>
   <v type="int" >      207 </v>
   <v type="int" >      208 </v>
   <v type="int" >      209 </v>
   <v type="int" >      210 </v>
   <v type="int" >      211 </v>
   <v type="int" >      212 </v>
   <v type="int" >      213 </v>
   <v type="int" >      214 </v>
   <v type="int" >      215 </v>
   <v type="int" >      216 </v>
   <v type="int" >      217 </v>
   <v type="int" >      218 </v>
   <v type="int" >      219 </v>
   <v type="int" >      220 </v>
   <v type="int" >      221 </v>
   <v type="int" >      222 </v>
   <v type="int" >      223 </v>
   <v type="int" >      224 </v>
   <v type="int" >      225 </v>
   <v type="int" >      226 </v>
   <v type="int" >      227 </v>
   <v type="int" >      228 </v>
   <v type="int" >      229 </v>
   <v type="int" >      230 </v>
   <v type="int" >      231 </v>
   <v type="int" >      232 </v>
   <v type="int" >      233 </v>
   <v type="int" >      234 </v>
   <v type="int" >      235 </v>
   <v type="int" >      236 </v>
   <v type="int" >      237 </v>
   <v type="int" >      238 </v>
   <v type="int" >      239 </v>
   <v type="int" >      240 </v>
   <v type="int" >      241 </v>
   <v type="int" >      242 </v>
   <v type="int" >      243 </v>
   <v type="int" >      244 </v>
   <v type="int" >      245 </v>
   <v type="int" >      246 </v>
   <v type="int" >      247 </v>
   <v type="int" >      248 </v>
   <v type="int" >      249 </v>
   <v type="int" >      250 </v>
   <v type="int" >      251 </v>
   <v type="int" >      252 </v>
   <v type="int" >      253 </v>
   <v type="int" >      254 </v>
   <v type="int" >      255 </v>
   <v type="int" >      256 </v>
   <v type="int" >      257 </v>
   <v type="int" >      258 </v>
   <v type="int" >      259 </v>
   <v type="int" >      260 </v>
   <v type="int" >      261 </v>
   <v type="int" >      262 </v>
   <v type="int" >      263 </v>
   <v type="int" >      264 </v>
   <v type="int" >      265 </v>
   <v type="int" >      266 </v>
   <v type="int" >      267 </v>
   <v type="int" >      268 </v>
   <v type="int" >      269 </v>
   <v type="int" >      270 </v>
   <v type="int" >      271 </v>
   <v type="int" >      272 </v>
   <v type="int" >      273 </v>
   <v type="int" >      274 </v>
   <v type="int" >      275 </v>
   <v type="int" >      276 </v>
   <v type="int" >      277 </v>
   <v type="int" >      278 </v>
   <v type="int" >      279 </v>
   <v type="int" >      280 </v>
   <v type="int" >      281 </v>
   <v type="int" >      282 </v>
   <v type="int" >      283 </v>
   <v type="int" >      284 </v>
   <v type="int" >      285 </v>
   <v type="int" >      286 </v>
   <v type="int" >      287 </v>
   <v type="int" >      288 </v>
   <v type="int" >      289 </v>
   <v type="int" >      290 </v>
   <v type="int" >      291 </v>
   <v type="int" >      292 </v>
   <v type="int" >      293 </v>
   <v type="int" >      294 </v>
   <v type="int" >      295 </v>
   <v type="int" >      296 </v>
   <v type="int" >      297 </v>
   <v type="int" >      298 </v>
   <v type="int" >      299 </v>
   <v type="int" >      300 </v>
   <v type="int" >      301 </v>
   <v type="int" >      302 </v>
   <v type="int" >      303 </v>
   <v type="int" >      304 </v>
   <v type="int" >      305 </v>
   <v type="int" >      306 </v>
   <v type="int" >      307 </v>
   <v type="int" >      308 </v>
   <v type="int" >      309 </v>
   <v type="int" >      310 </v>
   <v type="int" >      311 </v>
   <v type="int" >      312 </v>
   <v type="int" >      313 </v>
   <v type="int" >      314 </v>
   <v type="int" >      315 </v>
   <v type="int" >      316 </v>
   <v type="int" >      317 </v>
   <v type="int" >      318 </v>
   <v type="int" >      319 </v>
   <v type="int" >      320 </v>
   <v type="int" >      321 </v>
   <v type="int" >      322 </v>
   <v type="int" >      323 </v>
   <v type="int" >      324 </v>
   <v type="int" >      325 </v>
  </varray>
 </primitive_cell>
 <kpoints>
  <generation param="Gamma">
   <v type="int" name="divisions">       3        3        1 </v>
   <v name="usershift">      0.00000000       0.00000000       0.00000000 </v>
   <v name="genvec1">      0.33333333       0.00000000       0.00000000 </v>
   <v name="genvec2">      0.00000000       0.33333333       0.00000000 </v>
   <v name="genvec3">      0.00000000       0.00000000       1.00000000 </v>
   <v name="shift">      0.00000000       0.00000000       0.00000000 </v>
  </generation>
  <varray name="kpointlist" >
   <v>       0.00000000       0.00000000       0.00000000 </v>
   <v>       0.33333333       0.00000000       0.00000000 </v>
   <v>       0.00000000       0.33333333       0.00000000 </v>
   <v>       0.33333333       0.33333333       0.00000000 </v>
   <v>      -0.33333333       0.33333333       0.00000000 </v>
  </varray>
  <varray name="weights" >
   <v>       0.11111111 </v>
   <v>       0.22222222 </v>
   <v>       0.22222222 </v>
   <v>       0.22222222 </v>
   <v>       0.22222222 </v>
  </varray>
 </kpoints>
 <parameters>
  <separator name="general" >
   <i type="string" name="SYSTEM">PSC</i>
   <i type="logical" name="LCOMPAT"> F  </i>
  </separator>
  <separator name="electronic" >
   <i type="string" name="PREC">normal</i>
   <i name="ENMAX">    500.00000000</i>
   <i name="ENAUG">    644.87300000</i>
   <i name="EDIFF">      0.00010000</i>
   <i type="int" name="IALGO">    38</i>
   <i type="int" name="IWAVPR">    10</i>
   <i type="int" name="NBANDS">   732</i>
   <i type="int" name="NBANDSLOW">    -1</i>
   <i type="int" name="NBANDSHIGH">    -1</i>
   <i name="NELECT">   1134.00000000</i>
   <i type="int" name="TURBO">     0</i>
   <i type="int" name="IRESTART">     0</i>
   <i type="int" name="NREBOOT">     0</i>
   <i type="int" name="NMIN">     0</i>
   <i name="EREF">      0.00000000</i>
   <separator name="electronic smearing" >
    <i type="int" name="ISMEAR">     0</i>
    <i name="SIGMA">      0.05000000</i>
    <i name="KSPACING">      0.50000000</i>
    <i type="logical" name="KGAMMA"> T  </i>
    <i type="logical" name="KBLOWUP"> T  </i>
   </separator>
   <separator name="electronic projectors" >
    <i type="logical" name="LREAL"> T  </i>
    <v name="ROPT">     -0.00050000     -0.00050000     -0.00050000     -0.00050000     -0.00050000</v>
    <i type="int" name="LMAXPAW">  -100</i>
    <i type="int" name="LMAXMIX">     2</i>
    <i type="logical" name="NLSPLINE"> F  </i>
   </separator>
   <separator name="electronic startup" >
    <i type="int" name="ISTART">     0</i>
    <i type="int" name="ICHARG">     1</i>
    <i type="int" name="INIWAV">     1</i>
   </separator>
   <separator name="electronic spin" >
    <i type="int" name="ISPIN">     1</i>
    <i type="logical" name="LNONCOLLINEAR"> F  </i>
    <v name="MAGMOM">      1.00000000      1.00000000      1.00000000      1.00000000      1.00000000      1.00000000      1.00000000      1.00000000      1.00000000      1.00000000      1.00000000      1.00000000      1.00000000      1.00000000      1.00000000      1.00000000      1.00000000      1.00000000      1.00000000      1.00000000
      1.00000000      1.00000000      1.00000000      1.00000000      1.00000000      1.00000000      1.00000000      1.00000000      1.00000000      1.00000000      1.00000000      1.00000000      1.00000000      1.00000000      1.00000000      1.00000000      1.00000000      1.00000000      1.00000000      1.00000000
      1.00000000      1.00000000      1.00000000      1.00000000      1.00000000      1.00000000      1.00000000      1.00000000      1.00000000      1.00000000      1.00000000      1.00000000      1.00000000      1.00000000      1.00000000      1.00000000      1.00000000      1.00000000      1.00000000      1.00000000
      1.00000000      1.00000000      1.00000000      1.00000000      1.00000000      1.00000000      1.00000000      1.00000000      1.00000000      1.00000000      1.00000000      1.00000000      1.00000000      1.00000000      1.00000000      1.00000000      1.00000000      1.00000000      1.00000000      1.00000000
      1.00000000      1.00000000      1.00000000      1.00000000      1.00000000      1.00000000      1.00000000      1.00000000      1.00000000      1.00000000      1.00000000      1.00000000      1.00000000      1.00000000      1.00000000      1.00000000      1.00000000      1.00000000      1.00000000      1.00000000
      1.00000000      1.00000000      1.00000000      1.00000000      1.00000000      1.00000000      1.00000000      1.00000000      1.00000000      1.00000000      1.00000000      1.00000000      1.00000000      1.00000000      1.00000000      1.00000000      1.00000000      1.00000000      1.00000000      1.00000000
      1.00000000      1.00000000      1.00000000      1.00000000      1.00000000      1.00000000      1.00000000      1.00000000      1.00000000      1.00000000      1.00000000      1.00000000      1.00000000      1.00000000      1.00000000      1.00000000      1.00000000      1.00000000      1.00000000      1.00000000
      1.00000000      1.00000000      1.00000000      1.00000000      1.00000000      1.00000000      1.00000000      1.00000000      1.00000000      1.00000000      1.00000000      1.00000000      1.00000000      1.00000000      1.00000000      1.00000000      1.00000000      1.00000000      1.00000000      1.00000000
      1.00000000      1.00000000      1.00000000      1.00000000      1.00000000      1.00000000      1.00000000      1.00000000      1.00000000      1.00000000      1.00000000      1.00000000      1.00000000      1.00000000      1.00000000      1.00000000      1.00000000      1.00000000      1.00000000      1.00000000
      1.00000000      1.00000000      1.00000000      1.00000000      1.00000000      1.00000000      1.00000000      1.00000000      1.00000000      1.00000000      1.00000000      1.00000000      1.00000000      1.00000000      1.00000000      1.00000000      1.00000000      1.00000000      1.00000000      1.00000000
      1.00000000      1.00000000      1.00000000      1.00000000      1.00000000      1.00000000      1.00000000      1.00000000      1.00000000      1.00000000      1.00000000      1.00000000      1.00000000      1.00000000      1.00000000      1.00000000      1.00000000      1.00000000      1.00000000      1.00000000
      1.00000000      1.00000000      1.00000000      1.00000000      1.00000000      1.00000000      1.00000000      1.00000000      1.00000000      1.00000000      1.00000000      1.00000000      1.00000000      1.00000000      1.00000000      1.00000000      1.00000000      1.00000000      1.00000000      1.00000000
      1.00000000      1.00000000      1.00000000      1.00000000      1.00000000      1.00000000      1.00000000      1.00000000      1.00000000      1.00000000      1.00000000      1.00000000      1.00000000      1.00000000      1.00000000      1.00000000      1.00000000      1.00000000      1.00000000      1.00000000
      1.00000000      1.00000000      1.00000000      1.00000000      1.00000000      1.00000000      1.00000000      1.00000000      1.00000000      1.00000000      1.00000000      1.00000000      1.00000000      1.00000000      1.00000000      1.00000000      1.00000000      1.00000000      1.00000000      1.00000000
      1.00000000      1.00000000      1.00000000      1.00000000      1.00000000      1.00000000      1.00000000      1.00000000      1.00000000      1.00000000      1.00000000      1.00000000      1.00000000      1.00000000      1.00000000      1.00000000      1.00000000      1.00000000      1.00000000      1.00000000
      1.00000000      1.00000000      1.00000000      1.00000000      1.00000000      1.00000000      1.00000000      1.00000000      1.00000000      1.00000000      1.00000000      1.00000000      1.00000000      1.00000000      1.00000000      1.00000000      1.00000000      1.00000000      1.00000000      1.00000000
      1.00000000      1.00000000      1.00000000      1.00000000      1.00000000</v>
    <i name="NUPDOWN">     -1.00000000</i>
    <i type="logical" name="LSORBIT"> F  </i>
    <v name="SAXIS">      0.00000000      0.00000000      1.00000000</v>
    <i type="logical" name="LSPIRAL"> F  </i>
    <v name="QSPIRAL">      0.00000000      0.00000000      0.00000000</v>
    <i type="logical" name="LZEROZ"> F  </i>
   </separator>
   <separator name="electronic exchange-correlation" >
    <i type="logical" name="LASPH"> F  </i>
    <i type="logical" name="LMETAGGA"> F  </i>
   </separator>
   <separator name="electronic convergence" >
    <i type="int" name="NELM">   600</i>
    <i type="int" name="NELMDL">     0</i>
    <i type="int" name="NELMIN">     2</i>
    <i name="ENINI">    500.00000000</i>
    <separator name="electronic convergence detail" >
     <i type="logical" name="LDIAG"> T  </i>
     <i type="logical" name="LSUBROT"> F  </i>
     <i name="WEIMIN">      0.00000000</i>
     <i name="EBREAK">      0.00000003</i>
     <i name="DEPER">      0.30000000</i>
     <i type="int" name="NRMM">     4</i>
     <i name="TIME">      0.40000000</i>
    </separator>
   </separator>
   <separator name="electronic mixer" >
    <i name="AMIX">      0.40000000</i>
    <i name="BMIX">      0.01000000</i>
    <i name="AMIN">      0.01000000</i>
    <i name="AMIX_MAG">      1.60000000</i>
    <i name="BMIX_MAG">      0.01000000</i>
    <separator name="electronic mixer details" >
     <i type="int" name="IMIX">     4</i>
     <i type="logical" name="MIXFIRST"> F  </i>
     <i type="int" name="MAXMIX">   -45</i>
     <i name="WC">    100.00000000</i>
     <i type="int" name="INIMIX">     1</i>
     <i type="int" name="MIXPRE">     1</i>
     <i type="int" name="MREMOVE">     5</i>
    </separator>
   </separator>
   <separator name="electronic dipolcorrection" >
    <i type="logical" name="LDIPOL"> T  </i>
    <i type="logical" name="LMONO"> F  </i>
    <i type="int" name="IDIPOL">     3</i>
    <i name="EPSILON">      1.00000000</i>
    <v name="DIPOL">   -100.00000000   -100.00000000   -100.00000000</v>
    <i name="EFIELD">      0.00000000</i>
   </separator>
  </separator>
  <separator name="grids" >
   <i type="int" name="NGX">   100</i>
   <i type="int" name="NGY">   100</i>
   <i type="int" name="NGZ">   350</i>
   <i type="int" name="NGXF">   200</i>
   <i type="int" name="NGYF">   200</i>
   <i type="int" name="NGZF">   700</i>
   <i type="logical" name="ADDGRID"> F  </i>
  </separator>
  <separator name="ionic" >
   <i type="int" name="NSW">     0</i>
   <i type="int" name="IBRION">    -1</i>
   <i type="int" name="MDALGO">     0</i>
   <i type="int" name="ISIF">     2</i>
   <i name="PSTRESS">      0.00000000</i>
   <i name="EDIFFG">      0.00100000</i>
   <i type="int" name="NFREE">     0</i>
   <i name="POTIM">      0.50000000</i>
   <i name="SMASS">     -3.00000000</i>
   <i name="SCALEE">      1.00000000</i>
  </separator>
  <separator name="ionic md" >
   <i name="TEBEG">      0.00010000</i>
   <i name="TEEND">      0.00010000</i>
   <i type="int" name="NBLOCK">     1</i>
   <i type="int" name="KBLOCK">     1</i>
   <i type="int" name="NPACO">   256</i>
   <i name="APACO">     16.00000000</i>
  </separator>
  <separator name="symmetry" >
   <i type="int" name="ISYM">     0</i>
   <i name="SYMPREC">      0.00001000</i>
  </separator>
  <separator name="dos" >
   <i type="int" name="LORBIT">     0</i>
   <v name="RWIGS">     -1.00000000     -1.00000000     -1.00000000     -1.00000000     -1.00000000</v>
   <i type="int" name="NEDOS">   301</i>
   <i name="EMIN">     10.00000000</i>
   <i name="EMAX">    -10.00000000</i>
   <i name="EFERMI">      0.00000000</i>
  </separator>
  <separator name="writing" >
   <i type="int" name="NWRITE">     2</i>
   <i type="logical" name="LWAVE"> F  </i>
   <i type="logical" name="LDOWNSAMPLE"> F  </i>
   <i type="logical" name="LCHARG"> T  </i>
   <i type="logical" name="LPARD"> F  </i>
   <i type="logical" name="LVTOT"> T  </i>
   <i type="logical" name="LVHAR"> F  </i>
   <i type="logical" name="LELF"> F  </i>
   <i type="logical" name="LOPTICS"> F  </i>
   <v name="STM">      0.00000000      0.00000000      0.00000000      0.00000000      0.00000000      0.00000000      0.00000000</v>
  </separator>
  <separator name="performance" >
   <i type="int" name="NPAR">     4</i>
   <i type="int" name="NSIM">     4</i>
   <i type="int" name="NBLK">    -1</i>
   <i type="logical" name="LPLANE"> T  </i>
   <i type="logical" name="LSCALAPACK"> T  </i>
   <i type="logical" name="LSCAAWARE"> F  </i>
   <i type="logical" name="LSCALU"> F  </i>
   <i type="logical" name="LASYNC"> F  </i>
   <i type="logical" name="LORBITALREAL"> F  </i>
  </separator>
  <separator name="miscellaneous" >
   <i type="int" name="IDIOT">     3</i>
   <i type="int" name="PHON_NSTRUCT">    -1</i>
   <i type="logical" name="LMUSIC"> F  </i>
   <v name="POMASS">      1.00000000     12.01100000     14.00100000    126.90400000    207.20000000</v>
   <v name="DARWINR">      0.00000000      0.00000000      0.00000000      0.00000000      0.00000000</v>
   <v name="DARWINV">      1.00000000      1.00000000      1.00000000      1.00000000      1.00000000</v>
   <i type="logical" name="LCORR"> T  </i>
  </separator>
  <i type="logical" name="GGA_COMPAT"> F  </i>
  <i type="logical" name="LBERRY"> F  </i>
  <i type="int" name="ICORELEVEL">     0</i>
  <i type="logical" name="LDAU"> F  </i>
  <i type="int" name="I_CONSTRAINED_M">     0</i>
  <separator name="electronic exchange-correlation" >
   <i type="string" name="GGA">--</i>
   <i type="int" name="VOSKOWN">     0</i>
   <i type="logical" name="LHFCALC"> F  </i>
   <i type="string" name="PRECFOCK"></i>
   <i type="logical" name="LSYMGRAD"> F  </i>
   <i type="logical" name="LHFONE"> F  </i>
   <i type="logical" name="LRHFCALC"> F  </i>
   <i type="logical" name="LTHOMAS"> F  </i>
   <i type="logical" name="LMODELHF"> F  </i>
   <i type="logical" name="LFOCKACE"> F  </i>
   <i name="ENCUT4O">     -1.00000000</i>
   <i type="int" name="EXXOEP">     0</i>
   <i type="int" name="FOURORBIT">     0</i>
   <i name="AEXX">      0.00000000</i>
   <i name="HFALPHA">      0.00000000</i>
   <i name="MCALPHA">      0.00000000</i>
   <i name="ALDAX">      1.00000000</i>
   <i name="AGGAX">      1.00000000</i>
   <i name="ALDAC">      1.00000000</i>
   <i name="AGGAC">      1.00000000</i>
   <i type="int" name="NKREDX">     1</i>
   <i type="int" name="NKREDY">     1</i>
   <i type="int" name="NKREDZ">     1</i>
   <i type="logical" name="SHIFTRED"> F  </i>
   <i type="logical" name="ODDONLY"> F  </i>
   <i type="logical" name="EVENONLY"> F  </i>
   <i type="int" name="LMAXFOCK">     0</i>
   <i type="int" name="NMAXFOCKAE">     0</i>
   <i type="logical" name="LFOCKAEDFT"> F  </i>
   <i name="HFSCREEN">      0.00000000</i>
   <i name="HFSCREENC">      0.00000000</i>
   <i type="int" name="NBANDSGWLOW">     0</i>
  </separator>
  <separator name="vdW DFT" >
   <i type="logical" name="LUSE_VDW"> F  </i>
   <i name="Zab_VDW">     -0.84910000</i>
   <i name="PARAM1">      0.12340000</i>
   <i name="PARAM2">      1.00000000</i>
   <i name="PARAM3">      0.00000000</i>
  </separator>
  <separator name="model GW" >
   <i type="int" name="MODEL_GW">     0</i>
   <i name="MODEL_EPS0">     37.63423484</i>
   <i name="MODEL_ALPHA">      1.00000000</i>
  </separator>
  <separator name="linear response parameters" >
   <i type="logical" name="LEPSILON"> F  </i>
   <i type="logical" name="LRPA"> F  </i>
   <i type="logical" name="LNABLA"> F  </i>
   <i type="logical" name="LVEL"> F  </i>
   <i type="int" name="KINTER">     0</i>
   <i name="CSHIFT">      0.10000000</i>
   <i name="OMEGAMAX">     -1.00000000</i>
   <i name="DEG_THRESHOLD">      0.00200000</i>
   <i name="RTIME">     -0.10000000</i>
   <i name="WPLASMAI">      0.00000000</i>
   <v name="DFIELD">      0.00000000      0.00000000      0.00000000</v>
   <v name="WPLASMA">      0.00000000      0.00000000      0.00000000      0.00000000      0.00000000      0.00000000      0.00000000      0.00000000      0.00000000</v>
  </separator>
  <separator name="orbital magnetization" >
   <i type="logical" name="NUCIND"> F  </i>
   <v name="MAGPOS">      0.00000000      0.00000000      0.00000000</v>
   <i type="logical" name="LNICSALL"> T  </i>
   <i type="logical" name="ORBITALMAG"> F  </i>
   <i type="logical" name="LMAGBLOCH"> F  </i>
   <i type="logical" name="LCHIMAG"> F  </i>
   <i type="logical" name="LGAUGE"> T  </i>
   <i type="int" name="MAGATOM">     0</i>
   <v name="MAGDIPOL">      0.00000000      0.00000000      0.00000000</v>
   <v name="AVECCONST">      0.00000000      0.00000000      0.00000000</v>
  </separator>
  <separator name="response functions" >
   <i type="logical" name="LFINITE_TEMPERATURE"> F  </i>
   <i type="logical" name="LADDER"> F  </i>
   <i type="logical" name="LRPAFORCE"> F  </i>
   <i type="logical" name="LFXC"> F  </i>
   <i type="logical" name="LHARTREE"> T  </i>
   <i type="int" name="IBSE">     0</i>
   <v type="int" name="KPOINT">    -1     0     0     0</v>
   <i type="logical" name="LTCTC"> F  </i>
   <i type="logical" name="LTCTE"> F  </i>
   <i type="logical" name="LTETE"> F  </i>
   <i type="logical" name="LTRIPLET"> F  </i>
   <i type="logical" name="LFXCEPS"> F  </i>
   <i type="logical" name="LFXHEG"> F  </i>
   <i type="int" name="NATURALO">     2</i>
   <i type="logical" name="LHOLEGF"> F  </i>
   <i type="logical" name="L2ORDER"> F  </i>
   <i type="logical" name="LDMP1"> F  </i>
   <i type="logical" name="LMP2LT"> F  </i>
   <i type="logical" name="LSMP2LT"> F  </i>
   <i type="logical" name="LGWLF"> F  </i>
   <i name="ENCUTGW">     -2.00000000</i>
   <i name="ENCUTGWSOFT">     -2.00000000</i>
   <i name="ENCUTLF">     -1.00000000</i>
   <i type="logical" name="LESF_SPLINES"> F  </i>
   <i type="int" name="LMAXMP2">    -1</i>
   <i name="SCISSOR">      0.00000000</i>
   <i type="int" name="NOMEGA">     0</i>
   <i type="int" name="NOMEGAR">     0</i>
   <i type="int" name="NBANDSGW">    -1</i>
   <i type="int" name="NBANDSO">    -1</i>
   <i type="int" name="NBANDSV">    -1</i>
   <i type="int" name="NELM">   600</i>
   <i type="int" name="NELMHF">     1</i>
   <i type="int" name="DIM">     3</i>
   <i type="int" name="IESPILON">     4</i>
   <i type="int" name="ANTIRES">     0</i>
   <i name="OMEGAMAX">    -30.00000000</i>
   <i name="OMEGAMIN">    -30.00000000</i>
   <i name="OMEGATL">   -200.00000000</i>
   <i type="int" name="OMEGAGRID">     0</i>
   <i name="CSHIFT">     -0.10000000</i>
   <i type="logical" name="LSELFENERGY"> F  </i>
   <i type="logical" name="LSPECTRAL"> F  </i>
   <i type="logical" name="LSPECTRALGW"> F  </i>
   <i type="logical" name="LSINGLES"> F  </i>
   <i type="logical" name="LFERMIGW"> F  </i>
   <i type="logical" name="ODDONLYGW"> F  </i>
   <i type="logical" name="EVENONLYGW"> F  </i>
   <i type="int" name="NKREDLFX">     1</i>
   <i type="int" name="NKREDLFY">     1</i>
   <i type="int" name="NKREDLFZ">     1</i>
   <i type="int" name="MAXMEM">  2800</i>
   <i type="int" name="TELESCOPE">     0</i>
   <i type="int" name="NTAUPAR">    -1</i>
   <i type="int" name="NOMEGAPAR">    -1</i>
   <i name="DAMP_NEWTON">      0.80000001</i>
   <i name="LAMBDA">      1.00000000</i>
  </separator>
  <separator name="External order field" >
   <i name="OFIELD_KAPPA">      0.00000000</i>
   <v name="OFIELD_K">      0.00000000      0.00000000      0.00000000</v>
   <i name="OFIELD_Q6_NEAR">      0.00000000</i>
   <i name="OFIELD_Q6_FAR">      0.00000000</i>
   <i name="OFIELD_A">      0.00000000</i>
  </separator>
 </parameters>
 <atominfo>
  <atoms>     325 </atoms>
  <types>       5 </types>
  <array name="atoms" >
   <dimension dim="1">ion</dimension>
   <field type="string">element</field>
   <field type="int">atomtype</field>
   <set>
    <rc><c>H </c><c>   1</c></rc>
    <rc><c>H </c><c>   1</c></rc>
    <rc><c>H </c><c>   1</c></rc>
    <rc><c>H </c><c>   1</c></rc>
    <rc><c>H </c><c>   1</c></rc>
    <rc><c>H </c><c>   1</c></rc>
    <rc><c>H </c><c>   1</c></rc>
    <rc><c>H </c><c>   1</c></rc>
    <rc><c>H </c><c>   1</c></rc>
    <rc><c>H </c><c>   1</c></rc>
    <rc><c>H </c><c>   1</c></rc>
    <rc><c>H </c><c>   1</c></rc>
    <rc><c>H </c><c>   1</c></rc>
    <rc><c>H </c><c>   1</c></rc>
    <rc><c>H </c><c>   1</c></rc>
    <rc><c>H </c><c>   1</c></rc>
    <rc><c>H </c><c>   1</c></rc>
    <rc><c>H </c><c>   1</c></rc>
    <rc><c>H </c><c>   1</c></rc>
    <rc><c>H </c><c>   1</c></rc>
    <rc><c>H </c><c>   1</c></rc>
    <rc><c>H </c><c>   1</c></rc>
    <rc><c>H </c><c>   1</c></rc>
    <rc><c>H </c><c>   1</c></rc>
    <rc><c>H </c><c>   1</c></rc>
    <rc><c>H </c><c>   1</c></rc>
    <rc><c>H </c><c>   1</c></rc>
    <rc><c>H </c><c>   1</c></rc>
    <rc><c>H </c><c>   1</c></rc>
    <rc><c>H </c><c>   1</c></rc>
    <rc><c>H </c><c>   1</c></rc>
    <rc><c>H </c><c>   1</c></rc>
    <rc><c>H </c><c>   1</c></rc>
    <rc><c>H </c><c>   1</c></rc>
    <rc><c>H </c><c>   1</c></rc>
    <rc><c>H </c><c>   1</c></rc>
    <rc><c>H </c><c>   1</c></rc>
    <rc><c>H </c><c>   1</c></rc>
    <rc><c>H </c><c>   1</c></rc>
    <rc><c>H </c><c>   1</c></rc>
    <rc><c>H </c><c>   1</c></rc>
    <rc><c>H </c><c>   1</c></rc>
    <rc><c>H </c><c>   1</c></rc>
    <rc><c>H </c><c>   1</c></rc>
    <rc><c>H </c><c>   1</c></rc>
    <rc><c>H </c><c>   1</c></rc>
    <rc><c>H </c><c>   1</c></rc>
    <rc><c>H </c><c>   1</c></rc>
    <rc><c>H </c><c>   1</c></rc>
    <rc><c>H </c><c>   1</c></rc>
    <rc><c>H </c><c>   1</c></rc>
    <rc><c>H </c><c>   1</c></rc>
    <rc><c>H </c><c>   1</c></rc>
    <rc><c>H </c><c>   1</c></rc>
    <rc><c>H </c><c>   1</c></rc>
    <rc><c>H </c><c>   1</c></rc>
    <rc><c>H </c><c>   1</c></rc>
    <rc><c>H </c><c>   1</c></rc>
    <rc><c>H </c><c>   1</c></rc>
    <rc><c>H </c><c>   1</c></rc>
    <rc><c>H </c><c>   1</c></rc>
    <rc><c>H </c><c>   1</c></rc>
    <rc><c>H </c><c>   1</c></rc>
    <rc><c>H </c><c>   1</c></rc>
    <rc><c>H </c><c>   1</c></rc>
    <rc><c>H </c><c>   1</c></rc>
    <rc><c>H </c><c>   1</c></rc>
    <rc><c>H </c><c>   1</c></rc>
    <rc><c>H </c><c>   1</c></rc>
    <rc><c>H </c><c>   1</c></rc>
    <rc><c>H </c><c>   1</c></rc>
    <rc><c>H </c><c>   1</c></rc>
    <rc><c>H </c><c>   1</c></rc>
    <rc><c>H </c><c>   1</c></rc>
    <rc><c>H </c><c>   1</c></rc>
    <rc><c>H </c><c>   1</c></rc>
    <rc><c>H </c><c>   1</c></rc>
    <rc><c>H </c><c>   1</c></rc>
    <rc><c>H </c><c>   1</c></rc>
    <rc><c>H </c><c>   1</c></rc>
    <rc><c>H </c><c>   1</c></rc>
    <rc><c>H </c><c>   1</c></rc>
    <rc><c>H </c><c>   1</c></rc>
    <rc><c>H </c><c>   1</c></rc>
    <rc><c>H </c><c>   1</c></rc>
    <rc><c>H </c><c>   1</c></rc>
    <rc><c>H </c><c>   1</c></rc>
    <rc><c>H </c><c>   1</c></rc>
    <rc><c>H </c><c>   1</c></rc>
    <rc><c>H </c><c>   1</c></rc>
    <rc><c>H </c><c>   1</c></rc>
    <rc><c>H </c><c>   1</c></rc>
    <rc><c>H </c><c>   1</c></rc>
    <rc><c>H </c><c>   1</c></rc>
    <rc><c>H </c><c>   1</c></rc>
    <rc><c>H </c><c>   1</c></rc>
    <rc><c>H </c><c>   1</c></rc>
    <rc><c>H </c><c>   1</c></rc>
    <rc><c>H </c><c>   1</c></rc>
    <rc><c>H </c><c>   1</c></rc>
    <rc><c>H </c><c>   1</c></rc>
    <rc><c>H </c><c>   1</c></rc>
    <rc><c>H </c><c>   1</c></rc>
    <rc><c>H </c><c>   1</c></rc>
    <rc><c>H </c><c>   1</c></rc>
    <rc><c>H </c><c>   1</c></rc>
    <rc><c>H </c><c>   1</c></rc>
    <rc><c>H </c><c>   1</c></rc>
    <rc><c>H </c><c>   1</c></rc>
    <rc><c>H </c><c>   1</c></rc>
    <rc><c>H </c><c>   1</c></rc>
    <rc><c>H </c><c>   1</c></rc>
    <rc><c>H </c><c>   1</c></rc>
    <rc><c>H </c><c>   1</c></rc>
    <rc><c>H </c><c>   1</c></rc>
    <rc><c>H </c><c>   1</c></rc>
    <rc><c>H </c><c>   1</c></rc>
    <rc><c>H </c><c>   1</c></rc>
    <rc><c>H </c><c>   1</c></rc>
    <rc><c>H </c><c>   1</c></rc>
    <rc><c>H </c><c>   1</c></rc>
    <rc><c>H </c><c>   1</c></rc>
    <rc><c>H </c><c>   1</c></rc>
    <rc><c>H </c><c>   1</c></rc>
    <rc><c>H </c><c>   1</c></rc>
    <rc><c>H </c><c>   1</c></rc>
    <rc><c>H </c><c>   1</c></rc>
    <rc><c>H </c><c>   1</c></rc>
    <rc><c>H </c><c>   1</c></rc>
    <rc><c>H </c><c>   1</c></rc>
    <rc><c>H </c><c>   1</c></rc>
    <rc><c>H </c><c>   1</c></rc>
    <rc><c>H </c><c>   1</c></rc>
    <rc><c>H </c><c>   1</c></rc>
    <rc><c>H </c><c>   1</c></rc>
    <rc><c>H </c><c>   1</c></rc>
    <rc><c>H </c><c>   1</c></rc>
    <rc><c>H </c><c>   1</c></rc>
    <rc><c>H </c><c>   1</c></rc>
    <rc><c>H </c><c>   1</c></rc>
    <rc><c>H </c><c>   1</c></rc>
    <rc><c>H </c><c>   1</c></rc>
    <rc><c>H </c><c>   1</c></rc>
    <rc><c>C </c><c>   2</c></rc>
    <rc><c>C </c><c>   2</c></rc>
    <rc><c>C </c><c>   2</c></rc>
    <rc><c>C </c><c>   2</c></rc>
    <rc><c>C </c><c>   2</c></rc>
    <rc><c>C </c><c>   2</c></rc>
    <rc><c>C </c><c>   2</c></rc>
    <rc><c>C </c><c>   2</c></rc>
    <rc><c>C </c><c>   2</c></rc>
    <rc><c>C </c><c>   2</c></rc>
    <rc><c>C </c><c>   2</c></rc>
    <rc><c>C </c><c>   2</c></rc>
    <rc><c>C </c><c>   2</c></rc>
    <rc><c>C </c><c>   2</c></rc>
    <rc><c>C </c><c>   2</c></rc>
    <rc><c>C </c><c>   2</c></rc>
    <rc><c>C </c><c>   2</c></rc>
    <rc><c>C </c><c>   2</c></rc>
    <rc><c>C </c><c>   2</c></rc>
    <rc><c>C </c><c>   2</c></rc>
    <rc><c>C </c><c>   2</c></rc>
    <rc><c>C </c><c>   2</c></rc>
    <rc><c>C </c><c>   2</c></rc>
    <rc><c>C </c><c>   2</c></rc>
    <rc><c>C </c><c>   2</c></rc>
    <rc><c>C </c><c>   2</c></rc>
    <rc><c>C </c><c>   2</c></rc>
    <rc><c>C </c><c>   2</c></rc>
    <rc><c>C </c><c>   2</c></rc>
    <rc><c>C </c><c>   2</c></rc>
    <rc><c>C </c><c>   2</c></rc>
    <rc><c>C </c><c>   2</c></rc>
    <rc><c>C </c><c>   2</c></rc>
    <rc><c>C </c><c>   2</c></rc>
    <rc><c>C </c><c>   2</c></rc>
    <rc><c>C </c><c>   2</c></rc>
    <rc><c>C </c><c>   2</c></rc>
    <rc><c>C </c><c>   2</c></rc>
    <rc><c>C </c><c>   2</c></rc>
    <rc><c>N </c><c>   3</c></rc>
    <rc><c>N </c><c>   3</c></rc>
    <rc><c>N </c><c>   3</c></rc>
    <rc><c>N </c><c>   3</c></rc>
    <rc><c>N </c><c>   3</c></rc>
    <rc><c>N </c><c>   3</c></rc>
    <rc><c>N </c><c>   3</c></rc>
    <rc><c>N </c><c>   3</c></rc>
    <rc><c>N </c><c>   3</c></rc>
    <rc><c>N </c><c>   3</c></rc>
    <rc><c>N </c><c>   3</c></rc>
    <rc><c>N </c><c>   3</c></rc>
    <rc><c>N </c><c>   3</c></rc>
    <rc><c>N </c><c>   3</c></rc>
    <rc><c>N </c><c>   3</c></rc>
    <rc><c>N </c><c>   3</c></rc>
    <rc><c>N </c><c>   3</c></rc>
    <rc><c>N </c><c>   3</c></rc>
    <rc><c>N </c><c>   3</c></rc>
    <rc><c>N </c><c>   3</c></rc>
    <rc><c>N </c><c>   3</c></rc>
    <rc><c>N </c><c>   3</c></rc>
    <rc><c>N </c><c>   3</c></rc>
    <rc><c>N </c><c>   3</c></rc>
    <rc><c>N </c><c>   3</c></rc>
    <rc><c>N </c><c>   3</c></rc>
    <rc><c>N </c><c>   3</c></rc>
    <rc><c>N </c><c>   3</c></rc>
    <rc><c>N </c><c>   3</c></rc>
    <rc><c>N </c><c>   3</c></rc>
    <rc><c>N </c><c>   3</c></rc>
    <rc><c>N </c><c>   3</c></rc>
    <rc><c>N </c><c>   3</c></rc>
    <rc><c>N </c><c>   3</c></rc>
    <rc><c>N </c><c>   3</c></rc>
    <rc><c>N </c><c>   3</c></rc>
    <rc><c>N </c><c>   3</c></rc>
    <rc><c>N </c><c>   3</c></rc>
    <rc><c>N </c><c>   3</c></rc>
    <rc><c>N </c><c>   3</c></rc>
    <rc><c>N </c><c>   3</c></rc>
    <rc><c>N </c><c>   3</c></rc>
    <rc><c>N </c><c>   3</c></rc>
    <rc><c>N </c><c>   3</c></rc>
    <rc><c>N </c><c>   3</c></rc>
    <rc><c>N </c><c>   3</c></rc>
    <rc><c>N </c><c>   3</c></rc>
    <rc><c>I </c><c>   4</c></rc>
    <rc><c>I </c><c>   4</c></rc>
    <rc><c>I </c><c>   4</c></rc>
    <rc><c>I </c><c>   4</c></rc>
    <rc><c>I </c><c>   4</c></rc>
    <rc><c>I </c><c>   4</c></rc>
    <rc><c>I </c><c>   4</c></rc>
    <rc><c>I </c><c>   4</c></rc>
    <rc><c>I </c><c>   4</c></rc>
    <rc><c>I </c><c>   4</c></rc>
    <rc><c>I </c><c>   4</c></rc>
    <rc><c>I </c><c>   4</c></rc>
    <rc><c>I </c><c>   4</c></rc>
    <rc><c>I </c><c>   4</c></rc>
    <rc><c>I </c><c>   4</c></rc>
    <rc><c>I </c><c>   4</c></rc>
    <rc><c>I </c><c>   4</c></rc>
    <rc><c>I </c><c>   4</c></rc>
    <rc><c>I </c><c>   4</c></rc>
    <rc><c>I </c><c>   4</c></rc>
    <rc><c>I </c><c>   4</c></rc>
    <rc><c>I </c><c>   4</c></rc>
    <rc><c>I </c><c>   4</c></rc>
    <rc><c>I </c><c>   4</c></rc>
    <rc><c>I </c><c>   4</c></rc>
    <rc><c>I </c><c>   4</c></rc>
    <rc><c>I </c><c>   4</c></rc>
    <rc><c>I </c><c>   4</c></rc>
    <rc><c>I </c><c>   4</c></rc>
    <rc><c>I </c><c>   4</c></rc>
    <rc><c>I </c><c>   4</c></rc>
    <rc><c>I </c><c>   4</c></rc>
    <rc><c>I </c><c>   4</c></rc>
    <rc><c>I </c><c>   4</c></rc>
    <rc><c>I </c><c>   4</c></rc>
    <rc><c>I </c><c>   4</c></rc>
    <rc><c>I </c><c>   4</c></rc>
    <rc><c>I </c><c>   4</c></rc>
    <rc><c>I </c><c>   4</c></rc>
    <rc><c>I </c><c>   4</c></rc>
    <rc><c>I </c><c>   4</c></rc>
    <rc><c>I </c><c>   4</c></rc>
    <rc><c>I </c><c>   4</c></rc>
    <rc><c>I </c><c>   4</c></rc>
    <rc><c>I </c><c>   4</c></rc>
    <rc><c>I </c><c>   4</c></rc>
    <rc><c>I </c><c>   4</c></rc>
    <rc><c>I </c><c>   4</c></rc>
    <rc><c>I </c><c>   4</c></rc>
    <rc><c>I </c><c>   4</c></rc>
    <rc><c>I </c><c>   4</c></rc>
    <rc><c>I </c><c>   4</c></rc>
    <rc><c>I </c><c>   4</c></rc>
    <rc><c>I </c><c>   4</c></rc>
    <rc><c>I </c><c>   4</c></rc>
    <rc><c>I </c><c>   4</c></rc>
    <rc><c>I </c><c>   4</c></rc>
    <rc><c>I </c><c>   4</c></rc>
    <rc><c>I </c><c>   4</c></rc>
    <rc><c>I </c><c>   4</c></rc>
    <rc><c>I </c><c>   4</c></rc>
    <rc><c>I </c><c>   4</c></rc>
    <rc><c>I </c><c>   4</c></rc>
    <rc><c>I </c><c>   4</c></rc>
    <rc><c>I </c><c>   4</c></rc>
    <rc><c>I </c><c>   4</c></rc>
    <rc><c>I </c><c>   4</c></rc>
    <rc><c>I </c><c>   4</c></rc>
    <rc><c>I </c><c>   4</c></rc>
    <rc><c>I </c><c>   4</c></rc>
    <rc><c>I </c><c>   4</c></rc>
    <rc><c>I </c><c>   4</c></rc>
    <rc><c>Pb</c><c>   5</c></rc>
    <rc><c>Pb</c><c>   5</c></rc>
    <rc><c>Pb</c><c>   5</c></rc>
    <rc><c>Pb</c><c>   5</c></rc>
    <rc><c>Pb</c><c>   5</c></rc>
    <rc><c>Pb</c><c>   5</c></rc>
    <rc><c>Pb</c><c>   5</c></rc>
    <rc><c>Pb</c><c>   5</c></rc>
    <rc><c>Pb</c><c>   5</c></rc>
    <rc><c>Pb</c><c>   5</c></rc>
    <rc><c>Pb</c><c>   5</c></rc>
    <rc><c>Pb</c><c>   5</c></rc>
    <rc><c>Pb</c><c>   5</c></rc>
    <rc><c>Pb</c><c>   5</c></rc>
    <rc><c>Pb</c><c>   5</c></rc>
    <rc><c>Pb</c><c>   5</c></rc>
    <rc><c>Pb</c><c>   5</c></rc>
    <rc><c>Pb</c><c>   5</c></rc>
    <rc><c>Pb</c><c>   5</c></rc>
    <rc><c>Pb</c><c>   5</c></rc>
    <rc><c>Pb</c><c>   5</c></rc>
    <rc><c>Pb</c><c>   5</c></rc>
    <rc><c>Pb</c><c>   5</c></rc>
    <rc><c>Pb</c><c>   5</c></rc>
   </set>
  </array>
  <array name="atomtypes" >
   <dimension dim="1">type</dimension>
   <field type="int">atomspertype</field>
   <field type="string">element</field>
   <field>mass</field>
   <field>valence</field>
   <field type="string">pseudopotential</field>
   <set>
    <rc><c> 143</c><c>H </c><c>      1.00000000</c><c>      1.00000000</c><c>  PAW_PBE H 15Jun2001                   </c></rc>
    <rc><c>  39</c><c>C </c><c>     12.01100000</c><c>      4.00000000</c><c>  PAW_PBE C 08Apr2002                   </c></rc>
    <rc><c>  47</c><c>N </c><c>     14.00100000</c><c>      5.00000000</c><c>  PAW_PBE N 08Apr2002                   </c></rc>
    <rc><c>  72</c><c>I </c><c>    126.90400000</c><c>      7.00000000</c><c>  PAW_PBE I 08Apr2002                   </c></rc>
    <rc><c>  24</c><c>Pb</c><c>    207.20000000</c><c>      4.00000000</c><c>  PAW_PBE Pb 08Apr2002                  </c></rc>
   </set>
  </array>
 </atominfo>
 <structure name="initialpos" >
  <crystal>
   <varray name="basis" >
    <v>      18.06080055       0.00000000       0.00000000 </v>
    <v>      -0.00491865      18.06279945       0.00000000 </v>
    <v>       0.00000000       0.00000000      62.48749924 </v>
   </varray>
   <i name="volume">  20385.21054034 </i>
   <varray name="rec_basis" >
    <v>       0.05536853       0.00001508      -0.00000000 </v>
    <v>       0.00000000       0.05536240       0.00000000 </v>
    <v>       0.00000000      -0.00000000       0.01600320 </v>
   </varray>
  </crystal>
  <varray name="positions" >
   <v>       0.44513864       0.29837154       0.58265066 </v>
   <v>       0.44317958       0.82461437       0.57943908 </v>
   <v>       0.95917742       0.27125118       0.58670341 </v>
   <v>       0.96999884       0.80625825       0.58586486 </v>
   <v>       0.29924470       0.04548746       0.58357290 </v>
   <v>       0.29990898       0.54846671       0.58289014 </v>
   <v>       0.78280145       0.06502958       0.58134754 </v>
   <v>       0.09545694       0.18362959       0.55431717 </v>
   <v>       0.07807138       0.67419826       0.55520687 </v>
   <v>       0.58826176       0.18032120       0.55593804 </v>
   <v>       0.55082718       0.66102967       0.56554445 </v>
   <v>       0.34282170       0.06266627       0.55896501 </v>
   <v>       0.32074739       0.59032024       0.55829129 </v>
   <v>       0.82857856       0.08236071       0.55718194 </v>
   <v>       0.07195392       0.19701481       0.58013978 </v>
   <v>       0.05041937       0.69454470       0.58135914 </v>
   <v>       0.56417627       0.21696555       0.58151145 </v>
   <v>       0.51817766       0.71093780       0.58731620 </v>
   <v>       0.20697536       0.43835744       0.58115994 </v>
   <v>       0.18289998       0.96010239       0.58148361 </v>
   <v>       0.69569101       0.95138907       0.58113631 </v>
   <v>       0.39718029       0.30328962       0.55779803 </v>
   <v>       0.43175293       0.84724875       0.55221189 </v>
   <v>       0.91011652       0.30474356       0.56531955 </v>
   <v>       0.94682402       0.85599237       0.56314541 </v>
   <v>       0.17544281       0.41736075       0.55540650 </v>
   <v>       0.15966737       0.93021111       0.55569049 </v>
   <v>       0.69186459       0.90189225       0.55674203 </v>
   <v>       0.48460535       0.22943445       0.53882445 </v>
   <v>       0.50372541       0.74092093       0.54051186 </v>
   <v>       0.99279631       0.25275770       0.54065196 </v>
   <v>       0.01195913       0.77776592       0.54050636 </v>
   <v>       0.24583491       0.51234004       0.53858306 </v>
   <v>       0.25859625       0.99181256       0.53910520 </v>
   <v>       0.77498823       0.98152810       0.53935171 </v>
   <v>       0.45127939       0.30558357       0.67483303 </v>
   <v>       0.44234704       0.79953974       0.67621905 </v>
   <v>       0.94336050       0.29885786       0.67418550 </v>
   <v>       0.94702386       0.80581934       0.67530578 </v>
   <v>       0.29747828       0.04496696       0.67561334 </v>
   <v>       0.29495869       0.55406965       0.67517600 </v>
   <v>       0.80887535       0.05528149       0.67318366 </v>
   <v>       0.82639848       0.53886645       0.67544259 </v>
   <v>       0.08375772       0.17076786       0.65007308 </v>
   <v>       0.08398584       0.67743909       0.65182153 </v>
   <v>       0.57360055       0.16641053       0.64979977 </v>
   <v>       0.57322328       0.67036309       0.65097310 </v>
   <v>       0.18259727       0.41286389       0.64849854 </v>
   <v>       0.16948033       0.92043402       0.64601086 </v>
   <v>       0.66019621       0.44505956       0.65179119 </v>
   <v>       0.66774468       0.92501112       0.65178704 </v>
   <v>       0.05338792       0.19861993       0.67538319 </v>
   <v>       0.04576999       0.70379676       0.67686585 </v>
   <v>       0.55051469       0.20209726       0.67552507 </v>
   <v>       0.54565004       0.69860600       0.67600350 </v>
   <v>       0.20585985       0.44403713       0.67431926 </v>
   <v>       0.19390110       0.94333723       0.67256457 </v>
   <v>       0.70486647       0.44830176       0.67592224 </v>
   <v>       0.70262194       0.95619884       0.67648430 </v>
   <v>       0.41853660       0.32819461       0.64928355 </v>
   <v>       0.41503780       0.82908460       0.65069924 </v>
   <v>       0.91860721       0.32205192       0.64869536 </v>
   <v>       0.92377135       0.83405070       0.64935705 </v>
   <v>       0.33056287       0.07716145       0.65096180 </v>
   <v>       0.32360524       0.58604653       0.65009395 </v>
   <v>       0.83081217       0.07857815       0.64667500 </v>
   <v>       0.84148408       0.57528541       0.65007247 </v>
   <v>       0.00158785       0.24678795       0.63144221 </v>
   <v>       0.01018108       0.75623602       0.63282707 </v>
   <v>       0.49147469       0.24053501       0.63183866 </v>
   <v>       0.49627503       0.74823695       0.63283941 </v>
   <v>       0.25144268       0.99991472       0.63065385 </v>
   <v>       0.25660727       0.50203915       0.63116549 </v>
   <v>       0.74400206       0.99667910       0.63154410 </v>
   <v>       0.73736836       0.52096750       0.63356520 </v>
   <v>       0.44874502       0.30128397       0.76888902 </v>
   <v>       0.44874501       0.80128391       0.76888902 </v>
   <v>       0.94874497       0.30128397       0.76888902 </v>
   <v>       0.94874501       0.80128391       0.76888902 </v>
   <v>       0.30127600       0.05129450       0.76887296 </v>
   <v>       0.30127601       0.55129450       0.76887296 </v>
   <v>       0.80127594       0.05129450       0.76887296 </v>
   <v>       0.80127598       0.55129450       0.76887296 </v>
   <v>       0.07877100       0.17118050       0.74344197 </v>
   <v>       0.07877101       0.67118045       0.74344197 </v>
   <v>       0.57877100       0.17118050       0.74344197 </v>
   <v>       0.57877099       0.67118045       0.74344197 </v>
   <v>       0.17119950       0.42117448       0.74342103 </v>
   <v>       0.17119950       0.92117451       0.74342103 </v>
   <v>       0.67119951       0.42117448       0.74342103 </v>
   <v>       0.67119950       0.92117451       0.74342103 </v>
   <v>       0.05125600       0.19871499       0.76888902 </v>
   <v>       0.05125600       0.69871493       0.76888902 </v>
   <v>       0.55125603       0.19871499       0.76888902 </v>
   <v>       0.55125602       0.69871493       0.76888902 </v>
   <v>       0.19872349       0.44870397       0.76887205 </v>
   <v>       0.19872349       0.94870397       0.76887205 </v>
   <v>       0.69872352       0.44870397       0.76887205 </v>
   <v>       0.69872351       0.94870397       0.76887205 </v>
   <v>       0.42123152       0.32881747       0.74344197 </v>
   <v>       0.42123151       0.82881744       0.74344197 </v>
   <v>       0.92123147       0.32881747       0.74344197 </v>
   <v>       0.92123151       0.82881744       0.74344197 </v>
   <v>       0.32880050       0.07882500       0.74342103 </v>
   <v>       0.32880049       0.57882496       0.74342103 </v>
   <v>       0.82880048       0.07882500       0.74342103 </v>
   <v>       0.82880052       0.57882496       0.74342103 </v>
   <v>       0.00000350       0.25000148       0.72582199 </v>
   <v>       0.00000350       0.75000145       0.72582199 </v>
   <v>       0.50000351       0.25000148       0.72582199 </v>
   <v>       0.50000350       0.75000145       0.72582199 </v>
   <v>       0.25000050       0.00000000       0.72580398 </v>
   <v>       0.25000052       0.50000000       0.72580398 </v>
   <v>       0.75000050       0.00000000       0.72580398 </v>
   <v>       0.75000049       0.50000000       0.72580398 </v>
   <v>       0.71848237       0.45405760       0.54770348 </v>
   <v>       0.74069780       0.51656982       0.52627213 </v>
   <v>       0.65601609       0.55080295       0.56241345 </v>
   <v>       0.68856069       0.64223912       0.56373122 </v>
   <v>       0.83940799       0.51649342       0.58105366 </v>
   <v>       0.77583352       0.58513862       0.58840754 </v>
   <v>       0.87669150       0.55929219       0.54468945 </v>
   <v>       0.81652391       0.62070801       0.53019296 </v>
   <v>       0.87321184       0.48245485       0.52841856 </v>
   <v>       0.86378473       0.45363116       0.55522928 </v>
   <v>       0.88671726       0.35319913       0.53094488 </v>
   <v>       0.79400959       0.34095426       0.54108924 </v>
   <v>       0.62067968       0.56023426       0.52715878 </v>
   <v>       0.69964822       0.61353581       0.51947500 </v>
   <v>       0.62768037       0.65718267       0.53251514 </v>
   <v>       0.72374529       0.46778707       0.60322923 </v>
   <v>       0.74327311       0.41837539       0.57910680 </v>
   <v>       0.66862392       0.48324270       0.58081484 </v>
   <v>       0.84088764       0.67815930       0.57406770 </v>
   <v>       0.87625520       0.71328572       0.55035593 </v>
   <v>       0.92494576       0.63782455       0.56464071 </v>
   <v>       0.84197135       0.39846645       0.49662265 </v>
   <v>       0.80343970       0.31041744       0.50344176 </v>
   <v>       0.67472183       0.31999964       0.52457917 </v>
   <v>       0.75499329       0.48861761       0.48136297 </v>
   <v>       0.54590452       0.36845579       0.52157973 </v>
   <v>       0.62586332       0.53879053       0.47802771 </v>
   <v>       0.52331701       0.48382674       0.49845129 </v>
   <v>       0.00346543       0.24446163       0.55784516 </v>
   <v>       0.01320205       0.76547926       0.55781579 </v>
   <v>       0.49267959       0.24125100       0.55583725 </v>
   <v>       0.49406042       0.75315094       0.55753174 </v>
   <v>       0.24774364       0.50426194       0.55619132 </v>
   <v>       0.25126365       0.99624206       0.55671163 </v>
   <v>       0.76039325       0.99227102       0.55633570 </v>
   <v>       0.00043610       0.24714602       0.64908209 </v>
   <v>       0.00333259       0.75673532       0.65037111 </v>
   <v>       0.49603384       0.24708675       0.64921878 </v>
   <v>       0.49491602       0.74958124       0.65046421 </v>
   <v>       0.25318553       0.49907451       0.64878363 </v>
   <v>       0.25040727       0.99932421       0.64810210 </v>
   <v>       0.74951966       0.50908960       0.65099196 </v>
   <v>       0.75020696       0.00174513       0.64883162 </v>
   <v>       0.49998898       0.24999498       0.74327702 </v>
   <v>       0.49998903       0.74999496       0.74327702 </v>
   <v>       0.99998898       0.24999498       0.74327702 </v>
   <v>       0.99998903       0.74999496       0.74327702 </v>
   <v>       0.25000050       0.00000100       0.74325596 </v>
   <v>       0.25000052       0.50000100       0.74325596 </v>
   <v>       0.75000050       0.00000100       0.74325596 </v>
   <v>       0.75000049       0.50000100       0.74325596 </v>
   <v>       0.72349218       0.40002164       0.50260816 </v>
   <v>       0.66392781       0.36699857       0.51383983 </v>
   <v>       0.70892829       0.46056244       0.48969508 </v>
   <v>       0.59135570       0.39541047       0.51263952 </v>
   <v>       0.63776833       0.49002989       0.48809570 </v>
   <v>       0.57830595       0.45848353       0.49950585 </v>
   <v>       0.76130245       0.49126319       0.54126384 </v>
   <v>       0.68912084       0.59106806       0.55426314 </v>
   <v>       0.78106619       0.53372316       0.57910796 </v>
   <v>       0.83451744       0.60222575       0.54625825 </v>
   <v>       0.83625926       0.45233930       0.53953137 </v>
   <v>       0.82982943       0.37595974       0.53065118 </v>
   <v>       0.65722574       0.60517360       0.53217730 </v>
   <v>       0.72686944       0.47312180       0.58574496 </v>
   <v>       0.87095819       0.66143843       0.55966547 </v>
   <v>       0.80311519       0.36924908       0.50757277 </v>
   <v>       0.06094282       0.20564021       0.56443656 </v>
   <v>       0.04769212       0.70832896       0.56519648 </v>
   <v>       0.55068200       0.20879051       0.56500455 </v>
   <v>       0.52459286       0.70664440       0.57114952 </v>
   <v>       0.44248930       0.28374565       0.56591513 </v>
   <v>       0.45430470       0.81160481       0.56357390 </v>
   <v>       0.95546504       0.27600577       0.57050675 </v>
   <v>       0.97707835       0.81373789       0.56943921 </v>
   <v>       0.20870634       0.45087517       0.56519477 </v>
   <v>       0.19533359       0.96050164       0.56544684 </v>
   <v>       0.71295382       0.94713494       0.56568059 </v>
   <v>       0.29955222       0.03684149       0.56742758 </v>
   <v>       0.29139214       0.54986294       0.56667749 </v>
   <v>       0.79213037       0.04916017       0.56583205 </v>
   <v>       0.04864211       0.20293540       0.65881726 </v>
   <v>       0.04791182       0.70949120       0.66064355 </v>
   <v>       0.54333256       0.20230159       0.65905345 </v>
   <v>       0.54027466       0.70468840       0.66046395 </v>
   <v>       0.21260091       0.44792378       0.65797438 </v>
   <v>       0.20252179       0.95279297       0.65657761 </v>
   <v>       0.70255224       0.46553926       0.66048232 </v>
   <v>       0.70527792       0.95951740       0.66013594 </v>
   <v>       0.45256212       0.29658508       0.65848730 </v>
   <v>       0.44762919       0.79556502       0.65980946 </v>
   <v>       0.95321004       0.29028811       0.65842637 </v>
   <v>       0.95578956       0.80103075       0.65893569 </v>
   <v>       0.29569924       0.04311019       0.65909838 </v>
   <v>       0.29288855       0.55223308       0.65880517 </v>
   <v>       0.80015489       0.04769863       0.65694243 </v>
   <v>       0.80843221       0.54189413       0.65965794 </v>
   <v>       0.04586250       0.20411950       0.75272599 </v>
   <v>       0.04586250       0.70411946       0.75272599 </v>
   <v>       0.54586251       0.20411950       0.75272599 </v>
   <v>       0.54586250       0.70411946       0.75272599 </v>
   <v>       0.20411900       0.45410100       0.75270499 </v>
   <v>       0.20411899       0.95410095       0.75270499 </v>
   <v>       0.70411898       0.45410100       0.75270499 </v>
   <v>       0.70411896       0.95410095       0.75270499 </v>
   <v>       0.45414002       0.29588849       0.75272697 </v>
   <v>       0.45414001       0.79588852       0.75272697 </v>
   <v>       0.95414002       0.29588849       0.75272697 </v>
[...]
   <v>       0.58826176       0.18032120       0.55593804 </v>
   <v>       0.55082718       0.66102967       0.56554445 </v>
   <v>       0.34282170       0.06266627       0.55896501 </v>
   <v>       0.32074739       0.59032024       0.55829129 </v>
   <v>       0.82857856       0.08236071       0.55718194 </v>
   <v>       0.07195392       0.19701481       0.58013978 </v>
   <v>       0.05041937       0.69454470       0.58135914 </v>
   <v>       0.56417627       0.21696555       0.58151145 </v>
   <v>       0.51817766       0.71093780       0.58731620 </v>
   <v>       0.20697536       0.43835744       0.58115994 </v>
   <v>       0.18289998       0.96010239       0.58148361 </v>
   <v>       0.69569101       0.95138907       0.58113631 </v>
   <v>       0.39718029       0.30328962       0.55779803 </v>
   <v>       0.43175293       0.84724875       0.55221189 </v>
   <v>       0.91011652       0.30474356       0.56531955 </v>
   <v>       0.94682402       0.85599237       0.56314541 </v>
   <v>       0.17544281       0.41736075       0.55540650 </v>
   <v>       0.15966737       0.93021111       0.55569049 </v>
   <v>       0.69186459       0.90189225       0.55674203 </v>
   <v>       0.48460535       0.22943445       0.53882445 </v>
   <v>       0.50372541       0.74092093       0.54051186 </v>
   <v>       0.99279631       0.25275770       0.54065196 </v>
   <v>       0.01195913       0.77776592       0.54050636 </v>
   <v>       0.24583491       0.51234004       0.53858306 </v>
   <v>       0.25859625       0.99181256       0.53910520 </v>
   <v>       0.77498823       0.98152810       0.53935171 </v>
   <v>       0.45127939       0.30558357       0.67483303 </v>
   <v>       0.44234704       0.79953974       0.67621905 </v>
   <v>       0.94336050       0.29885786       0.67418550 </v>
   <v>       0.94702386       0.80581934       0.67530578 </v>
   <v>       0.29747828       0.04496696       0.67561334 </v>
   <v>       0.29495869       0.55406965       0.67517600 </v>
   <v>       0.80887535       0.05528149       0.67318366 </v>
   <v>       0.82639848       0.53886645       0.67544259 </v>
   <v>       0.08375772       0.17076786       0.65007308 </v>
   <v>       0.08398584       0.67743909       0.65182153 </v>
   <v>       0.57360055       0.16641053       0.64979977 </v>
   <v>       0.57322328       0.67036309       0.65097310 </v>
   <v>       0.18259727       0.41286389       0.64849854 </v>
   <v>       0.16948033       0.92043402       0.64601086 </v>
   <v>       0.66019621       0.44505956       0.65179119 </v>
   <v>       0.66774468       0.92501112       0.65178704 </v>
   <v>       0.05338792       0.19861993       0.67538319 </v>
   <v>       0.04576999       0.70379676       0.67686585 </v>
   <v>       0.55051469       0.20209726       0.67552507 </v>
   <v>       0.54565004       0.69860600       0.67600350 </v>
   <v>       0.20585985       0.44403713       0.67431926 </v>
   <v>       0.19390110       0.94333723       0.67256457 </v>
   <v>       0.70486647       0.44830176       0.67592224 </v>
   <v>       0.70262194       0.95619884       0.67648430 </v>
   <v>       0.41853660       0.32819461       0.64928355 </v>
   <v>       0.41503780       0.82908460       0.65069924 </v>
   <v>       0.91860721       0.32205192       0.64869536 </v>
   <v>       0.92377135       0.83405070       0.64935705 </v>
   <v>       0.33056287       0.07716145       0.65096180 </v>
   <v>       0.32360524       0.58604653       0.65009395 </v>
   <v>       0.83081217       0.07857815       0.64667500 </v>
   <v>       0.84148408       0.57528541       0.65007247 </v>
   <v>       0.00158785       0.24678795       0.63144221 </v>
   <v>       0.01018108       0.75623602       0.63282707 </v>
   <v>       0.49147469       0.24053501       0.63183866 </v>
   <v>       0.49627503       0.74823695       0.63283941 </v>
   <v>       0.25144268       0.99991472       0.63065385 </v>
   <v>       0.25660727       0.50203915       0.63116549 </v>
   <v>       0.74400206       0.99667910       0.63154410 </v>
   <v>       0.73736836       0.52096750       0.63356520 </v>
   <v>       0.44874502       0.30128397       0.76888902 </v>
   <v>       0.44874501       0.80128391       0.76888902 </v>
   <v>       0.94874497       0.30128397       0.76888902 </v>
   <v>       0.94874501       0.80128391       0.76888902 </v>
   <v>       0.30127600       0.05129450       0.76887296 </v>
   <v>       0.30127601       0.55129450       0.76887296 </v>
   <v>       0.80127594       0.05129450       0.76887296 </v>
   <v>       0.80127598       0.55129450       0.76887296 </v>
   <v>       0.07877100       0.17118050       0.74344197 </v>
   <v>       0.07877101       0.67118045       0.74344197 </v>
   <v>       0.57877100       0.17118050       0.74344197 </v>
   <v>       0.57877099       0.67118045       0.74344197 </v>
   <v>       0.17119950       0.42117448       0.74342103 </v>
   <v>       0.17119950       0.92117451       0.74342103 </v>
   <v>       0.67119951       0.42117448       0.74342103 </v>
   <v>       0.67119950       0.92117451       0.74342103 </v>
   <v>       0.05125600       0.19871499       0.76888902 </v>
   <v>       0.05125600       0.69871493       0.76888902 </v>
   <v>       0.55125603       0.19871499       0.76888902 </v>
   <v>       0.55125602       0.69871493       0.76888902 </v>
   <v>       0.19872349       0.44870397       0.76887205 </v>
   <v>       0.19872349       0.94870397       0.76887205 </v>
   <v>       0.69872352       0.44870397       0.76887205 </v>
   <v>       0.69872351       0.94870397       0.76887205 </v>
   <v>       0.42123152       0.32881747       0.74344197 </v>
   <v>       0.42123151       0.82881744       0.74344197 </v>
   <v>       0.92123147       0.32881747       0.74344197 </v>
   <v>       0.92123151       0.82881744       0.74344197 </v>
   <v>       0.32880050       0.07882500       0.74342103 </v>
   <v>       0.32880049       0.57882496       0.74342103 </v>
   <v>       0.82880048       0.07882500       0.74342103 </v>
   <v>       0.82880052       0.57882496       0.74342103 </v>
   <v>       0.00000350       0.25000148       0.72582199 </v>
   <v>       0.00000350       0.75000145       0.72582199 </v>
   <v>       0.50000351       0.25000148       0.72582199 </v>
   <v>       0.50000350       0.75000145       0.72582199 </v>
   <v>       0.25000050       0.00000000       0.72580398 </v>
   <v>       0.25000052       0.50000000       0.72580398 </v>
   <v>       0.75000050       0.00000000       0.72580398 </v>
   <v>       0.75000049       0.50000000       0.72580398 </v>
   <v>       0.71848237       0.45405760       0.54770348 </v>
   <v>       0.74069780       0.51656982       0.52627213 </v>
   <v>       0.65601609       0.55080295       0.56241345 </v>
   <v>       0.68856069       0.64223912       0.56373122 </v>
   <v>       0.83940799       0.51649342       0.58105366 </v>
   <v>       0.77583352       0.58513862       0.58840754 </v>
   <v>       0.87669150       0.55929219       0.54468945 </v>
   <v>       0.81652391       0.62070801       0.53019296 </v>
   <v>       0.87321184       0.48245485       0.52841856 </v>
   <v>       0.86378473       0.45363116       0.55522928 </v>
   <v>       0.88671726       0.35319913       0.53094488 </v>
   <v>       0.79400959       0.34095426       0.54108924 </v>
   <v>       0.62067968       0.56023426       0.52715878 </v>
   <v>       0.69964822       0.61353581       0.51947500 </v>
   <v>       0.62768037       0.65718267       0.53251514 </v>
   <v>       0.72374529       0.46778707       0.60322923 </v>
   <v>       0.74327311       0.41837539       0.57910680 </v>
   <v>       0.66862392       0.48324270       0.58081484 </v>
   <v>       0.84088764       0.67815930       0.57406770 </v>
   <v>       0.87625520       0.71328572       0.55035593 </v>
   <v>       0.92494576       0.63782455       0.56464071 </v>
   <v>       0.84197135       0.39846645       0.49662265 </v>
   <v>       0.80343970       0.31041744       0.50344176 </v>
   <v>       0.67472183       0.31999964       0.52457917 </v>
   <v>       0.75499329       0.48861761       0.48136297 </v>
   <v>       0.54590452       0.36845579       0.52157973 </v>
   <v>       0.62586332       0.53879053       0.47802771 </v>
   <v>       0.52331701       0.48382674       0.49845129 </v>
   <v>       0.00346543       0.24446163       0.55784516 </v>
   <v>       0.01320205       0.76547926       0.55781579 </v>
   <v>       0.49267959       0.24125100       0.55583725 </v>
   <v>       0.49406042       0.75315094       0.55753174 </v>
   <v>       0.24774364       0.50426194       0.55619132 </v>
   <v>       0.25126365       0.99624206       0.55671163 </v>
   <v>       0.76039325       0.99227102       0.55633570 </v>
   <v>       0.00043610       0.24714602       0.64908209 </v>
   <v>       0.00333259       0.75673532       0.65037111 </v>
   <v>       0.49603384       0.24708675       0.64921878 </v>
   <v>       0.49491602       0.74958124       0.65046421 </v>
   <v>       0.25318553       0.49907451       0.64878363 </v>
   <v>       0.25040727       0.99932421       0.64810210 </v>
   <v>       0.74951966       0.50908960       0.65099196 </v>
   <v>       0.75020696       0.00174513       0.64883162 </v>
   <v>       0.49998898       0.24999498       0.74327702 </v>
   <v>       0.49998903       0.74999496       0.74327702 </v>
   <v>       0.99998898       0.24999498       0.74327702 </v>
   <v>       0.99998903       0.74999496       0.74327702 </v>
   <v>       0.25000050       0.00000100       0.74325596 </v>
   <v>       0.25000052       0.50000100       0.74325596 </v>
   <v>       0.75000050       0.00000100       0.74325596 </v>
   <v>       0.75000049       0.50000100       0.74325596 </v>
   <v>       0.72349218       0.40002164       0.50260816 </v>
   <v>       0.66392781       0.36699857       0.51383983 </v>
   <v>       0.70892829       0.46056244       0.48969508 </v>
   <v>       0.59135570       0.39541047       0.51263952 </v>
   <v>       0.63776833       0.49002989       0.48809570 </v>
   <v>       0.57830595       0.45848353       0.49950585 </v>
   <v>       0.76130245       0.49126319       0.54126384 </v>
   <v>       0.68912084       0.59106806       0.55426314 </v>
   <v>       0.78106619       0.53372316       0.57910796 </v>
   <v>       0.83451744       0.60222575       0.54625825 </v>
   <v>       0.83625926       0.45233930       0.53953137 </v>
   <v>       0.82982943       0.37595974       0.53065118 </v>
   <v>       0.65722574       0.60517360       0.53217730 </v>
   <v>       0.72686944       0.47312180       0.58574496 </v>
   <v>       0.87095819       0.66143843       0.55966547 </v>
   <v>       0.80311519       0.36924908       0.50757277 </v>
   <v>       0.06094282       0.20564021       0.56443656 </v>
   <v>       0.04769212       0.70832896       0.56519648 </v>
   <v>       0.55068200       0.20879051       0.56500455 </v>
   <v>       0.52459286       0.70664440       0.57114952 </v>
   <v>       0.44248930       0.28374565       0.56591513 </v>
   <v>       0.45430470       0.81160481       0.56357390 </v>
   <v>       0.95546504       0.27600577       0.57050675 </v>
   <v>       0.97707835       0.81373789       0.56943921 </v>
   <v>       0.20870634       0.45087517       0.56519477 </v>
   <v>       0.19533359       0.96050164       0.56544684 </v>
   <v>       0.71295382       0.94713494       0.56568059 </v>
   <v>       0.29955222       0.03684149       0.56742758 </v>
   <v>       0.29139214       0.54986294       0.56667749 </v>
   <v>       0.79213037       0.04916017       0.56583205 </v>
   <v>       0.04864211       0.20293540       0.65881726 </v>
   <v>       0.04791182       0.70949120       0.66064355 </v>
   <v>       0.54333256       0.20230159       0.65905345 </v>
   <v>       0.54027466       0.70468840       0.66046395 </v>
   <v>       0.21260091       0.44792378       0.65797438 </v>
   <v>       0.20252179       0.95279297       0.65657761 </v>
   <v>       0.70255224       0.46553926       0.66048232 </v>
   <v>       0.70527792       0.95951740       0.66013594 </v>
   <v>       0.45256212       0.29658508       0.65848730 </v>
   <v>       0.44762919       0.79556502       0.65980946 </v>
   <v>       0.95321004       0.29028811       0.65842637 </v>
   <v>       0.95578956       0.80103075       0.65893569 </v>
   <v>       0.29569924       0.04311019       0.65909838 </v>
   <v>       0.29288855       0.55223308       0.65880517 </v>
   <v>       0.80015489       0.04769863       0.65694243 </v>
   <v>       0.80843221       0.54189413       0.65965794 </v>
   <v>       0.04586250       0.20411950       0.75272599 </v>
   <v>       0.04586250       0.70411946       0.75272599 </v>
   <v>       0.54586251       0.20411950       0.75272599 </v>
   <v>       0.54586250       0.70411946       0.75272599 </v>
   <v>       0.20411900       0.45410100       0.75270499 </v>
   <v>       0.20411899       0.95410095       0.75270499 </v>
   <v>       0.70411898       0.45410100       0.75270499 </v>
   <v>       0.70411896       0.95410095       0.75270499 </v>
   <v>       0.45414002       0.29588849       0.75272697 </v>
   <v>       0.45414001       0.79588852       0.75272697 </v>
   <v>       0.95414002       0.29588849       0.75272697 </v>
   <v>       0.95414006       0.79588852       0.75272697 </v>
   <v>       0.29588249       0.04590050       0.75270499 </v>
   <v>       0.29588248       0.54590053       0.75270499 </v>
   <v>       0.79588244       0.04590050       0.75270499 </v>
   <v>       0.79588248       0.54590053       0.75270499 </v>
   <v>       0.76558310       0.55901743       0.55538092 </v>
   <v>       0.49757181       0.01176316       0.55212771 </v>
   <v>       0.48551376       0.51511123       0.55528422 </v>
   <v>       0.99721779       0.00264191       0.55203033 </v>
   <v>       0.02028771       0.51200567       0.55650376 </v>
   <v>       0.25200355       0.24566423       0.55096017 </v>
   <v>       0.25064526       0.75386059       0.55220456 </v>
   <v>       0.73205424       0.22909322       0.55766238 </v>
   <v>       0.72988921       0.77069683       0.54680450 </v>
   <v>       0.00554434       0.00205547       0.65418572 </v>
   <v>       0.01237035       0.50270488       0.65643122 </v>
   <v>       0.50032230       0.00267085       0.65473081 </v>
   <v>       0.50201301       0.49784337       0.65562582 </v>
   <v>       0.24968048       0.24446514       0.65488599 </v>
   <v>       0.24678316       0.75164726       0.65450353 </v>
   <v>       0.74378146       0.25266066       0.65622415 </v>
   <v>       0.75145731       0.75525340       0.65405623 </v>
   <v>       0.14323974       0.10636540       0.60731721 </v>
   <v>       0.14878989       0.60804031       0.60916365 </v>
   <v>       0.64343051       0.10344060       0.60961686 </v>
   <v>       0.62425111       0.62716242       0.61313594 </v>
   <v>       0.35517025       0.39303629       0.60840782 </v>
   <v>       0.35842059       0.89458189       0.60941468 </v>
   <v>       0.87394931       0.37686987       0.61226241 </v>
   <v>       0.85411822       0.89617986       0.60942164 </v>
   <v>       0.11058187       0.35526067       0.60856239 </v>
   <v>       0.11445010       0.86498899       0.61036848 </v>
   <v>       0.59332105       0.34482119       0.60742044 </v>
   <v>       0.60334520       0.86125936       0.61022850 </v>
   <v>       0.39474398       0.14058430       0.60869377 </v>
   <v>       0.39148192       0.64076818       0.61082444 </v>
   <v>       0.88977428       0.13955876       0.60855983 </v>
   <v>       0.91089520       0.64688405       0.61337372 </v>
   <v>       0.00000000       0.00000000       0.75492797 </v>
   <v>       0.00000000       0.50000000       0.75492797 </v>
   <v>       0.50000000       0.00000000       0.75492797 </v>
   <v>       0.49999999       0.50000000       0.75492797 </v>
   <v>       0.25000050       0.25000000       0.75493902 </v>
   <v>       0.25000051       0.74999997       0.75493902 </v>
   <v>       0.75000047       0.25000000       0.75493902 </v>
   <v>       0.75000046       0.74999997       0.75493902 </v>
   <v>       0.13579050       0.11421000       0.70478299 </v>
   <v>       0.13579050       0.61420998       0.70478299 </v>
   <v>       0.63579045       0.11421000       0.70478299 </v>
   <v>       0.63579049       0.61420998       0.70478299 </v>
   <v>       0.36420952       0.38578999       0.70478299 </v>
   <v>       0.36420950       0.88578996       0.70478299 </v>
   <v>       0.86420954       0.38578999       0.70478299 </v>
   <v>       0.86420953       0.88578996       0.70478299 </v>
   <v>       0.11421799       0.36421899       0.70478098 </v>
   <v>       0.11421799       0.86421899       0.70478098 </v>
   <v>       0.61421800       0.36421899       0.70478098 </v>
   <v>       0.61421799       0.86421899       0.70478098 </v>
   <v>       0.38578201       0.13578149       0.70478202 </v>
   <v>       0.38578200       0.63578149       0.70478202 </v>
   <v>       0.88578199       0.13578149       0.70478202 </v>
   <v>       0.88578203       0.63578149       0.70478202 </v>
   <v>       0.13466700       0.11533200       0.80125603 </v>
   <v>       0.13466699       0.61533199       0.80125603 </v>
   <v>       0.63466699       0.11533200       0.80125603 </v>
   <v>       0.63466698       0.61533199       0.80125603 </v>
   <v>       0.36533300       0.38466799       0.80125603 </v>
   <v>       0.36533299       0.88466796       0.80125603 </v>
   <v>       0.86533295       0.38466799       0.80125603 </v>
   <v>       0.86533294       0.88466796       0.80125603 </v>
   <v>       0.11532850       0.36533700       0.80126500 </v>
   <v>       0.11532850       0.86533698       0.80126500 </v>
   <v>       0.61532850       0.36533700       0.80126500 </v>
   <v>       0.61532849       0.86533698       0.80126500 </v>
   <v>       0.38467151       0.13466300       0.80126500 </v>
   <v>       0.38467150       0.63466297       0.80126500 </v>
   <v>       0.88467149       0.13466300       0.80126500 </v>
   <v>       0.88467153       0.63466297       0.80126500 </v>
   <v>       0.99861078       0.00094365       0.60332068 </v>
   <v>       0.00283864       0.50375724       0.60620554 </v>
   <v>       0.49646513       0.00509262       0.60195628 </v>
   <v>       0.49837658       0.49779638       0.60506878 </v>
   <v>       0.25203148       0.25050073       0.60320298 </v>
   <v>       0.24813725       0.74891356       0.60267883 </v>
   <v>       0.74344568       0.25087800       0.60618790 </v>
   <v>       0.74438915       0.76247132       0.60537352 </v>
   <v>       0.00000050       0.00000050       0.70482896 </v>
   <v>       0.00000050       0.50000048       0.70482896 </v>
   <v>       0.50000048       0.00000050       0.70482896 </v>
   <v>       0.50000046       0.50000048       0.70482896 </v>
   <v>       0.24999999       0.24999947       0.70482499 </v>
   <v>       0.25000001       0.74999950       0.70482499 </v>
   <v>       0.74999999       0.24999947       0.70482499 </v>
   <v>       0.74999998       0.74999950       0.70482499 </v>
   <v>       0.00000000       0.00000000       0.80731797 </v>
   <v>       0.00000000       0.50000000       0.80731797 </v>
   <v>       0.50000000       0.00000000       0.80731797 </v>
   <v>       0.49999999       0.50000000       0.80731797 </v>
   <v>       0.24999999       0.25000000       0.80731797 </v>
   <v>       0.25000001       0.74999997       0.80731797 </v>
   <v>       0.74999999       0.25000000       0.80731797 </v>
   <v>       0.74999998       0.74999997       0.80731797 </v>
  </varray>
 </structure>
</modeling>
