<?xml version="1.0" encoding="ISO-8859-1"?>
<modeling>
 <generator>
  <i name="program" type="string">vasp </i>
  <i name="version" type="string">6.2.1  </i>
  <i name="subversion" type="string">16May21 (build Nov 15 2021 14:57:28) complex                          parallel </i>
  <i name="platform" type="string">LinuxPGI </i>
  <i name="date" type="string">2023 07 30 </i>
  <i name="time" type="string">13:54:19 </i>
 </generator>
 <incar>
  <i type="string" name="SYSTEM">PSC</i>
  <i type="int" name="ISTART">     1</i>
  <i type="string" name="PREC">Normal</i>
  <i name="BMIX">      0.01000000</i>
  <i name="AMIN">      0.01000000</i>
  <i type="int" name="ICHARG">     1</i>
  <i type="int" name="NELM">   600</i>
  <i type="int" name="ISYM">     0</i>
  <i name="ENCUT">    500.00000000</i>
  <i type="string" name="LREAL">Auto</i>
  <i type="int" name="ISMEAR">     0</i>
  <i name="SIGMA">      0.05000000</i>
  <i type="logical" name="LWAVE"> F  </i>
  <i type="logical" name="LVTOT"> T  </i>
  <i type="logical" name="GGA_COMPAT"> F  </i>
  <i type="logical" name="LDIPOL"> T  </i>
  <i type="int" name="IDIPOL">     3</i>
  <i type="int" name="IVDW">    12</i>
 </incar>
 <primitive_cell>
  <structure name="primitive_cell" >
   <crystal>
    <varray name="basis" >
     <v>      18.06080055       0.00000000       0.00000000 </v>
     <v>      -0.00491865      18.06279945       0.00000000 </v>
     <v>       0.00000000       0.00000000      62.48749924 </v>
    </varray>
    <i name="volume">  20385.21054034 </i>
    <varray name="rec_basis" >
     <v>       0.05536853       0.00001508      -0.00000000 </v>
     <v>       0.00000000       0.05536240       0.00000000 </v>
     <v>       0.00000000      -0.00000000       0.01600320 </v>
    </varray>
   </crystal>
   <varray name="positions" >
    <v>       0.40821002       0.28125793       0.56414531 </v>
    <v>       0.41417965       0.69794862       0.57236540 </v>
    <v>       0.92725600       0.29147898       0.58048695 </v>
    <v>       0.93044851       0.81576184       0.57325815 </v>
    <v>       0.32398223       0.09266073       0.56435757 </v>
    <v>       0.32113268       0.57534549       0.56928415 </v>
    <v>       0.80249312       0.10133368       0.56716624 </v>
    <v>       0.11057212       0.24126649       0.56210993 </v>
    <v>       0.07824054       0.68035463       0.56958609 </v>
    <v>       0.58795943       0.18796713       0.56487256 </v>
    <v>       0.60021264       0.75502980       0.55882509 </v>
    <v>       0.37783956       0.01912152       0.55455403 </v>
    <v>       0.25364202       0.62277784       0.55463156 </v>
    <v>       0.87550790       0.04544888       0.55736417 </v>
    <v>       0.06368164       0.28784508       0.58245665 </v>
    <v>       0.99294313       0.69492532       0.58189983 </v>
    <v>       0.49384329       0.17264932       0.57102132 </v>
    <v>       0.55076532       0.69137135       0.57419908 </v>
    <v>       0.30808791       0.43856784       0.57249653 </v>
    <v>       0.18877691       0.06822208       0.56945246 </v>
    <v>       0.68101676       0.03382339       0.57323831 </v>
    <v>       0.45278904       0.36375883       0.55663856 </v>
    <v>       0.37509272       0.76491754       0.55553232 </v>
    <v>       0.88517377       0.24214507       0.55986552 </v>
    <v>       0.97745514       0.87300785       0.55564471 </v>
    <v>       0.23498725       0.39829803       0.55866075 </v>
    <v>       0.15481042       0.98580602       0.55938160 </v>
    <v>       0.67892790       0.94173390       0.56442222 </v>
    <v>       0.56965857       0.30856495       0.55486525 </v>
    <v>       0.49302021       0.80986243       0.54509773 </v>
    <v>       0.00015053       0.20295207       0.54538789 </v>
    <v>       0.07296811       0.78932719       0.55009086 </v>
    <v>       0.19004040       0.51246570       0.54624793 </v>
    <v>       0.27278531       0.94290917       0.54947770 </v>
    <v>       0.80047401       0.94174321       0.55370419 </v>
    <v>       0.45342088       0.29470326       0.67291328 </v>
    <v>       0.44134013       0.81261625       0.67100927 </v>
    <v>       0.95947460       0.28297523       0.67752339 </v>
    <v>       0.91416585       0.73908141       0.66681330 </v>
    <v>       0.29821049       0.04249500       0.67482137 </v>
    <v>       0.30230059       0.55963669       0.67362424 </v>
    <v>       0.79754080       0.05388568       0.67501453 </v>
    <v>       0.83117201       0.49034562       0.66820164 </v>
    <v>       0.09099385       0.17120508       0.64676919 </v>
    <v>       0.10648879       0.69933429       0.65320255 </v>
    <v>       0.57779020       0.16349020       0.64685728 </v>
    <v>       0.57565449       0.67551340       0.65139994 </v>
    <v>       0.18658977       0.41174354       0.65115856 </v>
    <v>       0.16270453       0.93021260       0.64578285 </v>
    <v>       0.63795658       0.46950663       0.65227640 </v>
    <v>       0.67418113       0.91768416       0.65008339 </v>
    <v>       0.06417338       0.18858192       0.67303934 </v>
    <v>       0.02745790       0.65707148       0.66333556 </v>
    <v>       0.54431086       0.18701639       0.67209549 </v>
    <v>       0.54362798       0.71331465       0.67536750 </v>
    <v>       0.21633678       0.44611773       0.67586077 </v>
    <v>       0.18611527       0.95470772       0.67203084 </v>
    <v>       0.70088717       0.43541521       0.67081294 </v>
    <v>       0.69869050       0.95092258       0.67541475 </v>
    <v>       0.43804664       0.33829782       0.64845441 </v>
    <v>       0.41575868       0.82939573       0.64456074 </v>
    <v>       0.92611576       0.32009357       0.65354051 </v>
    <v>       0.92584480       0.83038923       0.65824231 </v>
    <v>       0.34128725       0.06234345       0.65080430 </v>
    <v>       0.31977981       0.59029215       0.64771207 </v>
    <v>       0.82819199       0.07911221       0.64958103 </v>
    <v>       0.84294405       0.55749786       0.64860941 </v>
    <v>       0.00569669       0.25257072       0.63244113 </v>
    <v>       0.04785806       0.81254239       0.64761287 </v>
    <v>       0.51381919       0.25796723       0.62969302 </v>
    <v>       0.49824290       0.74548588       0.63032474 </v>
    <v>       0.25807426       0.99444720       0.63059048 </v>
    <v>       0.24878786       0.49953960       0.63166577 </v>
    <v>       0.75378587       0.99451107       0.63219420 </v>
    <v>       0.72198962       0.54881053       0.63641782 </v>
    <v>       0.44874502       0.30128397       0.76888902 </v>
    <v>       0.44874501       0.80128391       0.76888902 </v>
    <v>       0.94874497       0.30128397       0.76888902 </v>
    <v>       0.94874501       0.80128391       0.76888902 </v>
    <v>       0.30127600       0.05129450       0.76887296 </v>
    <v>       0.30127601       0.55129450       0.76887296 </v>
    <v>       0.80127594       0.05129450       0.76887296 </v>
    <v>       0.80127598       0.55129450       0.76887296 </v>
    <v>       0.07877100       0.17118050       0.74344197 </v>
    <v>       0.07877101       0.67118045       0.74344197 </v>
    <v>       0.57877100       0.17118050       0.74344197 </v>
    <v>       0.57877099       0.67118045       0.74344197 </v>
    <v>       0.17119950       0.42117448       0.74342103 </v>
    <v>       0.17119950       0.92117451       0.74342103 </v>
    <v>       0.67119951       0.42117448       0.74342103 </v>
    <v>       0.67119950       0.92117451       0.74342103 </v>
    <v>       0.05125600       0.19871499       0.76888902 </v>
    <v>       0.05125600       0.69871493       0.76888902 </v>
    <v>       0.55125603       0.19871499       0.76888902 </v>
    <v>       0.55125602       0.69871493       0.76888902 </v>
    <v>       0.19872349       0.44870397       0.76887205 </v>
    <v>       0.19872349       0.94870397       0.76887205 </v>
    <v>       0.69872352       0.44870397       0.76887205 </v>
    <v>       0.69872351       0.94870397       0.76887205 </v>
    <v>       0.42123152       0.32881747       0.74344197 </v>
    <v>       0.42123151       0.82881744       0.74344197 </v>
    <v>       0.92123147       0.32881747       0.74344197 </v>
    <v>       0.92123151       0.82881744       0.74344197 </v>
    <v>       0.32880050       0.07882500       0.74342103 </v>
    <v>       0.32880049       0.57882496       0.74342103 </v>
    <v>       0.82880048       0.07882500       0.74342103 </v>
    <v>       0.82880052       0.57882496       0.74342103 </v>
    <v>       0.00000350       0.25000148       0.72582199 </v>
    <v>       0.00000350       0.75000145       0.72582199 </v>
    <v>       0.50000351       0.25000148       0.72582199 </v>
    <v>       0.50000350       0.75000145       0.72582199 </v>
    <v>       0.25000050       0.00000000       0.72580398 </v>
    <v>       0.25000052       0.50000000       0.72580398 </v>
    <v>       0.75000050       0.00000000       0.72580398 </v>
    <v>       0.75000049       0.50000000       0.72580398 </v>
    <v>       0.79988481       0.50838876       0.51435971 </v>
    <v>       0.87860046       0.50076039       0.53109658 </v>
    <v>       0.76073066       0.62066709       0.53196474 </v>
    <v>       0.75905315       0.62378120       0.56010922 </v>
    <v>       0.68673525       0.44593505       0.55032736 </v>
    <v>       0.66937358       0.53852865       0.55779791 </v>
    <v>       0.79646571       0.42515223       0.56658421 </v>
    <v>       0.86555214       0.49557038       0.56913080 </v>
    <v>       0.85727852       0.37481881       0.53923182 </v>
    <v>       0.76289381       0.37674107       0.53261080 </v>
    <v>       0.78347842       0.38251466       0.49533159 </v>
    <v>       0.87622610       0.40848923       0.49784167 </v>
    <v>       0.89778642       0.61864658       0.53109683 </v>
    <v>       0.90233451       0.60553817       0.55930065 </v>
    <v>       0.86647856       0.68903610       0.54867035 </v>
    <v>       0.60016436       0.51223645       0.52576275 </v>
    <v>       0.68032942       0.48481337       0.51092208 </v>
    <v>       0.66672668       0.57918753       0.51894315 </v>
    <v>       0.70719258       0.50514482       0.58745527 </v>
    <v>       0.77751624       0.57319947       0.59085261 </v>
    <v>       0.78802195       0.48314697       0.60155379 </v>
    <v>       0.82129383       0.25683688       0.51269916 </v>
    <v>       0.84593805       0.27416218       0.48614106 </v>
    <v>       0.92466423       0.15977571       0.49858541 </v>
    <v>       0.97318129       0.38428581       0.51775413 </v>
    <v>       0.05589194       0.12649299       0.50382950 </v>
    <v>       0.10231756       0.35141805       0.52274585 </v>
    <v>       0.14689628       0.22253548       0.51569690 </v>
    <v>       0.99820290       0.23775730       0.55970777 </v>
    <v>       0.02677948       0.77458232       0.56060908 </v>
    <v>       0.52159320       0.27524424       0.55927916 </v>
    <v>       0.48891560       0.76221900       0.55584573 </v>
    <v>       0.24101949       0.51052190       0.55564367 </v>
    <v>       0.26683895       0.99846081       0.55607265 </v>
    <v>       0.77721194       0.99272396       0.56006057 </v>
    <v>       0.00834504       0.24560945       0.64975813 </v>
    <v>       0.01726459       0.76616114       0.65482818 </v>
    <v>       0.50802199       0.25078735       0.64708408 </v>
    <v>       0.49592340       0.75244583       0.64774888 </v>
    <v>       0.25317457       0.50049244       0.64913435 </v>
    <v>       0.25152400       0.99635167       0.64790968 </v>
    <v>       0.74015893       0.51421927       0.64976943 </v>
    <v>       0.75125389       0.99763754       0.64965307 </v>
    <v>       0.49998898       0.24999498       0.74327702 </v>
    <v>       0.49998903       0.74999496       0.74327702 </v>
    <v>       0.99998898       0.24999498       0.74327702 </v>
    <v>       0.99998903       0.74999496       0.74327702 </v>
    <v>       0.25000050       0.00000100       0.74325596 </v>
    <v>       0.25000052       0.50000100       0.74325596 </v>
    <v>       0.75000050       0.00000100       0.74325596 </v>
    <v>       0.75000049       0.50000100       0.74325596 </v>
    <v>       0.93823204       0.27430962       0.50732211 </v>
    <v>       0.96345136       0.20230988       0.50382581 </v>
    <v>       0.99000721       0.32755246       0.51414751 </v>
    <v>       0.03822470       0.18342216       0.50646476 </v>
    <v>       0.06419742       0.30878211       0.51705734 </v>
    <v>       0.08909225       0.23689891       0.51297522 </v>
    <v>       0.82095952       0.48308499       0.52907195 </v>
    <v>       0.78962342       0.60194698       0.54641733 </v>
    <v>       0.69504333       0.50399441       0.54539943 </v>
    <v>       0.80556782       0.48522868       0.56834427 </v>
    <v>       0.81723461       0.39879850       0.52791693 </v>
    <v>       0.83361261       0.37350769       0.50498617 </v>
    <v>       0.86919784       0.62891916       0.54629066 </v>
    <v>       0.66024693       0.52077780       0.52384147 </v>
    <v>       0.76641202       0.51446034       0.58786044 </v>
    <v>       0.85731577       0.29212140       0.50272442 </v>
    <v>       0.06118619       0.25585994       0.56874871 </v>
    <v>       0.03111269       0.71078358       0.57051133 </v>
    <v>       0.53406882       0.20523743       0.56421063 </v>
    <v>       0.54998936       0.73186660       0.56269659 </v>
    <v>       0.45568495       0.30735742       0.55905206 </v>
    <v>       0.42191353       0.73909070       0.56105063 </v>
    <v>       0.93332139       0.25911481       0.56693804 </v>
    <v>       0.97061651       0.82092107       0.56182917 </v>
    <v>       0.26337017       0.44535517       0.56242865 </v>
    <v>       0.19990269       0.01933615       0.56146868 </v>
    <v>       0.70719926       0.99085996       0.56550208 </v>
    <v>       0.32591930       0.04002136       0.55798068 </v>
    <v>       0.27537442       0.57310782       0.55953531 </v>
    <v>       0.82080039       0.05040655       0.56178326 </v>
    <v>       0.05703483       0.19875064       0.65716623 </v>
    <v>       0.05170186       0.70343757       0.65729107 </v>
    <v>       0.54514516       0.19711277       0.65603331 </v>
    <v>       0.54072311       0.71104673       0.65922237 </v>
    <v>       0.21673996       0.44987217       0.65964292 </v>
    <v>       0.19648350       0.95863548       0.65603002 </v>
    <v>       0.69056661       0.46954776       0.65811686 </v>
    <v>       0.70577132       0.95256577       0.65926138 </v>
    <v>       0.46373122       0.29749982       0.65701874 </v>
    <v>       0.44801503       0.80082225       0.65516217 </v>
    <v>       0.96207919       0.28489461       0.66123266 </v>
    <v>       0.94772886       0.77880160       0.66019485 </v>
    <v>       0.29935646       0.03639158       0.65862722 </v>
    <v>       0.29427830       0.55331676       0.65767311 </v>
    <v>       0.79459530       0.04688067       0.65895565 </v>
    <v>       0.80879893       0.52054918       0.65603942 </v>
    <v>       0.04586250       0.20411950       0.75272599 </v>
    <v>       0.04586250       0.70411946       0.75272599 </v>
    <v>       0.54586251       0.20411950       0.75272599 </v>
    <v>       0.54586250       0.70411946       0.75272599 </v>
    <v>       0.20411900       0.45410100       0.75270499 </v>
    <v>       0.20411899       0.95410095       0.75270499 </v>
    <v>       0.70411898       0.45410100       0.75270499 </v>
    <v>       0.70411896       0.95410095       0.75270499 </v>
    <v>       0.45414002       0.29588849       0.75272697 </v>
    <v>       0.45414001       0.79588852       0.75272697 </v>
    <v>       0.95414002       0.29588849       0.75272697 </v>
    <v>       0.95414006       0.79588852       0.75272697 </v>
    <v>       0.29588249       0.04590050       0.75270499 </v>
    <v>       0.29588248       0.54590053       0.75270499 </v>
    <v>       0.79588244       0.04590050       0.75270499 </v>
    <v>       0.79588248       0.54590053       0.75270499 </v>
    <v>       0.77860029       0.51851895       0.54719221 </v>
    <v>       0.50998209       0.97848739       0.55275484 </v>
    <v>       0.47137290       0.50749997       0.55327729 </v>
    <v>       0.00844507       0.01259792       0.55112091 </v>
    <v>       0.03250003       0.49097080       0.55448944 </v>
    <v>       0.25627929       0.24178119       0.55477417 </v>
    <v>       0.23066688       0.76654603       0.55105345 </v>
    <v>       0.73541261       0.22736856       0.55486916 </v>
    <v>       0.72832602       0.79592716       0.55428042 </v>
    <v>       0.99591008       0.98354502       0.65422051 </v>
    <v>       0.00729419       0.50344716       0.65533554 </v>
    <v>       0.49727887       0.00133127       0.65451085 </v>
    <v>       0.49580286       0.50082956       0.65415617 </v>
    <v>       0.26360817       0.24016139       0.65542254 </v>
    <v>       0.24571202       0.75369148       0.65377456 </v>
    <v>       0.74368971       0.26125306       0.65526436 </v>
    <v>       0.74990565       0.73633661       0.65493263 </v>
    <v>       0.13630120       0.11723727       0.60908435 </v>
    <v>       0.14695137       0.60848291       0.60612373 </v>
    <v>       0.64007631       0.11094483       0.60888564 </v>
    <v>       0.61786463       0.63049586       0.60802872 </v>
    <v>       0.36787606       0.38479715       0.60850312 </v>
    <v>       0.36469061       0.88622686       0.60555642 </v>
    <v>       0.88750662       0.36464720       0.61206987 </v>
    <v>       0.86299560       0.89111857       0.60560398 </v>
    <v>       0.12629180       0.36960145       0.61104257 </v>
    <v>       0.11604657       0.87243848       0.60577882 </v>
    <v>       0.61669060       0.36913300       0.60172271 </v>
    <v>       0.61547830       0.86380479       0.61197512 </v>
    <v>       0.39691285       0.14037126       0.60391327 </v>
    <v>       0.37898272       0.63267028       0.60762117 </v>
    <v>       0.88198703       0.13299150       0.61264683 </v>
    <v>       0.90243295       0.64822459       0.61048899 </v>
    <v>       0.00000000       0.00000000       0.75492797 </v>
    <v>       0.00000000       0.50000000       0.75492797 </v>
    <v>       0.50000000       0.00000000       0.75492797 </v>
    <v>       0.49999999       0.50000000       0.75492797 </v>
    <v>       0.25000050       0.25000000       0.75493902 </v>
    <v>       0.25000051       0.74999997       0.75493902 </v>
    <v>       0.75000047       0.25000000       0.75493902 </v>
    <v>       0.75000046       0.74999997       0.75493902 </v>
    <v>       0.13579050       0.11421000       0.70478299 </v>
    <v>       0.13579050       0.61420998       0.70478299 </v>
    <v>       0.63579045       0.11421000       0.70478299 </v>
    <v>       0.63579049       0.61420998       0.70478299 </v>
    <v>       0.36420952       0.38578999       0.70478299 </v>
    <v>       0.36420950       0.88578996       0.70478299 </v>
    <v>       0.86420954       0.38578999       0.70478299 </v>
    <v>       0.86420953       0.88578996       0.70478299 </v>
    <v>       0.11421799       0.36421899       0.70478098 </v>
    <v>       0.11421799       0.86421899       0.70478098 </v>
    <v>       0.61421800       0.36421899       0.70478098 </v>
    <v>       0.61421799       0.86421899       0.70478098 </v>
    <v>       0.38578201       0.13578149       0.70478202 </v>
    <v>       0.38578200       0.63578149       0.70478202 </v>
    <v>       0.88578199       0.13578149       0.70478202 </v>
    <v>       0.88578203       0.63578149       0.70478202 </v>
    <v>       0.13466700       0.11533200       0.80125603 </v>
    <v>       0.13466699       0.61533199       0.80125603 </v>
    <v>       0.63466699       0.11533200       0.80125603 </v>
    <v>       0.63466698       0.61533199       0.80125603 </v>
    <v>       0.36533300       0.38466799       0.80125603 </v>
    <v>       0.36533299       0.88466796       0.80125603 </v>
    <v>       0.86533295       0.38466799       0.80125603 </v>
    <v>       0.86533294       0.88466796       0.80125603 </v>
    <v>       0.11532850       0.36533700       0.80126500 </v>
    <v>       0.11532850       0.86533698       0.80126500 </v>
    <v>       0.61532850       0.36533700       0.80126500 </v>
    <v>       0.61532849       0.86533698       0.80126500 </v>
    <v>       0.38467151       0.13466300       0.80126500 </v>
    <v>       0.38467150       0.63466297       0.80126500 </v>
    <v>       0.88467149       0.13466300       0.80126500 </v>
    <v>       0.88467153       0.63466297       0.80126500 </v>
    <v>       0.99826600       0.00645478       0.60416613 </v>
    <v>       0.00923640       0.50221418       0.60398311 </v>
    <v>       0.50166604       0.99393528       0.60299115 </v>
    <v>       0.49911724       0.50045923       0.60278194 </v>
    <v>       0.25550709       0.24894246       0.60602069 </v>
    <v>       0.24476586       0.75677777       0.60320799 </v>
    <v>       0.74828826       0.25115836       0.60579194 </v>
    <v>       0.75042775       0.75796599       0.60488582 </v>
    <v>       0.00000050       0.00000050       0.70482896 </v>
    <v>       0.00000050       0.50000048       0.70482896 </v>
    <v>       0.50000048       0.00000050       0.70482896 </v>
    <v>       0.50000046       0.50000048       0.70482896 </v>
    <v>       0.24999999       0.24999947       0.70482499 </v>
    <v>       0.25000001       0.74999950       0.70482499 </v>
    <v>       0.74999999       0.24999947       0.70482499 </v>
    <v>       0.74999998       0.74999950       0.70482499 </v>
    <v>       0.00000000       0.00000000       0.80731797 </v>
    <v>       0.00000000       0.50000000       0.80731797 </v>
    <v>       0.50000000       0.00000000       0.80731797 </v>
    <v>       0.49999999       0.50000000       0.80731797 </v>
    <v>       0.24999999       0.25000000       0.80731797 </v>
    <v>       0.25000001       0.74999997       0.80731797 </v>
    <v>       0.74999999       0.25000000       0.80731797 </v>
    <v>       0.74999998       0.74999997       0.80731797 </v>
   </varray>
  </structure>
  <varray name="primitive_index" >
   <v type="int" >        1 </v>
   <v type="int" >        2 </v>
   <v type="int" >        3 </v>
   <v type="int" >        4 </v>
   <v type="int" >        5 </v>
   <v type="int" >        6 </v>
   <v type="int" >        7 </v>
   <v type="int" >        8 </v>
   <v type="int" >        9 </v>
   <v type="int" >       10 </v>
   <v type="int" >       11 </v>
   <v type="int" >       12 </v>
   <v type="int" >       13 </v>
   <v type="int" >       14 </v>
   <v type="int" >       15 </v>
   <v type="int" >       16 </v>
   <v type="int" >       17 </v>
   <v type="int" >       18 </v>
   <v type="int" >       19 </v>
   <v type="int" >       20 </v>
   <v type="int" >       21 </v>
   <v type="int" >       22 </v>
   <v type="int" >       23 </v>
   <v type="int" >       24 </v>
   <v type="int" >       25 </v>
   <v type="int" >       26 </v>
   <v type="int" >       27 </v>
   <v type="int" >       28 </v>
   <v type="int" >       29 </v>
   <v type="int" >       30 </v>
   <v type="int" >       31 </v>
   <v type="int" >       32 </v>
   <v type="int" >       33 </v>
   <v type="int" >       34 </v>
   <v type="int" >       35 </v>
   <v type="int" >       36 </v>
   <v type="int" >       37 </v>
   <v type="int" >       38 </v>
   <v type="int" >       39 </v>
   <v type="int" >       40 </v>
   <v type="int" >       41 </v>
   <v type="int" >       42 </v>
   <v type="int" >       43 </v>
   <v type="int" >       44 </v>
   <v type="int" >       45 </v>
   <v type="int" >       46 </v>
   <v type="int" >       47 </v>
   <v type="int" >       48 </v>
   <v type="int" >       49 </v>
   <v type="int" >       50 </v>
   <v type="int" >       51 </v>
   <v type="int" >       52 </v>
   <v type="int" >       53 </v>
   <v type="int" >       54 </v>
   <v type="int" >       55 </v>
   <v type="int" >       56 </v>
   <v type="int" >       57 </v>
   <v type="int" >       58 </v>
   <v type="int" >       59 </v>
   <v type="int" >       60 </v>
   <v type="int" >       61 </v>
   <v type="int" >       62 </v>
   <v type="int" >       63 </v>
   <v type="int" >       64 </v>
   <v type="int" >       65 </v>
   <v type="int" >       66 </v>
   <v type="int" >       67 </v>
   <v type="int" >       68 </v>
   <v type="int" >       69 </v>
   <v type="int" >       70 </v>
   <v type="int" >       71 </v>
   <v type="int" >       72 </v>
   <v type="int" >       73 </v>
   <v type="int" >       74 </v>
   <v type="int" >       75 </v>
   <v type="int" >       76 </v>
   <v type="int" >       77 </v>
   <v type="int" >       78 </v>
   <v type="int" >       79 </v>
   <v type="int" >       80 </v>
   <v type="int" >       81 </v>
   <v type="int" >       82 </v>
   <v type="int" >       83 </v>
   <v type="int" >       84 </v>
   <v type="int" >       85 </v>
   <v type="int" >       86 </v>
   <v type="int" >       87 </v>
   <v type="int" >       88 </v>
   <v type="int" >       89 </v>
   <v type="int" >       90 </v>
   <v type="int" >       91 </v>
   <v type="int" >       92 </v>
   <v type="int" >       93 </v>
   <v type="int" >       94 </v>
   <v type="int" >       95 </v>
   <v type="int" >       96 </v>
   <v type="int" >       97 </v>
   <v type="int" >       98 </v>
   <v type="int" >       99 </v>
   <v type="int" >      100 </v>
   <v type="int" >      101 </v>
   <v type="int" >      102 </v>
   <v type="int" >      103 </v>
   <v type="int" >      104 </v>
   <v type="int" >      105 </v>
   <v type="int" >      106 </v>
   <v type="int" >      107 </v>
   <v type="int" >      108 </v>
   <v type="int" >      109 </v>
   <v type="int" >      110 </v>
   <v type="int" >      111 </v>
   <v type="int" >      112 </v>
   <v type="int" >      113 </v>
   <v type="int" >      114 </v>
   <v type="int" >      115 </v>
   <v type="int" >      116 </v>
   <v type="int" >      117 </v>
   <v type="int" >      118 </v>
   <v type="int" >      119 </v>
   <v type="int" >      120 </v>
   <v type="int" >      121 </v>
   <v type="int" >      122 </v>
   <v type="int" >      123 </v>
   <v type="int" >      124 </v>
   <v type="int" >      125 </v>
   <v type="int" >      126 </v>
   <v type="int" >      127 </v>
   <v type="int" >      128 </v>
   <v type="int" >      129 </v>
   <v type="int" >      130 </v>
   <v type="int" >      131 </v>
   <v type="int" >      132 </v>
   <v type="int" >      133 </v>
   <v type="int" >      134 </v>
   <v type="int" >      135 </v>
   <v type="int" >      136 </v>
   <v type="int" >      137 </v>
   <v type="int" >      138 </v>
   <v type="int" >      139 </v>
   <v type="int" >      140 </v>
   <v type="int" >      141 </v>
   <v type="int" >      142 </v>
   <v type="int" >      143 </v>
   <v type="int" >      144 </v>
   <v type="int" >      145 </v>
   <v type="int" >      146 </v>
   <v type="int" >      147 </v>
   <v type="int" >      148 </v>
   <v type="int" >      149 </v>
   <v type="int" >      150 </v>
   <v type="int" >      151 </v>
   <v type="int" >      152 </v>
   <v type="int" >      153 </v>
   <v type="int" >      154 </v>
   <v type="int" >      155 </v>
   <v type="int" >      156 </v>
   <v type="int" >      157 </v>
   <v type="int" >      158 </v>
   <v type="int" >      159 </v>
   <v type="int" >      160 </v>
   <v type="int" >      161 </v>
   <v type="int" >      162 </v>
   <v type="int" >      163 </v>
   <v type="int" >      164 </v>
   <v type="int" >      165 </v>
   <v type="int" >      166 </v>
   <v type="int" >      167 </v>
   <v type="int" >      168 </v>
   <v type="int" >      169 </v>
   <v type="int" >      170 </v>
   <v type="int" >      171 </v>
   <v type="int" >      172 </v>
   <v type="int" >      173 </v>
   <v type="int" >      174 </v>
   <v type="int" >      175 </v>
   <v type="int" >      176 </v>
   <v type="int" >      177 </v>
   <v type="int" >      178 </v>
   <v type="int" >      179 </v>
   <v type="int" >      180 </v>
   <v type="int" >      181 </v>
   <v type="int" >      182 </v>
   <v type="int" >      183 </v>
   <v type="int" >      184 </v>
   <v type="int" >      185 </v>
   <v type="int" >      186 </v>
   <v type="int" >      187 </v>
   <v type="int" >      188 </v>
   <v type="int" >      189 </v>
   <v type="int" >      190 </v>
   <v type="int" >      191 </v>
   <v type="int" >      192 </v>
   <v type="int" >      193 </v>
   <v type="int" >      194 </v>
   <v type="int" >      195 </v>
   <v type="int" >      196 </v>
   <v type="int" >      197 </v>
   <v type="int" >      198 </v>
   <v type="int" >      199 </v>
   <v type="int" >      200 </v>
   <v type="int" >      201 </v>
   <v type="int" >      202 </v>
   <v type="int" >      203 </v>
   <v type="int" >      204 </v>
   <v type="int" >      205 </v>
   <v type="int" >      206 </v>
   <v type="int" >      207 </v>
   <v type="int" >      208 </v>
   <v type="int" >      209 </v>
   <v type="int" >      210 </v>
   <v type="int" >      211 </v>
   <v type="int" >      212 </v>
   <v type="int" >      213 </v>
   <v type="int" >      214 </v>
   <v type="int" >      215 </v>
   <v type="int" >      216 </v>
   <v type="int" >      217 </v>
   <v type="int" >      218 </v>
   <v type="int" >      219 </v>
   <v type="int" >      220 </v>
   <v type="int" >      221 </v>
   <v type="int" >      222 </v>
   <v type="int" >      223 </v>
   <v type="int" >      224 </v>
   <v type="int" >      225 </v>
   <v type="int" >      226 </v>
   <v type="int" >      227 </v>
   <v type="int" >      228 </v>
   <v type="int" >      229 </v>
   <v type="int" >      230 </v>
   <v type="int" >      231 </v>
   <v type="int" >      232 </v>
   <v type="int" >      233 </v>
   <v type="int" >      234 </v>
   <v type="int" >      235 </v>
   <v type="int" >      236 </v>
   <v type="int" >      237 </v>
   <v type="int" >      238 </v>
   <v type="int" >      239 </v>
   <v type="int" >      240 </v>
   <v type="int" >      241 </v>
   <v type="int" >      242 </v>
   <v type="int" >      243 </v>
   <v type="int" >      244 </v>
   <v type="int" >      245 </v>
   <v type="int" >      246 </v>
   <v type="int" >      247 </v>
   <v type="int" >      248 </v>
   <v type="int" >      249 </v>
   <v type="int" >      250 </v>
   <v type="int" >      251 </v>
   <v type="int" >      252 </v>
   <v type="int" >      253 </v>
   <v type="int" >      254 </v>
   <v type="int" >      255 </v>
   <v type="int" >      256 </v>
   <v type="int" >      257 </v>
   <v type="int" >      258 </v>
   <v type="int" >      259 </v>
   <v type="int" >      260 </v>
   <v type="int" >      261 </v>
   <v type="int" >      262 </v>
   <v type="int" >      263 </v>
   <v type="int" >      264 </v>
   <v type="int" >      265 </v>
   <v type="int" >      266 </v>
   <v type="int" >      267 </v>
   <v type="int" >      268 </v>
   <v type="int" >      269 </v>
   <v type="int" >      270 </v>
   <v type="int" >      271 </v>
   <v type="int" >      272 </v>
   <v type="int" >      273 </v>
   <v type="int" >      274 </v>
   <v type="int" >      275 </v>
   <v type="int" >      276 </v>
   <v type="int" >      277 </v>
   <v type="int" >      278 </v>
   <v type="int" >      279 </v>
   <v type="int" >      280 </v>
   <v type="int" >      281 </v>
   <v type="int" >      282 </v>
   <v type="int" >      283 </v>
   <v type="int" >      284 </v>
   <v type="int" >      285 </v>
   <v type="int" >      286 </v>
   <v type="int" >      287 </v>
   <v type="int" >      288 </v>
   <v type="int" >      289 </v>
   <v type="int" >      290 </v>
   <v type="int" >      291 </v>
   <v type="int" >      292 </v>
   <v type="int" >      293 </v>
   <v type="int" >      294 </v>
   <v type="int" >      295 </v>
   <v type="int" >      296 </v>
   <v type="int" >      297 </v>
   <v type="int" >      298 </v>
   <v type="int" >      299 </v>
   <v type="int" >      300 </v>
   <v type="int" >      301 </v>
   <v type="int" >      302 </v>
   <v type="int" >      303 </v>
   <v type="int" >      304 </v>
   <v type="int" >      305 </v>
   <v type="int" >      306 </v>
   <v type="int" >      307 </v>
   <v type="int" >      308 </v>
   <v type="int" >      309 </v>
   <v type="int" >      310 </v>
   <v type="int" >      311 </v>
   <v type="int" >      312 </v>
   <v type="int" >      313 </v>
   <v type="int" >      314 </v>
   <v type="int" >      315 </v>
   <v type="int" >      316 </v>
   <v type="int" >      317 </v>
   <v type="int" >      318 </v>
   <v type="int" >      319 </v>
   <v type="int" >      320 </v>
   <v type="int" >      321 </v>
   <v type="int" >      322 </v>
   <v type="int" >      323 </v>
   <v type="int" >      324 </v>
   <v type="int" >      325 </v>
  </varray>
 </primitive_cell>
 <kpoints>
  <generation param="Gamma">
   <v type="int" name="divisions">       3        3        1 </v>
   <v name="usershift">      0.00000000       0.00000000       0.00000000 </v>
   <v name="genvec1">      0.33333333       0.00000000       0.00000000 </v>
   <v name="genvec2">      0.00000000       0.33333333       0.00000000 </v>
   <v name="genvec3">      0.00000000       0.00000000       1.00000000 </v>
   <v name="shift">      0.00000000       0.00000000       0.00000000 </v>
  </generation>
  <varray name="kpointlist" >
   <v>       0.00000000       0.00000000       0.00000000 </v>
   <v>       0.33333333       0.00000000       0.00000000 </v>
   <v>       0.00000000       0.33333333       0.00000000 </v>
   <v>       0.33333333       0.33333333       0.00000000 </v>
   <v>      -0.33333333       0.33333333       0.00000000 </v>
  </varray>
  <varray name="weights" >
   <v>       0.11111111 </v>
   <v>       0.22222222 </v>
   <v>       0.22222222 </v>
   <v>       0.22222222 </v>
   <v>       0.22222222 </v>
  </varray>
 </kpoints>
 <parameters>
  <separator name="general" >
   <i type="string" name="SYSTEM">PSC</i>
   <i type="logical" name="LCOMPAT"> F  </i>
  </separator>
  <separator name="electronic" >
   <i type="string" name="PREC">normal</i>
   <i name="ENMAX">    500.00000000</i>
   <i name="ENAUG">    644.87300000</i>
   <i name="EDIFF">      0.00010000</i>
   <i type="int" name="IALGO">    38</i>
   <i type="int" name="IWAVPR">    10</i>
   <i type="int" name="NBANDS">   732</i>
   <i type="int" name="NBANDSLOW">    -1</i>
   <i type="int" name="NBANDSHIGH">    -1</i>
   <i name="NELECT">   1134.00000000</i>
   <i type="int" name="TURBO">     0</i>
   <i type="int" name="IRESTART">     0</i>
   <i type="int" name="NREBOOT">     0</i>
   <i type="int" name="NMIN">     0</i>
   <i name="EREF">      0.00000000</i>
   <separator name="electronic smearing" >
    <i type="int" name="ISMEAR">     0</i>
    <i name="SIGMA">      0.05000000</i>
    <i name="KSPACING">      0.50000000</i>
    <i type="logical" name="KGAMMA"> T  </i>
    <i type="logical" name="KBLOWUP"> T  </i>
   </separator>
   <separator name="electronic projectors" >
    <i type="logical" name="LREAL"> T  </i>
    <v name="ROPT">     -0.00050000     -0.00050000     -0.00050000     -0.00050000     -0.00050000</v>
    <i type="int" name="LMAXPAW">  -100</i>
    <i type="int" name="LMAXMIX">     2</i>
    <i type="logical" name="NLSPLINE"> F  </i>
   </separator>
   <separator name="electronic startup" >
    <i type="int" name="ISTART">     0</i>
    <i type="int" name="ICHARG">     1</i>
    <i type="int" name="INIWAV">     1</i>
   </separator>
   <separator name="electronic spin" >
    <i type="int" name="ISPIN">     1</i>
    <i type="logical" name="LNONCOLLINEAR"> F  </i>
    <v name="MAGMOM">      1.00000000      1.00000000      1.00000000      1.00000000      1.00000000      1.00000000      1.00000000      1.00000000      1.00000000      1.00000000      1.00000000      1.00000000      1.00000000      1.00000000      1.00000000      1.00000000      1.00000000      1.00000000      1.00000000      1.00000000
      1.00000000      1.00000000      1.00000000      1.00000000      1.00000000      1.00000000      1.00000000      1.00000000      1.00000000      1.00000000      1.00000000      1.00000000      1.00000000      1.00000000      1.00000000      1.00000000      1.00000000      1.00000000      1.00000000      1.00000000
      1.00000000      1.00000000      1.00000000      1.00000000      1.00000000      1.00000000      1.00000000      1.00000000      1.00000000      1.00000000      1.00000000      1.00000000      1.00000000      1.00000000      1.00000000      1.00000000      1.00000000      1.00000000      1.00000000      1.00000000
      1.00000000      1.00000000      1.00000000      1.00000000      1.00000000      1.00000000      1.00000000      1.00000000      1.00000000      1.00000000      1.00000000      1.00000000      1.00000000      1.00000000      1.00000000      1.00000000      1.00000000      1.00000000      1.00000000      1.00000000
      1.00000000      1.00000000      1.00000000      1.00000000      1.00000000      1.00000000      1.00000000      1.00000000      1.00000000      1.00000000      1.00000000      1.00000000      1.00000000      1.00000000      1.00000000      1.00000000      1.00000000      1.00000000      1.00000000      1.00000000
      1.00000000      1.00000000      1.00000000      1.00000000      1.00000000      1.00000000      1.00000000      1.00000000      1.00000000      1.00000000      1.00000000      1.00000000      1.00000000      1.00000000      1.00000000      1.00000000      1.00000000      1.00000000      1.00000000      1.00000000
      1.00000000      1.00000000      1.00000000      1.00000000      1.00000000      1.00000000      1.00000000      1.00000000      1.00000000      1.00000000      1.00000000      1.00000000      1.00000000      1.00000000      1.00000000      1.00000000      1.00000000      1.00000000      1.00000000      1.00000000
      1.00000000      1.00000000      1.00000000      1.00000000      1.00000000      1.00000000      1.00000000      1.00000000      1.00000000      1.00000000      1.00000000      1.00000000      1.00000000      1.00000000      1.00000000      1.00000000      1.00000000      1.00000000      1.00000000      1.00000000
      1.00000000      1.00000000      1.00000000      1.00000000      1.00000000      1.00000000      1.00000000      1.00000000      1.00000000      1.00000000      1.00000000      1.00000000      1.00000000      1.00000000      1.00000000      1.00000000      1.00000000      1.00000000      1.00000000      1.00000000
      1.00000000      1.00000000      1.00000000      1.00000000      1.00000000      1.00000000      1.00000000      1.00000000      1.00000000      1.00000000      1.00000000      1.00000000      1.00000000      1.00000000      1.00000000      1.00000000      1.00000000      1.00000000      1.00000000      1.00000000
      1.00000000      1.00000000      1.00000000      1.00000000      1.00000000      1.00000000      1.00000000      1.00000000      1.00000000      1.00000000      1.00000000      1.00000000      1.00000000      1.00000000      1.00000000      1.00000000      1.00000000      1.00000000      1.00000000      1.00000000
      1.00000000      1.00000000      1.00000000      1.00000000      1.00000000      1.00000000      1.00000000      1.00000000      1.00000000      1.00000000      1.00000000      1.00000000      1.00000000      1.00000000      1.00000000      1.00000000      1.00000000      1.00000000      1.00000000      1.00000000
      1.00000000      1.00000000      1.00000000      1.00000000      1.00000000      1.00000000      1.00000000      1.00000000      1.00000000      1.00000000      1.00000000      1.00000000      1.00000000      1.00000000      1.00000000      1.00000000      1.00000000      1.00000000      1.00000000      1.00000000
      1.00000000      1.00000000      1.00000000      1.00000000      1.00000000      1.00000000      1.00000000      1.00000000      1.00000000      1.00000000      1.00000000      1.00000000      1.00000000      1.00000000      1.00000000      1.00000000      1.00000000      1.00000000      1.00000000      1.00000000
      1.00000000      1.00000000      1.00000000      1.00000000      1.00000000      1.00000000      1.00000000      1.00000000      1.00000000      1.00000000      1.00000000      1.00000000      1.00000000      1.00000000      1.00000000      1.00000000      1.00000000      1.00000000      1.00000000      1.00000000
      1.00000000      1.00000000      1.00000000      1.00000000      1.00000000      1.00000000      1.00000000      1.00000000      1.00000000      1.00000000      1.00000000      1.00000000      1.00000000      1.00000000      1.00000000      1.00000000      1.00000000      1.00000000      1.00000000      1.00000000
      1.00000000      1.00000000      1.00000000      1.00000000      1.00000000</v>
    <i name="NUPDOWN">     -1.00000000</i>
    <i type="logical" name="LSORBIT"> F  </i>
    <v name="SAXIS">      0.00000000      0.00000000      1.00000000</v>
    <i type="logical" name="LSPIRAL"> F  </i>
    <v name="QSPIRAL">      0.00000000      0.00000000      0.00000000</v>
    <i type="logical" name="LZEROZ"> F  </i>
   </separator>
   <separator name="electronic exchange-correlation" >
    <i type="logical" name="LASPH"> F  </i>
    <i type="logical" name="LMETAGGA"> F  </i>
   </separator>
   <separator name="electronic convergence" >
    <i type="int" name="NELM">   600</i>
    <i type="int" name="NELMDL">     0</i>
    <i type="int" name="NELMIN">     2</i>
    <i name="ENINI">    500.00000000</i>
    <separator name="electronic convergence detail" >
     <i type="logical" name="LDIAG"> T  </i>
     <i type="logical" name="LSUBROT"> F  </i>
     <i name="WEIMIN">      0.00000000</i>
     <i name="EBREAK">      0.00000003</i>
     <i name="DEPER">      0.30000000</i>
     <i type="int" name="NRMM">     4</i>
     <i name="TIME">      0.40000000</i>
    </separator>
   </separator>
   <separator name="electronic mixer" >
    <i name="AMIX">      0.40000000</i>
    <i name="BMIX">      0.01000000</i>
    <i name="AMIN">      0.01000000</i>
    <i name="AMIX_MAG">      1.60000000</i>
    <i name="BMIX_MAG">      0.01000000</i>
    <separator name="electronic mixer details" >
     <i type="int" name="IMIX">     4</i>
     <i type="logical" name="MIXFIRST"> F  </i>
     <i type="int" name="MAXMIX">   -45</i>
     <i name="WC">    100.00000000</i>
     <i type="int" name="INIMIX">     1</i>
     <i type="int" name="MIXPRE">     1</i>
     <i type="int" name="MREMOVE">     5</i>
    </separator>
   </separator>
   <separator name="electronic dipolcorrection" >
    <i type="logical" name="LDIPOL"> T  </i>
    <i type="logical" name="LMONO"> F  </i>
    <i type="int" name="IDIPOL">     3</i>
    <i name="EPSILON">      1.00000000</i>
    <v name="DIPOL">   -100.00000000   -100.00000000   -100.00000000</v>
    <i name="EFIELD">      0.00000000</i>
   </separator>
  </separator>
  <separator name="grids" >
   <i type="int" name="NGX">   100</i>
   <i type="int" name="NGY">   100</i>
   <i type="int" name="NGZ">   350</i>
   <i type="int" name="NGXF">   200</i>
   <i type="int" name="NGYF">   200</i>
   <i type="int" name="NGZF">   700</i>
   <i type="logical" name="ADDGRID"> F  </i>
  </separator>
  <separator name="ionic" >
   <i type="int" name="NSW">     0</i>
   <i type="int" name="IBRION">    -1</i>
   <i type="int" name="MDALGO">     0</i>
   <i type="int" name="ISIF">     2</i>
   <i name="PSTRESS">      0.00000000</i>
   <i name="EDIFFG">      0.00100000</i>
   <i type="int" name="NFREE">     0</i>
   <i name="POTIM">      0.50000000</i>
   <i name="SMASS">     -3.00000000</i>
   <i name="SCALEE">      1.00000000</i>
  </separator>
  <separator name="ionic md" >
   <i name="TEBEG">      0.00010000</i>
   <i name="TEEND">      0.00010000</i>
   <i type="int" name="NBLOCK">     1</i>
   <i type="int" name="KBLOCK">     1</i>
   <i type="int" name="NPACO">   256</i>
   <i name="APACO">     16.00000000</i>
  </separator>
  <separator name="symmetry" >
   <i type="int" name="ISYM">     0</i>
   <i name="SYMPREC">      0.00001000</i>
  </separator>
  <separator name="dos" >
   <i type="int" name="LORBIT">     0</i>
   <v name="RWIGS">     -1.00000000     -1.00000000     -1.00000000     -1.00000000     -1.00000000</v>
   <i type="int" name="NEDOS">   301</i>
   <i name="EMIN">     10.00000000</i>
   <i name="EMAX">    -10.00000000</i>
   <i name="EFERMI">      0.00000000</i>
  </separator>
  <separator name="writing" >
   <i type="int" name="NWRITE">     2</i>
   <i type="logical" name="LWAVE"> F  </i>
   <i type="logical" name="LDOWNSAMPLE"> F  </i>
   <i type="logical" name="LCHARG"> T  </i>
   <i type="logical" name="LPARD"> F  </i>
   <i type="logical" name="LVTOT"> T  </i>
   <i type="logical" name="LVHAR"> F  </i>
   <i type="logical" name="LELF"> F  </i>
   <i type="logical" name="LOPTICS"> F  </i>
   <v name="STM">      0.00000000      0.00000000      0.00000000      0.00000000      0.00000000      0.00000000      0.00000000</v>
  </separator>
  <separator name="performance" >
   <i type="int" name="NPAR">     4</i>
   <i type="int" name="NSIM">     4</i>
   <i type="int" name="NBLK">    -1</i>
   <i type="logical" name="LPLANE"> T  </i>
   <i type="logical" name="LSCALAPACK"> T  </i>
   <i type="logical" name="LSCAAWARE"> F  </i>
   <i type="logical" name="LSCALU"> F  </i>
   <i type="logical" name="LASYNC"> F  </i>
   <i type="logical" name="LORBITALREAL"> F  </i>
  </separator>
  <separator name="miscellaneous" >
   <i type="int" name="IDIOT">     3</i>
   <i type="int" name="PHON_NSTRUCT">    -1</i>
   <i type="logical" name="LMUSIC"> F  </i>
   <v name="POMASS">      1.00000000     12.01100000     14.00100000    126.90400000    207.20000000</v>
   <v name="DARWINR">      0.00000000      0.00000000      0.00000000      0.00000000      0.00000000</v>
   <v name="DARWINV">      1.00000000      1.00000000      1.00000000      1.00000000      1.00000000</v>
   <i type="logical" name="LCORR"> T  </i>
  </separator>
  <i type="logical" name="GGA_COMPAT"> F  </i>
  <i type="logical" name="LBERRY"> F  </i>
  <i type="int" name="ICORELEVEL">     0</i>
  <i type="logical" name="LDAU"> F  </i>
  <i type="int" name="I_CONSTRAINED_M">     0</i>
  <separator name="electronic exchange-correlation" >
   <i type="string" name="GGA">--</i>
   <i type="int" name="VOSKOWN">     0</i>
   <i type="logical" name="LHFCALC"> F  </i>
   <i type="string" name="PRECFOCK"></i>
   <i type="logical" name="LSYMGRAD"> F  </i>
   <i type="logical" name="LHFONE"> F  </i>
   <i type="logical" name="LRHFCALC"> F  </i>
   <i type="logical" name="LTHOMAS"> F  </i>
   <i type="logical" name="LMODELHF"> F  </i>
   <i type="logical" name="LFOCKACE"> F  </i>
   <i name="ENCUT4O">     -1.00000000</i>
   <i type="int" name="EXXOEP">     0</i>
   <i type="int" name="FOURORBIT">     0</i>
   <i name="AEXX">      0.00000000</i>
   <i name="HFALPHA">      0.00000000</i>
   <i name="MCALPHA">      0.00000000</i>
   <i name="ALDAX">      1.00000000</i>
   <i name="AGGAX">      1.00000000</i>
   <i name="ALDAC">      1.00000000</i>
   <i name="AGGAC">      1.00000000</i>
   <i type="int" name="NKREDX">     1</i>
   <i type="int" name="NKREDY">     1</i>
   <i type="int" name="NKREDZ">     1</i>
   <i type="logical" name="SHIFTRED"> F  </i>
   <i type="logical" name="ODDONLY"> F  </i>
   <i type="logical" name="EVENONLY"> F  </i>
   <i type="int" name="LMAXFOCK">     0</i>
   <i type="int" name="NMAXFOCKAE">     0</i>
   <i type="logical" name="LFOCKAEDFT"> F  </i>
   <i name="HFSCREEN">      0.00000000</i>
   <i name="HFSCREENC">      0.00000000</i>
   <i type="int" name="NBANDSGWLOW">     0</i>
  </separator>
  <separator name="vdW DFT" >
   <i type="logical" name="LUSE_VDW"> F  </i>
   <i name="Zab_VDW">     -0.84910000</i>
   <i name="PARAM1">      0.12340000</i>
   <i name="PARAM2">      1.00000000</i>
   <i name="PARAM3">      0.00000000</i>
  </separator>
  <separator name="model GW" >
   <i type="int" name="MODEL_GW">     0</i>
   <i name="MODEL_EPS0">     37.63423484</i>
   <i name="MODEL_ALPHA">      1.00000000</i>
  </separator>
  <separator name="linear response parameters" >
   <i type="logical" name="LEPSILON"> F  </i>
   <i type="logical" name="LRPA"> F  </i>
   <i type="logical" name="LNABLA"> F  </i>
   <i type="logical" name="LVEL"> F  </i>
   <i type="int" name="KINTER">     0</i>
   <i name="CSHIFT">      0.10000000</i>
   <i name="OMEGAMAX">     -1.00000000</i>
   <i name="DEG_THRESHOLD">      0.00200000</i>
   <i name="RTIME">     -0.10000000</i>
   <i name="WPLASMAI">      0.00000000</i>
   <v name="DFIELD">      0.00000000      0.00000000      0.00000000</v>
   <v name="WPLASMA">      0.00000000      0.00000000      0.00000000      0.00000000      0.00000000      0.00000000      0.00000000      0.00000000      0.00000000</v>
  </separator>
  <separator name="orbital magnetization" >
   <i type="logical" name="NUCIND"> F  </i>
   <v name="MAGPOS">      0.00000000      0.00000000      0.00000000</v>
   <i type="logical" name="LNICSALL"> T  </i>
   <i type="logical" name="ORBITALMAG"> F  </i>
   <i type="logical" name="LMAGBLOCH"> F  </i>
   <i type="logical" name="LCHIMAG"> F  </i>
   <i type="logical" name="LGAUGE"> T  </i>
   <i type="int" name="MAGATOM">     0</i>
   <v name="MAGDIPOL">      0.00000000      0.00000000      0.00000000</v>
   <v name="AVECCONST">      0.00000000      0.00000000      0.00000000</v>
  </separator>
  <separator name="response functions" >
   <i type="logical" name="LFINITE_TEMPERATURE"> F  </i>
   <i type="logical" name="LADDER"> F  </i>
   <i type="logical" name="LRPAFORCE"> F  </i>
   <i type="logical" name="LFXC"> F  </i>
   <i type="logical" name="LHARTREE"> T  </i>
   <i type="int" name="IBSE">     0</i>
   <v type="int" name="KPOINT">    -1     0     0     0</v>
   <i type="logical" name="LTCTC"> F  </i>
   <i type="logical" name="LTCTE"> F  </i>
   <i type="logical" name="LTETE"> F  </i>
   <i type="logical" name="LTRIPLET"> F  </i>
   <i type="logical" name="LFXCEPS"> F  </i>
   <i type="logical" name="LFXHEG"> F  </i>
   <i type="int" name="NATURALO">     2</i>
   <i type="logical" name="LHOLEGF"> F  </i>
   <i type="logical" name="L2ORDER"> F  </i>
   <i type="logical" name="LDMP1"> F  </i>
   <i type="logical" name="LMP2LT"> F  </i>
   <i type="logical" name="LSMP2LT"> F  </i>
   <i type="logical" name="LGWLF"> F  </i>
   <i name="ENCUTGW">     -2.00000000</i>
   <i name="ENCUTGWSOFT">     -2.00000000</i>
   <i name="ENCUTLF">     -1.00000000</i>
   <i type="logical" name="LESF_SPLINES"> F  </i>
   <i type="int" name="LMAXMP2">    -1</i>
   <i name="SCISSOR">      0.00000000</i>
   <i type="int" name="NOMEGA">     0</i>
   <i type="int" name="NOMEGAR">     0</i>
   <i type="int" name="NBANDSGW">    -1</i>
   <i type="int" name="NBANDSO">    -1</i>
   <i type="int" name="NBANDSV">    -1</i>
   <i type="int" name="NELM">   600</i>
   <i type="int" name="NELMHF">     1</i>
   <i type="int" name="DIM">     3</i>
   <i type="int" name="IESPILON">     4</i>
   <i type="int" name="ANTIRES">     0</i>
   <i name="OMEGAMAX">    -30.00000000</i>
   <i name="OMEGAMIN">    -30.00000000</i>
   <i name="OMEGATL">   -200.00000000</i>
   <i type="int" name="OMEGAGRID">     0</i>
   <i name="CSHIFT">     -0.10000000</i>
   <i type="logical" name="LSELFENERGY"> F  </i>
   <i type="logical" name="LSPECTRAL"> F  </i>
   <i type="logical" name="LSPECTRALGW"> F  </i>
   <i type="logical" name="LSINGLES"> F  </i>
   <i type="logical" name="LFERMIGW"> F  </i>
   <i type="logical" name="ODDONLYGW"> F  </i>
   <i type="logical" name="EVENONLYGW"> F  </i>
   <i type="int" name="NKREDLFX">     1</i>
   <i type="int" name="NKREDLFY">     1</i>
   <i type="int" name="NKREDLFZ">     1</i>
   <i type="int" name="MAXMEM">  2800</i>
   <i type="int" name="TELESCOPE">     0</i>
   <i type="int" name="NTAUPAR">    -1</i>
   <i type="int" name="NOMEGAPAR">    -1</i>
   <i name="DAMP_NEWTON">      0.80000001</i>
   <i name="LAMBDA">      1.00000000</i>
  </separator>
  <separator name="External order field" >
   <i name="OFIELD_KAPPA">      0.00000000</i>
   <v name="OFIELD_K">      0.00000000      0.00000000      0.00000000</v>
   <i name="OFIELD_Q6_NEAR">      0.00000000</i>
   <i name="OFIELD_Q6_FAR">      0.00000000</i>
   <i name="OFIELD_A">      0.00000000</i>
  </separator>
 </parameters>
 <atominfo>
  <atoms>     325 </atoms>
  <types>       5 </types>
  <array name="atoms" >
   <dimension dim="1">ion</dimension>
   <field type="string">element</field>
   <field type="int">atomtype</field>
   <set>
    <rc><c>H </c><c>   1</c></rc>
    <rc><c>H </c><c>   1</c></rc>
    <rc><c>H </c><c>   1</c></rc>
    <rc><c>H </c><c>   1</c></rc>
    <rc><c>H </c><c>   1</c></rc>
    <rc><c>H </c><c>   1</c></rc>
    <rc><c>H </c><c>   1</c></rc>
    <rc><c>H </c><c>   1</c></rc>
    <rc><c>H </c><c>   1</c></rc>
    <rc><c>H </c><c>   1</c></rc>
    <rc><c>H </c><c>   1</c></rc>
    <rc><c>H </c><c>   1</c></rc>
    <rc><c>H </c><c>   1</c></rc>
    <rc><c>H </c><c>   1</c></rc>
    <rc><c>H </c><c>   1</c></rc>
    <rc><c>H </c><c>   1</c></rc>
    <rc><c>H </c><c>   1</c></rc>
    <rc><c>H </c><c>   1</c></rc>
    <rc><c>H </c><c>   1</c></rc>
    <rc><c>H </c><c>   1</c></rc>
    <rc><c>H </c><c>   1</c></rc>
    <rc><c>H </c><c>   1</c></rc>
    <rc><c>H </c><c>   1</c></rc>
    <rc><c>H </c><c>   1</c></rc>
    <rc><c>H </c><c>   1</c></rc>
    <rc><c>H </c><c>   1</c></rc>
    <rc><c>H </c><c>   1</c></rc>
    <rc><c>H </c><c>   1</c></rc>
    <rc><c>H </c><c>   1</c></rc>
    <rc><c>H </c><c>   1</c></rc>
    <rc><c>H </c><c>   1</c></rc>
    <rc><c>H </c><c>   1</c></rc>
    <rc><c>H </c><c>   1</c></rc>
    <rc><c>H </c><c>   1</c></rc>
    <rc><c>H </c><c>   1</c></rc>
    <rc><c>H </c><c>   1</c></rc>
    <rc><c>H </c><c>   1</c></rc>
    <rc><c>H </c><c>   1</c></rc>
    <rc><c>H </c><c>   1</c></rc>
    <rc><c>H </c><c>   1</c></rc>
    <rc><c>H </c><c>   1</c></rc>
    <rc><c>H </c><c>   1</c></rc>
    <rc><c>H </c><c>   1</c></rc>
    <rc><c>H </c><c>   1</c></rc>
    <rc><c>H </c><c>   1</c></rc>
    <rc><c>H </c><c>   1</c></rc>
    <rc><c>H </c><c>   1</c></rc>
    <rc><c>H </c><c>   1</c></rc>
    <rc><c>H </c><c>   1</c></rc>
    <rc><c>H </c><c>   1</c></rc>
    <rc><c>H </c><c>   1</c></rc>
    <rc><c>H </c><c>   1</c></rc>
    <rc><c>H </c><c>   1</c></rc>
    <rc><c>H </c><c>   1</c></rc>
    <rc><c>H </c><c>   1</c></rc>
    <rc><c>H </c><c>   1</c></rc>
    <rc><c>H </c><c>   1</c></rc>
    <rc><c>H </c><c>   1</c></rc>
    <rc><c>H </c><c>   1</c></rc>
    <rc><c>H </c><c>   1</c></rc>
    <rc><c>H </c><c>   1</c></rc>
    <rc><c>H </c><c>   1</c></rc>
    <rc><c>H </c><c>   1</c></rc>
    <rc><c>H </c><c>   1</c></rc>
    <rc><c>H </c><c>   1</c></rc>
    <rc><c>H </c><c>   1</c></rc>
    <rc><c>H </c><c>   1</c></rc>
    <rc><c>H </c><c>   1</c></rc>
    <rc><c>H </c><c>   1</c></rc>
    <rc><c>H </c><c>   1</c></rc>
    <rc><c>H </c><c>   1</c></rc>
    <rc><c>H </c><c>   1</c></rc>
    <rc><c>H </c><c>   1</c></rc>
    <rc><c>H </c><c>   1</c></rc>
    <rc><c>H </c><c>   1</c></rc>
    <rc><c>H </c><c>   1</c></rc>
    <rc><c>H </c><c>   1</c></rc>
    <rc><c>H </c><c>   1</c></rc>
    <rc><c>H </c><c>   1</c></rc>
    <rc><c>H </c><c>   1</c></rc>
    <rc><c>H </c><c>   1</c></rc>
    <rc><c>H </c><c>   1</c></rc>
    <rc><c>H </c><c>   1</c></rc>
    <rc><c>H </c><c>   1</c></rc>
    <rc><c>H </c><c>   1</c></rc>
    <rc><c>H </c><c>   1</c></rc>
    <rc><c>H </c><c>   1</c></rc>
    <rc><c>H </c><c>   1</c></rc>
    <rc><c>H </c><c>   1</c></rc>
    <rc><c>H </c><c>   1</c></rc>
    <rc><c>H </c><c>   1</c></rc>
    <rc><c>H </c><c>   1</c></rc>
    <rc><c>H </c><c>   1</c></rc>
    <rc><c>H </c><c>   1</c></rc>
    <rc><c>H </c><c>   1</c></rc>
    <rc><c>H </c><c>   1</c></rc>
    <rc><c>H </c><c>   1</c></rc>
    <rc><c>H </c><c>   1</c></rc>
    <rc><c>H </c><c>   1</c></rc>
    <rc><c>H </c><c>   1</c></rc>
    <rc><c>H </c><c>   1</c></rc>
    <rc><c>H </c><c>   1</c></rc>
    <rc><c>H </c><c>   1</c></rc>
    <rc><c>H </c><c>   1</c></rc>
    <rc><c>H </c><c>   1</c></rc>
    <rc><c>H </c><c>   1</c></rc>
    <rc><c>H </c><c>   1</c></rc>
    <rc><c>H </c><c>   1</c></rc>
    <rc><c>H </c><c>   1</c></rc>
    <rc><c>H </c><c>   1</c></rc>
    <rc><c>H </c><c>   1</c></rc>
    <rc><c>H </c><c>   1</c></rc>
    <rc><c>H </c><c>   1</c></rc>
    <rc><c>H </c><c>   1</c></rc>
    <rc><c>H </c><c>   1</c></rc>
    <rc><c>H </c><c>   1</c></rc>
    <rc><c>H </c><c>   1</c></rc>
    <rc><c>H </c><c>   1</c></rc>
    <rc><c>H </c><c>   1</c></rc>
    <rc><c>H </c><c>   1</c></rc>
    <rc><c>H </c><c>   1</c></rc>
    <rc><c>H </c><c>   1</c></rc>
    <rc><c>H </c><c>   1</c></rc>
    <rc><c>H </c><c>   1</c></rc>
    <rc><c>H </c><c>   1</c></rc>
    <rc><c>H </c><c>   1</c></rc>
    <rc><c>H </c><c>   1</c></rc>
    <rc><c>H </c><c>   1</c></rc>
    <rc><c>H </c><c>   1</c></rc>
    <rc><c>H </c><c>   1</c></rc>
    <rc><c>H </c><c>   1</c></rc>
    <rc><c>H </c><c>   1</c></rc>
    <rc><c>H </c><c>   1</c></rc>
    <rc><c>H </c><c>   1</c></rc>
    <rc><c>H </c><c>   1</c></rc>
    <rc><c>H </c><c>   1</c></rc>
    <rc><c>H </c><c>   1</c></rc>
    <rc><c>H </c><c>   1</c></rc>
    <rc><c>H </c><c>   1</c></rc>
    <rc><c>H </c><c>   1</c></rc>
    <rc><c>H </c><c>   1</c></rc>
    <rc><c>H </c><c>   1</c></rc>
    <rc><c>H </c><c>   1</c></rc>
    <rc><c>C </c><c>   2</c></rc>
    <rc><c>C </c><c>   2</c></rc>
    <rc><c>C </c><c>   2</c></rc>
    <rc><c>C </c><c>   2</c></rc>
    <rc><c>C </c><c>   2</c></rc>
    <rc><c>C </c><c>   2</c></rc>
    <rc><c>C </c><c>   2</c></rc>
    <rc><c>C </c><c>   2</c></rc>
    <rc><c>C </c><c>   2</c></rc>
    <rc><c>C </c><c>   2</c></rc>
    <rc><c>C </c><c>   2</c></rc>
    <rc><c>C </c><c>   2</c></rc>
    <rc><c>C </c><c>   2</c></rc>
    <rc><c>C </c><c>   2</c></rc>
    <rc><c>C </c><c>   2</c></rc>
    <rc><c>C </c><c>   2</c></rc>
    <rc><c>C </c><c>   2</c></rc>
    <rc><c>C </c><c>   2</c></rc>
    <rc><c>C </c><c>   2</c></rc>
    <rc><c>C </c><c>   2</c></rc>
    <rc><c>C </c><c>   2</c></rc>
    <rc><c>C </c><c>   2</c></rc>
    <rc><c>C </c><c>   2</c></rc>
    <rc><c>C </c><c>   2</c></rc>
    <rc><c>C </c><c>   2</c></rc>
    <rc><c>C </c><c>   2</c></rc>
    <rc><c>C </c><c>   2</c></rc>
    <rc><c>C </c><c>   2</c></rc>
    <rc><c>C </c><c>   2</c></rc>
    <rc><c>C </c><c>   2</c></rc>
    <rc><c>C </c><c>   2</c></rc>
    <rc><c>C </c><c>   2</c></rc>
    <rc><c>C </c><c>   2</c></rc>
    <rc><c>C </c><c>   2</c></rc>
    <rc><c>C </c><c>   2</c></rc>
    <rc><c>C </c><c>   2</c></rc>
    <rc><c>C </c><c>   2</c></rc>
    <rc><c>C </c><c>   2</c></rc>
    <rc><c>C </c><c>   2</c></rc>
    <rc><c>N </c><c>   3</c></rc>
    <rc><c>N </c><c>   3</c></rc>
    <rc><c>N </c><c>   3</c></rc>
    <rc><c>N </c><c>   3</c></rc>
    <rc><c>N </c><c>   3</c></rc>
    <rc><c>N </c><c>   3</c></rc>
    <rc><c>N </c><c>   3</c></rc>
    <rc><c>N </c><c>   3</c></rc>
    <rc><c>N </c><c>   3</c></rc>
    <rc><c>N </c><c>   3</c></rc>
    <rc><c>N </c><c>   3</c></rc>
    <rc><c>N </c><c>   3</c></rc>
    <rc><c>N </c><c>   3</c></rc>
    <rc><c>N </c><c>   3</c></rc>
    <rc><c>N </c><c>   3</c></rc>
    <rc><c>N </c><c>   3</c></rc>
    <rc><c>N </c><c>   3</c></rc>
    <rc><c>N </c><c>   3</c></rc>
    <rc><c>N </c><c>   3</c></rc>
    <rc><c>N </c><c>   3</c></rc>
    <rc><c>N </c><c>   3</c></rc>
    <rc><c>N </c><c>   3</c></rc>
    <rc><c>N </c><c>   3</c></rc>
    <rc><c>N </c><c>   3</c></rc>
    <rc><c>N </c><c>   3</c></rc>
    <rc><c>N </c><c>   3</c></rc>
    <rc><c>N </c><c>   3</c></rc>
    <rc><c>N </c><c>   3</c></rc>
    <rc><c>N </c><c>   3</c></rc>
    <rc><c>N </c><c>   3</c></rc>
    <rc><c>N </c><c>   3</c></rc>
    <rc><c>N </c><c>   3</c></rc>
    <rc><c>N </c><c>   3</c></rc>
    <rc><c>N </c><c>   3</c></rc>
    <rc><c>N </c><c>   3</c></rc>
    <rc><c>N </c><c>   3</c></rc>
    <rc><c>N </c><c>   3</c></rc>
    <rc><c>N </c><c>   3</c></rc>
    <rc><c>N </c><c>   3</c></rc>
    <rc><c>N </c><c>   3</c></rc>
    <rc><c>N </c><c>   3</c></rc>
    <rc><c>N </c><c>   3</c></rc>
    <rc><c>N </c><c>   3</c></rc>
    <rc><c>N </c><c>   3</c></rc>
    <rc><c>N </c><c>   3</c></rc>
    <rc><c>N </c><c>   3</c></rc>
    <rc><c>N </c><c>   3</c></rc>
    <rc><c>I </c><c>   4</c></rc>
    <rc><c>I </c><c>   4</c></rc>
    <rc><c>I </c><c>   4</c></rc>
    <rc><c>I </c><c>   4</c></rc>
    <rc><c>I </c><c>   4</c></rc>
    <rc><c>I </c><c>   4</c></rc>
    <rc><c>I </c><c>   4</c></rc>
    <rc><c>I </c><c>   4</c></rc>
    <rc><c>I </c><c>   4</c></rc>
    <rc><c>I </c><c>   4</c></rc>
    <rc><c>I </c><c>   4</c></rc>
    <rc><c>I </c><c>   4</c></rc>
    <rc><c>I </c><c>   4</c></rc>
    <rc><c>I </c><c>   4</c></rc>
    <rc><c>I </c><c>   4</c></rc>
    <rc><c>I </c><c>   4</c></rc>
    <rc><c>I </c><c>   4</c></rc>
    <rc><c>I </c><c>   4</c></rc>
    <rc><c>I </c><c>   4</c></rc>
    <rc><c>I </c><c>   4</c></rc>
    <rc><c>I </c><c>   4</c></rc>
    <rc><c>I </c><c>   4</c></rc>
    <rc><c>I </c><c>   4</c></rc>
    <rc><c>I </c><c>   4</c></rc>
    <rc><c>I </c><c>   4</c></rc>
    <rc><c>I </c><c>   4</c></rc>
    <rc><c>I </c><c>   4</c></rc>
    <rc><c>I </c><c>   4</c></rc>
    <rc><c>I </c><c>   4</c></rc>
    <rc><c>I </c><c>   4</c></rc>
    <rc><c>I </c><c>   4</c></rc>
    <rc><c>I </c><c>   4</c></rc>
    <rc><c>I </c><c>   4</c></rc>
    <rc><c>I </c><c>   4</c></rc>
    <rc><c>I </c><c>   4</c></rc>
    <rc><c>I </c><c>   4</c></rc>
    <rc><c>I </c><c>   4</c></rc>
    <rc><c>I </c><c>   4</c></rc>
    <rc><c>I </c><c>   4</c></rc>
    <rc><c>I </c><c>   4</c></rc>
    <rc><c>I </c><c>   4</c></rc>
    <rc><c>I </c><c>   4</c></rc>
    <rc><c>I </c><c>   4</c></rc>
    <rc><c>I </c><c>   4</c></rc>
    <rc><c>I </c><c>   4</c></rc>
    <rc><c>I </c><c>   4</c></rc>
    <rc><c>I </c><c>   4</c></rc>
    <rc><c>I </c><c>   4</c></rc>
    <rc><c>I </c><c>   4</c></rc>
    <rc><c>I </c><c>   4</c></rc>
    <rc><c>I </c><c>   4</c></rc>
    <rc><c>I </c><c>   4</c></rc>
    <rc><c>I </c><c>   4</c></rc>
    <rc><c>I </c><c>   4</c></rc>
    <rc><c>I </c><c>   4</c></rc>
    <rc><c>I </c><c>   4</c></rc>
    <rc><c>I </c><c>   4</c></rc>
    <rc><c>I </c><c>   4</c></rc>
    <rc><c>I </c><c>   4</c></rc>
    <rc><c>I </c><c>   4</c></rc>
    <rc><c>I </c><c>   4</c></rc>
    <rc><c>I </c><c>   4</c></rc>
    <rc><c>I </c><c>   4</c></rc>
    <rc><c>I </c><c>   4</c></rc>
    <rc><c>I </c><c>   4</c></rc>
    <rc><c>I </c><c>   4</c></rc>
    <rc><c>I </c><c>   4</c></rc>
    <rc><c>I </c><c>   4</c></rc>
    <rc><c>I </c><c>   4</c></rc>
    <rc><c>I </c><c>   4</c></rc>
    <rc><c>I </c><c>   4</c></rc>
    <rc><c>I </c><c>   4</c></rc>
    <rc><c>Pb</c><c>   5</c></rc>
    <rc><c>Pb</c><c>   5</c></rc>
    <rc><c>Pb</c><c>   5</c></rc>
    <rc><c>Pb</c><c>   5</c></rc>
    <rc><c>Pb</c><c>   5</c></rc>
    <rc><c>Pb</c><c>   5</c></rc>
    <rc><c>Pb</c><c>   5</c></rc>
    <rc><c>Pb</c><c>   5</c></rc>
    <rc><c>Pb</c><c>   5</c></rc>
    <rc><c>Pb</c><c>   5</c></rc>
    <rc><c>Pb</c><c>   5</c></rc>
    <rc><c>Pb</c><c>   5</c></rc>
    <rc><c>Pb</c><c>   5</c></rc>
    <rc><c>Pb</c><c>   5</c></rc>
    <rc><c>Pb</c><c>   5</c></rc>
    <rc><c>Pb</c><c>   5</c></rc>
    <rc><c>Pb</c><c>   5</c></rc>
    <rc><c>Pb</c><c>   5</c></rc>
    <rc><c>Pb</c><c>   5</c></rc>
    <rc><c>Pb</c><c>   5</c></rc>
    <rc><c>Pb</c><c>   5</c></rc>
    <rc><c>Pb</c><c>   5</c></rc>
    <rc><c>Pb</c><c>   5</c></rc>
    <rc><c>Pb</c><c>   5</c></rc>
   </set>
  </array>
  <array name="atomtypes" >
   <dimension dim="1">type</dimension>
   <field type="int">atomspertype</field>
   <field type="string">element</field>
   <field>mass</field>
   <field>valence</field>
   <field type="string">pseudopotential</field>
   <set>
    <rc><c> 143</c><c>H </c><c>      1.00000000</c><c>      1.00000000</c><c>  PAW_PBE H 15Jun2001                   </c></rc>
    <rc><c>  39</c><c>C </c><c>     12.01100000</c><c>      4.00000000</c><c>  PAW_PBE C 08Apr2002                   </c></rc>
    <rc><c>  47</c><c>N </c><c>     14.00100000</c><c>      5.00000000</c><c>  PAW_PBE N 08Apr2002                   </c></rc>
    <rc><c>  72</c><c>I </c><c>    126.90400000</c><c>      7.00000000</c><c>  PAW_PBE I 08Apr2002                   </c></rc>
    <rc><c>  24</c><c>Pb</c><c>    207.20000000</c><c>      4.00000000</c><c>  PAW_PBE Pb 08Apr2002                  </c></rc>
   </set>
  </array>
 </atominfo>
 <structure name="initialpos" >
  <crystal>
   <varray name="basis" >
    <v>      18.06080055       0.00000000       0.00000000 </v>
    <v>      -0.00491865      18.06279945       0.00000000 </v>
    <v>       0.00000000       0.00000000      62.48749924 </v>
   </varray>
   <i name="volume">  20385.21054034 </i>
   <varray name="rec_basis" >
    <v>       0.05536853       0.00001508      -0.00000000 </v>
    <v>       0.00000000       0.05536240       0.00000000 </v>
    <v>       0.00000000      -0.00000000       0.01600320 </v>
   </varray>
  </crystal>
  <varray name="positions" >
   <v>       0.40821002       0.28125793       0.56414531 </v>
   <v>       0.41417965       0.69794862       0.57236540 </v>
   <v>       0.92725600       0.29147898       0.58048695 </v>
   <v>       0.93044851       0.81576184       0.57325815 </v>
   <v>       0.32398223       0.09266073       0.56435757 </v>
   <v>       0.32113268       0.57534549       0.56928415 </v>
   <v>       0.80249312       0.10133368       0.56716624 </v>
   <v>       0.11057212       0.24126649       0.56210993 </v>
   <v>       0.07824054       0.68035463       0.56958609 </v>
   <v>       0.58795943       0.18796713       0.56487256 </v>
   <v>       0.60021264       0.75502980       0.55882509 </v>
   <v>       0.37783956       0.01912152       0.55455403 </v>
   <v>       0.25364202       0.62277784       0.55463156 </v>
   <v>       0.87550790       0.04544888       0.55736417 </v>
   <v>       0.06368164       0.28784508       0.58245665 </v>
   <v>       0.99294313       0.69492532       0.58189983 </v>
   <v>       0.49384329       0.17264932       0.57102132 </v>
   <v>       0.55076532       0.69137135       0.57419908 </v>
   <v>       0.30808791       0.43856784       0.57249653 </v>
   <v>       0.18877691       0.06822208       0.56945246 </v>
   <v>       0.68101676       0.03382339       0.57323831 </v>
   <v>       0.45278904       0.36375883       0.55663856 </v>
   <v>       0.37509272       0.76491754       0.55553232 </v>
   <v>       0.88517377       0.24214507       0.55986552 </v>
   <v>       0.97745514       0.87300785       0.55564471 </v>
   <v>       0.23498725       0.39829803       0.55866075 </v>
   <v>       0.15481042       0.98580602       0.55938160 </v>
   <v>       0.67892790       0.94173390       0.56442222 </v>
   <v>       0.56965857       0.30856495       0.55486525 </v>
   <v>       0.49302021       0.80986243       0.54509773 </v>
   <v>       0.00015053       0.20295207       0.54538789 </v>
   <v>       0.07296811       0.78932719       0.55009086 </v>
   <v>       0.19004040       0.51246570       0.54624793 </v>
   <v>       0.27278531       0.94290917       0.54947770 </v>
   <v>       0.80047401       0.94174321       0.55370419 </v>
   <v>       0.45342088       0.29470326       0.67291328 </v>
   <v>       0.44134013       0.81261625       0.67100927 </v>
   <v>       0.95947460       0.28297523       0.67752339 </v>
   <v>       0.91416585       0.73908141       0.66681330 </v>
   <v>       0.29821049       0.04249500       0.67482137 </v>
   <v>       0.30230059       0.55963669       0.67362424 </v>
   <v>       0.79754080       0.05388568       0.67501453 </v>
   <v>       0.83117201       0.49034562       0.66820164 </v>
   <v>       0.09099385       0.17120508       0.64676919 </v>
   <v>       0.10648879       0.69933429       0.65320255 </v>
   <v>       0.57779020       0.16349020       0.64685728 </v>
   <v>       0.57565449       0.67551340       0.65139994 </v>
   <v>       0.18658977       0.41174354       0.65115856 </v>
   <v>       0.16270453       0.93021260       0.64578285 </v>
   <v>       0.63795658       0.46950663       0.65227640 </v>
   <v>       0.67418113       0.91768416       0.65008339 </v>
   <v>       0.06417338       0.18858192       0.67303934 </v>
   <v>       0.02745790       0.65707148       0.66333556 </v>
   <v>       0.54431086       0.18701639       0.67209549 </v>
   <v>       0.54362798       0.71331465       0.67536750 </v>
   <v>       0.21633678       0.44611773       0.67586077 </v>
   <v>       0.18611527       0.95470772       0.67203084 </v>
   <v>       0.70088717       0.43541521       0.67081294 </v>
   <v>       0.69869050       0.95092258       0.67541475 </v>
   <v>       0.43804664       0.33829782       0.64845441 </v>
   <v>       0.41575868       0.82939573       0.64456074 </v>
   <v>       0.92611576       0.32009357       0.65354051 </v>
   <v>       0.92584480       0.83038923       0.65824231 </v>
   <v>       0.34128725       0.06234345       0.65080430 </v>
   <v>       0.31977981       0.59029215       0.64771207 </v>
   <v>       0.82819199       0.07911221       0.64958103 </v>
   <v>       0.84294405       0.55749786       0.64860941 </v>
   <v>       0.00569669       0.25257072       0.63244113 </v>
   <v>       0.04785806       0.81254239       0.64761287 </v>
   <v>       0.51381919       0.25796723       0.62969302 </v>
   <v>       0.49824290       0.74548588       0.63032474 </v>
   <v>       0.25807426       0.99444720       0.63059048 </v>
   <v>       0.24878786       0.49953960       0.63166577 </v>
   <v>       0.75378587       0.99451107       0.63219420 </v>
   <v>       0.72198962       0.54881053       0.63641782 </v>
   <v>       0.44874502       0.30128397       0.76888902 </v>
   <v>       0.44874501       0.80128391       0.76888902 </v>
   <v>       0.94874497       0.30128397       0.76888902 </v>
   <v>       0.94874501       0.80128391       0.76888902 </v>
   <v>       0.30127600       0.05129450       0.76887296 </v>
   <v>       0.30127601       0.55129450       0.76887296 </v>
   <v>       0.80127594       0.05129450       0.76887296 </v>
   <v>       0.80127598       0.55129450       0.76887296 </v>
   <v>       0.07877100       0.17118050       0.74344197 </v>
   <v>       0.07877101       0.67118045       0.74344197 </v>
   <v>       0.57877100       0.17118050       0.74344197 </v>
   <v>       0.57877099       0.67118045       0.74344197 </v>
   <v>       0.17119950       0.42117448       0.74342103 </v>
   <v>       0.17119950       0.92117451       0.74342103 </v>
   <v>       0.67119951       0.42117448       0.74342103 </v>
   <v>       0.67119950       0.92117451       0.74342103 </v>
   <v>       0.05125600       0.19871499       0.76888902 </v>
   <v>       0.05125600       0.69871493       0.76888902 </v>
   <v>       0.55125603       0.19871499       0.76888902 </v>
   <v>       0.55125602       0.69871493       0.76888902 </v>
   <v>       0.19872349       0.44870397       0.76887205 </v>
   <v>       0.19872349       0.94870397       0.76887205 </v>
   <v>       0.69872352       0.44870397       0.76887205 </v>
   <v>       0.69872351       0.94870397       0.76887205 </v>
   <v>       0.42123152       0.32881747       0.74344197 </v>
   <v>       0.42123151       0.82881744       0.74344197 </v>
   <v>       0.92123147       0.32881747       0.74344197 </v>
   <v>       0.92123151       0.82881744       0.74344197 </v>
   <v>       0.32880050       0.07882500       0.74342103 </v>
   <v>       0.32880049       0.57882496       0.74342103 </v>
   <v>       0.82880048       0.07882500       0.74342103 </v>
   <v>       0.82880052       0.57882496       0.74342103 </v>
   <v>       0.00000350       0.25000148       0.72582199 </v>
   <v>       0.00000350       0.75000145       0.72582199 </v>
   <v>       0.50000351       0.25000148       0.72582199 </v>
   <v>       0.50000350       0.75000145       0.72582199 </v>
   <v>       0.25000050       0.00000000       0.72580398 </v>
   <v>       0.25000052       0.50000000       0.72580398 </v>
   <v>       0.75000050       0.00000000       0.72580398 </v>
   <v>       0.75000049       0.50000000       0.72580398 </v>
   <v>       0.79988481       0.50838876       0.51435971 </v>
   <v>       0.87860046       0.50076039       0.53109658 </v>
   <v>       0.76073066       0.62066709       0.53196474 </v>
   <v>       0.75905315       0.62378120       0.56010922 </v>
   <v>       0.68673525       0.44593505       0.55032736 </v>
   <v>       0.66937358       0.53852865       0.55779791 </v>
   <v>       0.79646571       0.42515223       0.56658421 </v>
   <v>       0.86555214       0.49557038       0.56913080 </v>
   <v>       0.85727852       0.37481881       0.53923182 </v>
   <v>       0.76289381       0.37674107       0.53261080 </v>
   <v>       0.78347842       0.38251466       0.49533159 </v>
   <v>       0.87622610       0.40848923       0.49784167 </v>
   <v>       0.89778642       0.61864658       0.53109683 </v>
   <v>       0.90233451       0.60553817       0.55930065 </v>
   <v>       0.86647856       0.68903610       0.54867035 </v>
   <v>       0.60016436       0.51223645       0.52576275 </v>
   <v>       0.68032942       0.48481337       0.51092208 </v>
   <v>       0.66672668       0.57918753       0.51894315 </v>
   <v>       0.70719258       0.50514482       0.58745527 </v>
   <v>       0.77751624       0.57319947       0.59085261 </v>
   <v>       0.78802195       0.48314697       0.60155379 </v>
   <v>       0.82129383       0.25683688       0.51269916 </v>
   <v>       0.84593805       0.27416218       0.48614106 </v>
   <v>       0.92466423       0.15977571       0.49858541 </v>
   <v>       0.97318129       0.38428581       0.51775413 </v>
   <v>       0.05589194       0.12649299       0.50382950 </v>
   <v>       0.10231756       0.35141805       0.52274585 </v>
   <v>       0.14689628       0.22253548       0.51569690 </v>
   <v>       0.99820290       0.23775730       0.55970777 </v>
   <v>       0.02677948       0.77458232       0.56060908 </v>
   <v>       0.52159320       0.27524424       0.55927916 </v>
   <v>       0.48891560       0.76221900       0.55584573 </v>
   <v>       0.24101949       0.51052190       0.55564367 </v>
   <v>       0.26683895       0.99846081       0.55607265 </v>
   <v>       0.77721194       0.99272396       0.56006057 </v>
   <v>       0.00834504       0.24560945       0.64975813 </v>
   <v>       0.01726459       0.76616114       0.65482818 </v>
   <v>       0.50802199       0.25078735       0.64708408 </v>
   <v>       0.49592340       0.75244583       0.64774888 </v>
   <v>       0.25317457       0.50049244       0.64913435 </v>
   <v>       0.25152400       0.99635167       0.64790968 </v>
   <v>       0.74015893       0.51421927       0.64976943 </v>
   <v>       0.75125389       0.99763754       0.64965307 </v>
   <v>       0.49998898       0.24999498       0.74327702 </v>
   <v>       0.49998903       0.74999496       0.74327702 </v>
   <v>       0.99998898       0.24999498       0.74327702 </v>
   <v>       0.99998903       0.74999496       0.74327702 </v>
   <v>       0.25000050       0.00000100       0.74325596 </v>
   <v>       0.25000052       0.50000100       0.74325596 </v>
   <v>       0.75000050       0.00000100       0.74325596 </v>
   <v>       0.75000049       0.50000100       0.74325596 </v>
   <v>       0.93823204       0.27430962       0.50732211 </v>
   <v>       0.96345136       0.20230988       0.50382581 </v>
   <v>       0.99000721       0.32755246       0.51414751 </v>
   <v>       0.03822470       0.18342216       0.50646476 </v>
   <v>       0.06419742       0.30878211       0.51705734 </v>
   <v>       0.08909225       0.23689891       0.51297522 </v>
   <v>       0.82095952       0.48308499       0.52907195 </v>
   <v>       0.78962342       0.60194698       0.54641733 </v>
   <v>       0.69504333       0.50399441       0.54539943 </v>
   <v>       0.80556782       0.48522868       0.56834427 </v>
   <v>       0.81723461       0.39879850       0.52791693 </v>
   <v>       0.83361261       0.37350769       0.50498617 </v>
   <v>       0.86919784       0.62891916       0.54629066 </v>
   <v>       0.66024693       0.52077780       0.52384147 </v>
   <v>       0.76641202       0.51446034       0.58786044 </v>
   <v>       0.85731577       0.29212140       0.50272442 </v>
   <v>       0.06118619       0.25585994       0.56874871 </v>
   <v>       0.03111269       0.71078358       0.57051133 </v>
   <v>       0.53406882       0.20523743       0.56421063 </v>
   <v>       0.54998936       0.73186660       0.56269659 </v>
   <v>       0.45568495       0.30735742       0.55905206 </v>
   <v>       0.42191353       0.73909070       0.56105063 </v>
   <v>       0.93332139       0.25911481       0.56693804 </v>
   <v>       0.97061651       0.82092107       0.56182917 </v>
   <v>       0.26337017       0.44535517       0.56242865 </v>
   <v>       0.19990269       0.01933615       0.56146868 </v>
   <v>       0.70719926       0.99085996       0.56550208 </v>
   <v>       0.32591930       0.04002136       0.55798068 </v>
   <v>       0.27537442       0.57310782       0.55953531 </v>
   <v>       0.82080039       0.05040655       0.56178326 </v>
   <v>       0.05703483       0.19875064       0.65716623 </v>
   <v>       0.05170186       0.70343757       0.65729107 </v>
   <v>       0.54514516       0.19711277       0.65603331 </v>
   <v>       0.54072311       0.71104673       0.65922237 </v>
   <v>       0.21673996       0.44987217       0.65964292 </v>
   <v>       0.19648350       0.95863548       0.65603002 </v>
   <v>       0.69056661       0.46954776       0.65811686 </v>
   <v>       0.70577132       0.95256577       0.65926138 </v>
   <v>       0.46373122       0.29749982       0.65701874 </v>
   <v>       0.44801503       0.80082225       0.65516217 </v>
   <v>       0.96207919       0.28489461       0.66123266 </v>
   <v>       0.94772886       0.77880160       0.66019485 </v>
   <v>       0.29935646       0.03639158       0.65862722 </v>
   <v>       0.29427830       0.55331676       0.65767311 </v>
   <v>       0.79459530       0.04688067       0.65895565 </v>
   <v>       0.80879893       0.52054918       0.65603942 </v>
   <v>       0.04586250       0.20411950       0.75272599 </v>
   <v>       0.04586250       0.70411946       0.75272599 </v>
   <v>       0.54586251       0.20411950       0.75272599 </v>
   <v>       0.54586250       0.70411946       0.75272599 </v>
   <v>       0.20411900       0.45410100       0.75270499 </v>
   <v>       0.20411899       0.95410095       0.75270499 </v>
   <v>       0.70411898       0.45410100       0.75270499 </v>
   <v>       0.70411896       0.95410095       0.75270499 </v>
   <v>       0.45414002       0.29588849       0.75272697 </v>
   <v>       0.45414001       0.79588852       0.75272697 </v>
   <v>       0.95414002       0.29588849       0.75272697 </v>
[...]
   <v>       0.58795943       0.18796713       0.56487256 </v>
   <v>       0.60021264       0.75502980       0.55882509 </v>
   <v>       0.37783956       0.01912152       0.55455403 </v>
   <v>       0.25364202       0.62277784       0.55463156 </v>
   <v>       0.87550790       0.04544888       0.55736417 </v>
   <v>       0.06368164       0.28784508       0.58245665 </v>
   <v>       0.99294313       0.69492532       0.58189983 </v>
   <v>       0.49384329       0.17264932       0.57102132 </v>
   <v>       0.55076532       0.69137135       0.57419908 </v>
   <v>       0.30808791       0.43856784       0.57249653 </v>
   <v>       0.18877691       0.06822208       0.56945246 </v>
   <v>       0.68101676       0.03382339       0.57323831 </v>
   <v>       0.45278904       0.36375883       0.55663856 </v>
   <v>       0.37509272       0.76491754       0.55553232 </v>
   <v>       0.88517377       0.24214507       0.55986552 </v>
   <v>       0.97745514       0.87300785       0.55564471 </v>
   <v>       0.23498725       0.39829803       0.55866075 </v>
   <v>       0.15481042       0.98580602       0.55938160 </v>
   <v>       0.67892790       0.94173390       0.56442222 </v>
   <v>       0.56965857       0.30856495       0.55486525 </v>
   <v>       0.49302021       0.80986243       0.54509773 </v>
   <v>       0.00015053       0.20295207       0.54538789 </v>
   <v>       0.07296811       0.78932719       0.55009086 </v>
   <v>       0.19004040       0.51246570       0.54624793 </v>
   <v>       0.27278531       0.94290917       0.54947770 </v>
   <v>       0.80047401       0.94174321       0.55370419 </v>
   <v>       0.45342088       0.29470326       0.67291328 </v>
   <v>       0.44134013       0.81261625       0.67100927 </v>
   <v>       0.95947460       0.28297523       0.67752339 </v>
   <v>       0.91416585       0.73908141       0.66681330 </v>
   <v>       0.29821049       0.04249500       0.67482137 </v>
   <v>       0.30230059       0.55963669       0.67362424 </v>
   <v>       0.79754080       0.05388568       0.67501453 </v>
   <v>       0.83117201       0.49034562       0.66820164 </v>
   <v>       0.09099385       0.17120508       0.64676919 </v>
   <v>       0.10648879       0.69933429       0.65320255 </v>
   <v>       0.57779020       0.16349020       0.64685728 </v>
   <v>       0.57565449       0.67551340       0.65139994 </v>
   <v>       0.18658977       0.41174354       0.65115856 </v>
   <v>       0.16270453       0.93021260       0.64578285 </v>
   <v>       0.63795658       0.46950663       0.65227640 </v>
   <v>       0.67418113       0.91768416       0.65008339 </v>
   <v>       0.06417338       0.18858192       0.67303934 </v>
   <v>       0.02745790       0.65707148       0.66333556 </v>
   <v>       0.54431086       0.18701639       0.67209549 </v>
   <v>       0.54362798       0.71331465       0.67536750 </v>
   <v>       0.21633678       0.44611773       0.67586077 </v>
   <v>       0.18611527       0.95470772       0.67203084 </v>
   <v>       0.70088717       0.43541521       0.67081294 </v>
   <v>       0.69869050       0.95092258       0.67541475 </v>
   <v>       0.43804664       0.33829782       0.64845441 </v>
   <v>       0.41575868       0.82939573       0.64456074 </v>
   <v>       0.92611576       0.32009357       0.65354051 </v>
   <v>       0.92584480       0.83038923       0.65824231 </v>
   <v>       0.34128725       0.06234345       0.65080430 </v>
   <v>       0.31977981       0.59029215       0.64771207 </v>
   <v>       0.82819199       0.07911221       0.64958103 </v>
   <v>       0.84294405       0.55749786       0.64860941 </v>
   <v>       0.00569669       0.25257072       0.63244113 </v>
   <v>       0.04785806       0.81254239       0.64761287 </v>
   <v>       0.51381919       0.25796723       0.62969302 </v>
   <v>       0.49824290       0.74548588       0.63032474 </v>
   <v>       0.25807426       0.99444720       0.63059048 </v>
   <v>       0.24878786       0.49953960       0.63166577 </v>
   <v>       0.75378587       0.99451107       0.63219420 </v>
   <v>       0.72198962       0.54881053       0.63641782 </v>
   <v>       0.44874502       0.30128397       0.76888902 </v>
   <v>       0.44874501       0.80128391       0.76888902 </v>
   <v>       0.94874497       0.30128397       0.76888902 </v>
   <v>       0.94874501       0.80128391       0.76888902 </v>
   <v>       0.30127600       0.05129450       0.76887296 </v>
   <v>       0.30127601       0.55129450       0.76887296 </v>
   <v>       0.80127594       0.05129450       0.76887296 </v>
   <v>       0.80127598       0.55129450       0.76887296 </v>
   <v>       0.07877100       0.17118050       0.74344197 </v>
   <v>       0.07877101       0.67118045       0.74344197 </v>
   <v>       0.57877100       0.17118050       0.74344197 </v>
   <v>       0.57877099       0.67118045       0.74344197 </v>
   <v>       0.17119950       0.42117448       0.74342103 </v>
   <v>       0.17119950       0.92117451       0.74342103 </v>
   <v>       0.67119951       0.42117448       0.74342103 </v>
   <v>       0.67119950       0.92117451       0.74342103 </v>
   <v>       0.05125600       0.19871499       0.76888902 </v>
   <v>       0.05125600       0.69871493       0.76888902 </v>
   <v>       0.55125603       0.19871499       0.76888902 </v>
   <v>       0.55125602       0.69871493       0.76888902 </v>
   <v>       0.19872349       0.44870397       0.76887205 </v>
   <v>       0.19872349       0.94870397       0.76887205 </v>
   <v>       0.69872352       0.44870397       0.76887205 </v>
   <v>       0.69872351       0.94870397       0.76887205 </v>
   <v>       0.42123152       0.32881747       0.74344197 </v>
   <v>       0.42123151       0.82881744       0.74344197 </v>
   <v>       0.92123147       0.32881747       0.74344197 </v>
   <v>       0.92123151       0.82881744       0.74344197 </v>
   <v>       0.32880050       0.07882500       0.74342103 </v>
   <v>       0.32880049       0.57882496       0.74342103 </v>
   <v>       0.82880048       0.07882500       0.74342103 </v>
   <v>       0.82880052       0.57882496       0.74342103 </v>
   <v>       0.00000350       0.25000148       0.72582199 </v>
   <v>       0.00000350       0.75000145       0.72582199 </v>
   <v>       0.50000351       0.25000148       0.72582199 </v>
   <v>       0.50000350       0.75000145       0.72582199 </v>
   <v>       0.25000050       0.00000000       0.72580398 </v>
   <v>       0.25000052       0.50000000       0.72580398 </v>
   <v>       0.75000050       0.00000000       0.72580398 </v>
   <v>       0.75000049       0.50000000       0.72580398 </v>
   <v>       0.79988481       0.50838876       0.51435971 </v>
   <v>       0.87860046       0.50076039       0.53109658 </v>
   <v>       0.76073066       0.62066709       0.53196474 </v>
   <v>       0.75905315       0.62378120       0.56010922 </v>
   <v>       0.68673525       0.44593505       0.55032736 </v>
   <v>       0.66937358       0.53852865       0.55779791 </v>
   <v>       0.79646571       0.42515223       0.56658421 </v>
   <v>       0.86555214       0.49557038       0.56913080 </v>
   <v>       0.85727852       0.37481881       0.53923182 </v>
   <v>       0.76289381       0.37674107       0.53261080 </v>
   <v>       0.78347842       0.38251466       0.49533159 </v>
   <v>       0.87622610       0.40848923       0.49784167 </v>
   <v>       0.89778642       0.61864658       0.53109683 </v>
   <v>       0.90233451       0.60553817       0.55930065 </v>
   <v>       0.86647856       0.68903610       0.54867035 </v>
   <v>       0.60016436       0.51223645       0.52576275 </v>
   <v>       0.68032942       0.48481337       0.51092208 </v>
   <v>       0.66672668       0.57918753       0.51894315 </v>
   <v>       0.70719258       0.50514482       0.58745527 </v>
   <v>       0.77751624       0.57319947       0.59085261 </v>
   <v>       0.78802195       0.48314697       0.60155379 </v>
   <v>       0.82129383       0.25683688       0.51269916 </v>
   <v>       0.84593805       0.27416218       0.48614106 </v>
   <v>       0.92466423       0.15977571       0.49858541 </v>
   <v>       0.97318129       0.38428581       0.51775413 </v>
   <v>       0.05589194       0.12649299       0.50382950 </v>
   <v>       0.10231756       0.35141805       0.52274585 </v>
   <v>       0.14689628       0.22253548       0.51569690 </v>
   <v>       0.99820290       0.23775730       0.55970777 </v>
   <v>       0.02677948       0.77458232       0.56060908 </v>
   <v>       0.52159320       0.27524424       0.55927916 </v>
   <v>       0.48891560       0.76221900       0.55584573 </v>
   <v>       0.24101949       0.51052190       0.55564367 </v>
   <v>       0.26683895       0.99846081       0.55607265 </v>
   <v>       0.77721194       0.99272396       0.56006057 </v>
   <v>       0.00834504       0.24560945       0.64975813 </v>
   <v>       0.01726459       0.76616114       0.65482818 </v>
   <v>       0.50802199       0.25078735       0.64708408 </v>
   <v>       0.49592340       0.75244583       0.64774888 </v>
   <v>       0.25317457       0.50049244       0.64913435 </v>
   <v>       0.25152400       0.99635167       0.64790968 </v>
   <v>       0.74015893       0.51421927       0.64976943 </v>
   <v>       0.75125389       0.99763754       0.64965307 </v>
   <v>       0.49998898       0.24999498       0.74327702 </v>
   <v>       0.49998903       0.74999496       0.74327702 </v>
   <v>       0.99998898       0.24999498       0.74327702 </v>
   <v>       0.99998903       0.74999496       0.74327702 </v>
   <v>       0.25000050       0.00000100       0.74325596 </v>
   <v>       0.25000052       0.50000100       0.74325596 </v>
   <v>       0.75000050       0.00000100       0.74325596 </v>
   <v>       0.75000049       0.50000100       0.74325596 </v>
   <v>       0.93823204       0.27430962       0.50732211 </v>
   <v>       0.96345136       0.20230988       0.50382581 </v>
   <v>       0.99000721       0.32755246       0.51414751 </v>
   <v>       0.03822470       0.18342216       0.50646476 </v>
   <v>       0.06419742       0.30878211       0.51705734 </v>
   <v>       0.08909225       0.23689891       0.51297522 </v>
   <v>       0.82095952       0.48308499       0.52907195 </v>
   <v>       0.78962342       0.60194698       0.54641733 </v>
   <v>       0.69504333       0.50399441       0.54539943 </v>
   <v>       0.80556782       0.48522868       0.56834427 </v>
   <v>       0.81723461       0.39879850       0.52791693 </v>
   <v>       0.83361261       0.37350769       0.50498617 </v>
   <v>       0.86919784       0.62891916       0.54629066 </v>
   <v>       0.66024693       0.52077780       0.52384147 </v>
   <v>       0.76641202       0.51446034       0.58786044 </v>
   <v>       0.85731577       0.29212140       0.50272442 </v>
   <v>       0.06118619       0.25585994       0.56874871 </v>
   <v>       0.03111269       0.71078358       0.57051133 </v>
   <v>       0.53406882       0.20523743       0.56421063 </v>
   <v>       0.54998936       0.73186660       0.56269659 </v>
   <v>       0.45568495       0.30735742       0.55905206 </v>
   <v>       0.42191353       0.73909070       0.56105063 </v>
   <v>       0.93332139       0.25911481       0.56693804 </v>
   <v>       0.97061651       0.82092107       0.56182917 </v>
   <v>       0.26337017       0.44535517       0.56242865 </v>
   <v>       0.19990269       0.01933615       0.56146868 </v>
   <v>       0.70719926       0.99085996       0.56550208 </v>
   <v>       0.32591930       0.04002136       0.55798068 </v>
   <v>       0.27537442       0.57310782       0.55953531 </v>
   <v>       0.82080039       0.05040655       0.56178326 </v>
   <v>       0.05703483       0.19875064       0.65716623 </v>
   <v>       0.05170186       0.70343757       0.65729107 </v>
   <v>       0.54514516       0.19711277       0.65603331 </v>
   <v>       0.54072311       0.71104673       0.65922237 </v>
   <v>       0.21673996       0.44987217       0.65964292 </v>
   <v>       0.19648350       0.95863548       0.65603002 </v>
   <v>       0.69056661       0.46954776       0.65811686 </v>
   <v>       0.70577132       0.95256577       0.65926138 </v>
   <v>       0.46373122       0.29749982       0.65701874 </v>
   <v>       0.44801503       0.80082225       0.65516217 </v>
   <v>       0.96207919       0.28489461       0.66123266 </v>
   <v>       0.94772886       0.77880160       0.66019485 </v>
   <v>       0.29935646       0.03639158       0.65862722 </v>
   <v>       0.29427830       0.55331676       0.65767311 </v>
   <v>       0.79459530       0.04688067       0.65895565 </v>
   <v>       0.80879893       0.52054918       0.65603942 </v>
   <v>       0.04586250       0.20411950       0.75272599 </v>
   <v>       0.04586250       0.70411946       0.75272599 </v>
   <v>       0.54586251       0.20411950       0.75272599 </v>
   <v>       0.54586250       0.70411946       0.75272599 </v>
   <v>       0.20411900       0.45410100       0.75270499 </v>
   <v>       0.20411899       0.95410095       0.75270499 </v>
   <v>       0.70411898       0.45410100       0.75270499 </v>
   <v>       0.70411896       0.95410095       0.75270499 </v>
   <v>       0.45414002       0.29588849       0.75272697 </v>
   <v>       0.45414001       0.79588852       0.75272697 </v>
   <v>       0.95414002       0.29588849       0.75272697 </v>
   <v>       0.95414006       0.79588852       0.75272697 </v>
   <v>       0.29588249       0.04590050       0.75270499 </v>
   <v>       0.29588248       0.54590053       0.75270499 </v>
   <v>       0.79588244       0.04590050       0.75270499 </v>
   <v>       0.79588248       0.54590053       0.75270499 </v>
   <v>       0.77860029       0.51851895       0.54719221 </v>
   <v>       0.50998209       0.97848739       0.55275484 </v>
   <v>       0.47137290       0.50749997       0.55327729 </v>
   <v>       0.00844507       0.01259792       0.55112091 </v>
   <v>       0.03250003       0.49097080       0.55448944 </v>
   <v>       0.25627929       0.24178119       0.55477417 </v>
   <v>       0.23066688       0.76654603       0.55105345 </v>
   <v>       0.73541261       0.22736856       0.55486916 </v>
   <v>       0.72832602       0.79592716       0.55428042 </v>
   <v>       0.99591008       0.98354502       0.65422051 </v>
   <v>       0.00729419       0.50344716       0.65533554 </v>
   <v>       0.49727887       0.00133127       0.65451085 </v>
   <v>       0.49580286       0.50082956       0.65415617 </v>
   <v>       0.26360817       0.24016139       0.65542254 </v>
   <v>       0.24571202       0.75369148       0.65377456 </v>
   <v>       0.74368971       0.26125306       0.65526436 </v>
   <v>       0.74990565       0.73633661       0.65493263 </v>
   <v>       0.13630120       0.11723727       0.60908435 </v>
   <v>       0.14695137       0.60848291       0.60612373 </v>
   <v>       0.64007631       0.11094483       0.60888564 </v>
   <v>       0.61786463       0.63049586       0.60802872 </v>
   <v>       0.36787606       0.38479715       0.60850312 </v>
   <v>       0.36469061       0.88622686       0.60555642 </v>
   <v>       0.88750662       0.36464720       0.61206987 </v>
   <v>       0.86299560       0.89111857       0.60560398 </v>
   <v>       0.12629180       0.36960145       0.61104257 </v>
   <v>       0.11604657       0.87243848       0.60577882 </v>
   <v>       0.61669060       0.36913300       0.60172271 </v>
   <v>       0.61547830       0.86380479       0.61197512 </v>
   <v>       0.39691285       0.14037126       0.60391327 </v>
   <v>       0.37898272       0.63267028       0.60762117 </v>
   <v>       0.88198703       0.13299150       0.61264683 </v>
   <v>       0.90243295       0.64822459       0.61048899 </v>
   <v>       0.00000000       0.00000000       0.75492797 </v>
   <v>       0.00000000       0.50000000       0.75492797 </v>
   <v>       0.50000000       0.00000000       0.75492797 </v>
   <v>       0.49999999       0.50000000       0.75492797 </v>
   <v>       0.25000050       0.25000000       0.75493902 </v>
   <v>       0.25000051       0.74999997       0.75493902 </v>
   <v>       0.75000047       0.25000000       0.75493902 </v>
   <v>       0.75000046       0.74999997       0.75493902 </v>
   <v>       0.13579050       0.11421000       0.70478299 </v>
   <v>       0.13579050       0.61420998       0.70478299 </v>
   <v>       0.63579045       0.11421000       0.70478299 </v>
   <v>       0.63579049       0.61420998       0.70478299 </v>
   <v>       0.36420952       0.38578999       0.70478299 </v>
   <v>       0.36420950       0.88578996       0.70478299 </v>
   <v>       0.86420954       0.38578999       0.70478299 </v>
   <v>       0.86420953       0.88578996       0.70478299 </v>
   <v>       0.11421799       0.36421899       0.70478098 </v>
   <v>       0.11421799       0.86421899       0.70478098 </v>
   <v>       0.61421800       0.36421899       0.70478098 </v>
   <v>       0.61421799       0.86421899       0.70478098 </v>
   <v>       0.38578201       0.13578149       0.70478202 </v>
   <v>       0.38578200       0.63578149       0.70478202 </v>
   <v>       0.88578199       0.13578149       0.70478202 </v>
   <v>       0.88578203       0.63578149       0.70478202 </v>
   <v>       0.13466700       0.11533200       0.80125603 </v>
   <v>       0.13466699       0.61533199       0.80125603 </v>
   <v>       0.63466699       0.11533200       0.80125603 </v>
   <v>       0.63466698       0.61533199       0.80125603 </v>
   <v>       0.36533300       0.38466799       0.80125603 </v>
   <v>       0.36533299       0.88466796       0.80125603 </v>
   <v>       0.86533295       0.38466799       0.80125603 </v>
   <v>       0.86533294       0.88466796       0.80125603 </v>
   <v>       0.11532850       0.36533700       0.80126500 </v>
   <v>       0.11532850       0.86533698       0.80126500 </v>
   <v>       0.61532850       0.36533700       0.80126500 </v>
   <v>       0.61532849       0.86533698       0.80126500 </v>
   <v>       0.38467151       0.13466300       0.80126500 </v>
   <v>       0.38467150       0.63466297       0.80126500 </v>
   <v>       0.88467149       0.13466300       0.80126500 </v>
   <v>       0.88467153       0.63466297       0.80126500 </v>
   <v>       0.99826600       0.00645478       0.60416613 </v>
   <v>       0.00923640       0.50221418       0.60398311 </v>
   <v>       0.50166604       0.99393528       0.60299115 </v>
   <v>       0.49911724       0.50045923       0.60278194 </v>
   <v>       0.25550709       0.24894246       0.60602069 </v>
   <v>       0.24476586       0.75677777       0.60320799 </v>
   <v>       0.74828826       0.25115836       0.60579194 </v>
   <v>       0.75042775       0.75796599       0.60488582 </v>
   <v>       0.00000050       0.00000050       0.70482896 </v>
   <v>       0.00000050       0.50000048       0.70482896 </v>
   <v>       0.50000048       0.00000050       0.70482896 </v>
   <v>       0.50000046       0.50000048       0.70482896 </v>
   <v>       0.24999999       0.24999947       0.70482499 </v>
   <v>       0.25000001       0.74999950       0.70482499 </v>
   <v>       0.74999999       0.24999947       0.70482499 </v>
   <v>       0.74999998       0.74999950       0.70482499 </v>
   <v>       0.00000000       0.00000000       0.80731797 </v>
   <v>       0.00000000       0.50000000       0.80731797 </v>
   <v>       0.50000000       0.00000000       0.80731797 </v>
   <v>       0.49999999       0.50000000       0.80731797 </v>
   <v>       0.24999999       0.25000000       0.80731797 </v>
   <v>       0.25000001       0.74999997       0.80731797 </v>
   <v>       0.74999999       0.25000000       0.80731797 </v>
   <v>       0.74999998       0.74999997       0.80731797 </v>
  </varray>
 </structure>
</modeling>
