 vasp.6.2.1 16May21 (build Nov 15 2021 14:57:28) complex                         
 executed on             LinuxPGI date 2023.07.24  22:15:33
 running on    4 total cores
 distrk:  each k-point on    4 cores,    1 groups
 distr:  one band on NCORE=   1 cores,    4 groups


--------------------------------------------------------------------------------------------------------


 INCAR:
   SYSTEM = PSC
   ISTART = 1
   ICHARG = 1
   PREC = Normal
   ENCUT = 500
   GGA_COMPAT = F
   NELM = 600
   ISYM = 0
   LREAL = Auto
   ISMEAR = 0
   SIGMA = 0.05
   AMIN = 0.01
   BMIX = 0.01
   LVTOT = T
   LWAVE = F
   LDIPOL = T
   IDIPOL = 3
   LVDW = T
   IVDW = 12

 POTCAR:    PAW_PBE H 15Jun2001                   
 POTCAR:    PAW_PBE C 08Apr2002                   
 POTCAR:    PAW_PBE N 08Apr2002                   
 POTCAR:    PAW_PBE I 08Apr2002                   
 POTCAR:    PAW_PBE Pb 08Apr2002                  
 WARNING: For LVTOT=.TRUE., VASP.5.x writes the TOTAL local potential to the
     file LOCPOT. If you want only the Hartree contributions, use LVHAR=.TRUE.
     instead. 

 POTCAR:    PAW_PBE H 15Jun2001                   
   SHA256 =  030f79b5d3ab3cf0e668861823c8fb652ff669f3e15e46930bd03bfd63a607b6 H/POTCAR              
   COPYR  = (c) Copyright 15Jun2001 Georg Kresse                                                    
   COPYR  = This file is part of the software VASP. Any use, copying, and all other rights are regul
   COPYR  = If you do not have a valid VASP license, you may not use, copy or distribute this file. 
   VRHFIN =H: ultrasoft test                                                                        
   LEXCH  = PE                                                                                      
   EATOM  =    12.4884 eV,    0.9179 Ry                                                             
                                                                                                    
   TITEL  = PAW_PBE H 15Jun2001                                                                     
   LULTRA =        F    use ultrasoft PP ?                                                          
   IUNSCR =        0    unscreen: 0-lin 1-nonlin 2-no                                               
   RPACOR =    0.000    partial core radius                                                         
   POMASS =    1.000; ZVAL   =    1.000    mass and valenz                                          
   RCORE  =    1.100    outmost cutoff radius                                                       
   RWIGS  =    0.700; RWIGS  =    0.370    wigner-seitz radius (au A)                               
   ENMAX  =  250.000; ENMIN  =  200.000 eV                                                          
   RCLOC  =    0.701    cutoff for local pot                                                        
   LCOR   =        T    correct aug charges                                                         
   LPAW   =        T    paw PP                                                                      
   EAUG   =  400.000                                                                                
   RMAX   =    1.123    core radius for proj-oper                                                   
   RAUG   =    1.200    factor for augmentation sphere                                              
   RDEP   =    1.112    radius for radial grids                                                     
   RDEPT  =    0.926    core radius for aug-charge                                                  
                                                                                                    
   Atomic configuration                                                                             
    2 entries                                                                                       
     n  l   j            E        occ.                                                              
     1  0  0.50        -6.4927   1.0000                                                             
     2  1  0.50        -3.4015   0.0000                                                             
   Description                                                                                      
     l       E           TYP  RCUT    TYP  RCUT                                                     
     0     -6.4927494     23  1.100                                                                 
     0      6.8029130     23  1.100                                                                 
     1     -4.0817478     23  1.100                                                                 
  local pseudopotential read in
  atomic valenz-charges read in
  non local Contribution for L=            0  read in
    real space projection operators read in
  non local Contribution for L=            0  read in
    real space projection operators read in
  non local Contribution for L=            1  read in
    real space projection operators read in
    PAW grid and wavefunctions read in
 
   number of l-projection  operators is LMAX  =            3
   number of lm-projection operators is LMMAX =            5
 
 POTCAR:    PAW_PBE C 08Apr2002                   
   SHA256 =  253f7b50bb8d59471dbedb8285d89021f4a42ed1a2c5d38a03a736e69125dd95 C/POTCAR              
   COPYR  = (c) Copyright 08Apr2002 Georg Kresse                                                    
   COPYR  = This file is part of the software VASP. Any use, copying, and all other rights are regul
   COPYR  = If you do not have a valid VASP license, you may not use, copy or distribute this file. 
   VRHFIN =C: s2p2                                                                                  
   LEXCH  = PE                                                                                      
   EATOM  =   147.1560 eV,   10.8157 Ry                                                             
                                                                                                    
   TITEL  = PAW_PBE C 08Apr2002                                                                     
   LULTRA =        F    use ultrasoft PP ?                                                          
   IUNSCR =        1    unscreen: 0-lin 1-nonlin 2-no                                               
   RPACOR =    1.200    partial core radius                                                         
   POMASS =   12.011; ZVAL   =    4.000    mass and valenz                                          
   RCORE  =    1.500    outmost cutoff radius                                                       
   RWIGS  =    1.630; RWIGS  =    0.863    wigner-seitz radius (au A)                               
   ENMAX  =  400.000; ENMIN  =  300.000 eV                                                          
   ICORE  =        2    local potential                                                             
   LCOR   =        T    correct aug charges                                                         
   LPAW   =        T    paw PP                                                                      
   EAUG   =  644.873                                                                                
   DEXC   =    0.000                                                                                
   RMAX   =    1.529    core radius for proj-oper                                                   
   RAUG   =    1.300    factor for augmentation sphere                                              
   RDEP   =    1.501    radius for radial grids                                                     
   RDEPT  =    1.300    core radius for aug-charge                                                  
                                                                                                    
   Atomic configuration                                                                             
    4 entries                                                                                       
     n  l   j            E        occ.                                                              
     1  0  0.50      -273.3789   2.0000                                                             
     2  0  0.50       -13.7508   2.0000                                                             
     2  1  0.50        -5.2854   2.0000                                                             
     3  2  1.50        -5.4423   0.0000                                                             
   Description                                                                                      
     l       E           TYP  RCUT    TYP  RCUT                                                     
     0    -13.7508458     23  1.200                                                                 
     0     -8.2022199     23  1.200                                                                 
     1     -5.2854383     23  1.500                                                                 
     1     34.0145650     23  1.500                                                                 
     2     -5.4423304      7  1.500                                                                 
  local pseudopotential read in
  partial core-charges read in
  partial kinetic energy density read in
  atomic valenz-charges read in
  non local Contribution for L=            0  read in
    real space projection operators read in
  non local Contribution for L=            0  read in
    real space projection operators read in
  non local Contribution for L=            1  read in
    real space projection operators read in
  non local Contribution for L=            1  read in
    real space projection operators read in
    PAW grid and wavefunctions read in
 
   number of l-projection  operators is LMAX  =            4
   number of lm-projection operators is LMMAX =            8
 
 POTCAR:    PAW_PBE N 08Apr2002                   
   SHA256 =  e053789ff3a61a86a1b75d8a110fcc91f86041011e7b0817c7c99e4e8a6349d7 N/POTCAR              
   COPYR  = (c) Copyright 08Apr2002 Georg Kresse                                                    
   COPYR  = This file is part of the software VASP. Any use, copying, and all other rights are regul
   COPYR  = If you do not have a valid VASP license, you may not use, copy or distribute this file. 
   VRHFIN =N: s2p3                                                                                  
   LEXCH  = PE                                                                                      
   EATOM  =   264.5486 eV,   19.4438 Ry                                                             
                                                                                                    
   TITEL  = PAW_PBE N 08Apr2002                                                                     
   LULTRA =        F    use ultrasoft PP ?                                                          
   IUNSCR =        1    unscreen: 0-lin 1-nonlin 2-no                                               
   RPACOR =    1.200    partial core radius                                                         
   POMASS =   14.001; ZVAL   =    5.000    mass and valenz                                          
   RCORE  =    1.500    outmost cutoff radius                                                       
   RWIGS  =    1.400; RWIGS  =    0.741    wigner-seitz radius (au A)                               
   ENMAX  =  400.000; ENMIN  =  300.000 eV                                                          
   ICORE  =        2    local potential                                                             
   LCOR   =        T    correct aug charges                                                         
   LPAW   =        T    paw PP                                                                      
   EAUG   =  627.112                                                                                
   DEXC   =    0.000                                                                                
   RMAX   =    1.529    core radius for proj-oper                                                   
   RAUG   =    1.300    factor for augmentation sphere                                              
   RDEP   =    1.514    radius for radial grids                                                     
   RDEPT  =    1.338    core radius for aug-charge                                                  
                                                                                                    
   Atomic configuration                                                                             
    4 entries                                                                                       
     n  l   j            E        occ.                                                              
     1  0  0.50      -384.7179   2.0000                                                             
     2  0  0.50       -18.5828   2.0000                                                             
     2  1  0.50        -7.0898   3.0000                                                             
     3  2  1.50        -6.8029   0.0000                                                             
   Description                                                                                      
     l       E           TYP  RCUT    TYP  RCUT                                                     
     0    -18.5828119     23  1.200                                                                 
     0    -13.5018863     23  1.200                                                                 
     1     -7.0897853     23  1.500                                                                 
     1      9.5240782     23  1.500                                                                 
     2     -6.8029130      7  1.500                                                                 
  local pseudopotential read in
  partial core-charges read in
  partial kinetic energy density read in
  atomic valenz-charges read in
  non local Contribution for L=            0  read in
    real space projection operators read in
  non local Contribution for L=            0  read in
    real space projection operators read in
  non local Contribution for L=            1  read in
    real space projection operators read in
  non local Contribution for L=            1  read in
    real space projection operators read in
    PAW grid and wavefunctions read in
 
   number of l-projection  operators is LMAX  =            4
   number of lm-projection operators is LMMAX =            8
 
 POTCAR:    PAW_PBE I 08Apr2002                   
   SHA256 =  e40f3f59b681c1fc3e3091736183c4589116986673d2b852a5012aec72758799 I/POTCAR              
   COPYR  = (c) Copyright 08Apr2002 Georg Kresse                                                    
   COPYR  = This file is part of the software VASP. Any use, copying, and all other rights are regul
   COPYR  = If you do not have a valid VASP license, you may not use, copy or distribute this file. 
   VRHFIN =I : s2p5                                                                                 
   LEXCH  = PE                                                                                      
   EATOM  =   315.8678 eV,   23.2156 Ry                                                             
                                                                                                    
   TITEL  = PAW_PBE I 08Apr2002                                                                     
   LULTRA =        F    use ultrasoft PP ?                                                          
   IUNSCR =        1    unscreen: 0-lin 1-nonlin 2-no                                               
   RPACOR =    2.200    partial core radius                                                         
   POMASS =  126.904; ZVAL   =    7.000    mass and valenz                                          
   RCORE  =    2.300    outmost cutoff radius                                                       
   RWIGS  =    2.810; RWIGS  =    1.487    wigner-seitz radius (au A)                               
   ENMAX  =  175.647; ENMIN  =  131.735 eV                                                          
   ICORE  =        3    local potential                                                             
   LCOR   =        T    correct aug charges                                                         
   LPAW   =        T    paw PP                                                                      
   EAUG   =  370.139                                                                                
   DEXC   =    0.000                                                                                
   RMAX   =    2.359    core radius for proj-oper                                                   
   RAUG   =    1.300    factor for augmentation sphere                                              
   RDEP   =    2.392    radius for radial grids                                                     
   RDEPT  =    2.170    core radius for aug-charge                                                  
                                                                                                    
   Atomic configuration                                                                             
   13 entries                                                                                       
     n  l   j            E        occ.                                                              
     1  0  0.50    -32976.3739   2.0000                                                             
     2  0  0.50     -5094.5933   2.0000                                                             
     2  1  1.50     -4572.0131   6.0000                                                             
     3  0  0.50     -1028.2813   2.0000                                                             
     3  1  1.50      -859.0250   6.0000                                                             
     3  2  2.50      -605.7620  10.0000                                                             
     4  0  0.50      -180.5540   2.0000                                                             
     4  1  1.50      -127.5306   6.0000                                                             
     4  2  2.50       -50.2720  10.0000                                                             
     5  0  0.50       -17.4058   2.0000                                                             
     5  1  0.50        -7.0851   5.0000                                                             
     5  2  1.50        -7.0750   0.0000                                                             
     4  3  2.50        -7.0750   0.0000                                                             
   Description                                                                                      
     l       E           TYP  RCUT    TYP  RCUT                                                     
     0    -17.4058016     23  2.300                                                                 
     0    -18.7663842     23  2.300                                                                 
     1     -7.0850686     23  2.300                                                                 
     1     -4.2150896     23  2.300                                                                 
     2     -7.0750295     23  2.300                                                                 
     3     -1.3605826     23  2.300                                                                 
  local pseudopotential read in
  partial core-charges read in
  partial kinetic energy density read in
  atomic valenz-charges read in
  non local Contribution for L=            0  read in
    real space projection operators read in
  non local Contribution for L=            0  read in
    real space projection operators read in
  non local Contribution for L=            1  read in
    real space projection operators read in
  non local Contribution for L=            1  read in
    real space projection operators read in
  non local Contribution for L=            2  read in
    real space projection operators read in
    PAW grid and wavefunctions read in
 
   number of l-projection  operators is LMAX  =            5
   number of lm-projection operators is LMMAX =           13
 
 POTCAR:    PAW_PBE Pb 08Apr2002                  
   SHA256 =  797118a27cf1bcd06b9881c67a26cdde129e3cd1a551dd4a281f9681ce847303 Pb/POTCAR             
   COPYR  = (c) Copyright 08Apr2002 Georg Kresse                                                    
   COPYR  = This file is part of the software VASP. Any use, copying, and all other rights are regul
   COPYR  = If you do not have a valid VASP license, you may not use, copy or distribute this file. 
   VRHFIN =Pb:                                                                                      
   LEXCH  = PE                                                                                      
   EATOM  =    96.9868 eV,    7.1283 Ry                                                             
                                                                                                    
   TITEL  = PAW_PBE Pb 08Apr2002                                                                    
   LULTRA =        F    use ultrasoft PP ?                                                          
   IUNSCR =        1    unscreen: 0-lin 1-nonlin 2-no                                               
   RPACOR =    2.200    partial core radius                                                         
   POMASS =  207.200; ZVAL   =    4.000    mass and valenz                                          
   RCORE  =    3.100    outmost cutoff radius                                                       
   RWIGS  =    3.260; RWIGS  =    1.725    wigner-seitz radius (au A)                               
   ENMAX  =   97.973; ENMIN  =   73.480 eV                                                          
   ICORE  =        3    local potential                                                             
   LCOR   =        T    correct aug charges                                                         
   LPAW   =        T    paw PP                                                                      
   EAUG   =  234.873                                                                                
   DEXC   =    0.000                                                                                
   RMAX   =    3.158    core radius for proj-oper                                                   
   RAUG   =    1.300    factor for augmentation sphere                                              
   RDEP   =    3.202    radius for radial grids                                                     
   RDEPT  =    2.659    core radius for aug-charge                                                  
                                                                                                    
   Atomic configuration                                                                             
   17 entries                                                                                       
     n  l   j            E        occ.                                                              
     1  0  0.50    -88091.8466   2.0000                                                             
     2  0  0.50    -15753.4197   2.0000                                                             
     2  1  1.50    -13508.1797   6.0000                                                             
     3  0  0.50     -3781.7194   2.0000                                                             
     3  1  1.50     -3138.2529   6.0000                                                             
     3  2  2.50     -2483.2977  10.0000                                                             
     4  0  0.50      -856.2895   2.0000                                                             
     4  1  1.50      -645.4943   6.0000                                                             
     4  2  2.50      -401.8768  10.0000                                                             
     4  3  3.50      -132.9059  14.0000                                                             
     5  0  0.50      -144.0950   2.0000                                                             
     5  1  1.50       -85.7879   6.0000                                                             
     5  2  2.50       -21.1769  10.0000                                                             
     6  0  0.50       -12.0372   2.0000                                                             
     6  1  1.50        -3.4971   2.0000                                                             
     6  2  2.50        -1.3606   0.0000                                                             
     5  3  2.50        -2.7212   0.0000                                                             
   Description                                                                                      
     l       E           TYP  RCUT    TYP  RCUT                                                     
     0    -12.0371566     23  3.100                                                                 
     0    -13.3977392     23  3.100                                                                 
     1     -3.4971341     23  3.100                                                                 
     1     -5.4423304     23  3.100                                                                 
     2     -1.3605826     23  3.100                                                                 
     3     -1.3605826     23  3.100                                                                 
  local pseudopotential read in
  partial core-charges read in
  partial kinetic energy density read in
  atomic valenz-charges read in
  non local Contribution for L=            0  read in
    real space projection operators read in
  non local Contribution for L=            0  read in
    real space projection operators read in
  non local Contribution for L=            1  read in
    real space projection operators read in
  non local Contribution for L=            1  read in
    real space projection operators read in
  non local Contribution for L=            2  read in
    real space projection operators read in
    PAW grid and wavefunctions read in
 
   number of l-projection  operators is LMAX  =            5
   number of lm-projection operators is LMMAX =           13
 
 Optimization of the real space projectors (new method)

 maximal supplied QI-value         = 34.20
 optimisation between [QCUT,QGAM] = [ 11.29, 22.57] = [ 35.68,142.71] Ry 
 Optimized for a Real-space Cutoff    1.16 Angstroem

   l    n(q)    QCUT    max X(q) W(low)/X(q) W(high)/X(q)  e(spline) 
   0      8    11.287    19.460    0.40E-03    0.73E-03    0.16E-06
   0      8    11.287    12.209    0.38E-03    0.70E-03    0.15E-06
   1      7    11.287     4.655    0.22E-03    0.25E-04    0.22E-06
 Optimization of the real space projectors (new method)

 maximal supplied QI-value         = 25.13
 optimisation between [QCUT,QGAM] = [ 11.31, 22.87] = [ 35.82,146.48] Ry 
 Optimized for a Real-space Cutoff    1.00 Angstroem

   l    n(q)    QCUT    max X(q) W(low)/X(q) W(high)/X(q)  e(spline) 
   0      7    11.310   115.676    0.43E-03    0.13E-02    0.19E-06
   0      7    11.310    87.132    0.43E-03    0.13E-02    0.18E-06
   1      6    11.310     4.429    0.42E-03    0.74E-03    0.11E-06
   1      6    11.310     2.733    0.34E-03    0.55E-03    0.92E-07
 Optimization of the real space projectors (new method)

 maximal supplied QI-value         = 25.13
 optimisation between [QCUT,QGAM] = [ 11.31, 22.87] = [ 35.82,146.48] Ry 
 Optimized for a Real-space Cutoff    1.27 Angstroem

   l    n(q)    QCUT    max X(q) W(low)/X(q) W(high)/X(q)  e(spline) 
   0      9    11.310    79.467    0.75E-04    0.16E-03    0.36E-06
   0      9    11.310    66.151    0.74E-04    0.16E-03    0.36E-06
   1      8    11.310    17.416    0.35E-03    0.12E-03    0.95E-06
   1      8    11.310    12.382    0.37E-03    0.13E-03    0.98E-06
 Optimization of the real space projectors (new method)

 maximal supplied QI-value         = 16.25
 optimisation between [QCUT,QGAM] = [ 11.38, 22.75] = [ 36.24,144.96] Ry 
 Optimized for a Real-space Cutoff    1.31 Angstroem

   l    n(q)    QCUT    max X(q) W(low)/X(q) W(high)/X(q)  e(spline) 
   0      9    11.376   194.483    0.24E-03    0.23E-03    0.67E-07
   0      9    11.376   190.334    0.23E-03    0.22E-03    0.65E-07
   1      8    11.376   116.687    0.25E-03    0.63E-04    0.16E-06
   1      8    11.376    88.696    0.25E-03    0.61E-04    0.16E-06
   2      8    11.376     4.877    0.17E-03    0.14E-03    0.29E-07
 Optimization of the real space projectors (new method)

 maximal supplied QI-value         = 12.09
 optimisation between [QCUT,QGAM] = [ 11.37, 22.86] = [ 36.19,146.31] Ry 
 Optimized for a Real-space Cutoff    1.66 Angstroem

   l    n(q)    QCUT    max X(q) W(low)/X(q) W(high)/X(q)  e(spline) 
   0     11    11.369   135.111    0.12E-03    0.69E-04    0.19E-05
   0     11    11.369   146.850    0.11E-03    0.65E-04    0.18E-05
   1     11    11.369   148.016    0.17E-03    0.32E-03    0.89E-06
   1     11    11.369   122.989    0.17E-03    0.32E-03    0.91E-06
   2     10    11.369     8.916    0.12E-03    0.45E-04    0.33E-06
  PAW_PBE H 15Jun2001                   :
 energy of atom  1       EATOM=  -12.4884
 kinetic energy error for atom=    0.0020 (will be added to EATOM!!)
  PAW_PBE C 08Apr2002                   :
 energy of atom  2       EATOM= -147.1560
 kinetic energy error for atom=    0.0076 (will be added to EATOM!!)
  PAW_PBE N 08Apr2002                   :
 energy of atom  3       EATOM= -264.5486
 kinetic energy error for atom=    0.0138 (will be added to EATOM!!)
  PAW_PBE I 08Apr2002                   :
 energy of atom  4       EATOM= -315.8678
 kinetic energy error for atom=    0.0009 (will be added to EATOM!!)
  PAW_PBE Pb 08Apr2002                  :
 energy of atom  5       EATOM=  -96.9868
 kinetic energy error for atom=    0.0000 (will be added to EATOM!!)
 
 
 POSCAR:  H  C  N  I Pb
  positions in cartesian coordinates
  No initial velocities read in
 exchange correlation table for  LEXCH =        8
   RHO(1)=    0.500       N(1)  =     2000
   RHO(2)=  100.500       N(2)  =     4000
 


--------------------------------------------------------------------------------------------------------


 ion  position               nearest neighbor table
   1  0.441  0.301  0.578- 187 1.03
   2  0.440  0.823  0.580- 188 1.05
   3  0.978  0.307  0.580- 189 1.02
   4  0.971  0.801  0.583- 190 1.01
   5  0.315  0.011  0.582- 194 1.03
   6  0.307  0.553  0.581- 195 1.03
   7  0.776  0.063  0.583- 196 1.03
   8  0.063  0.138  0.562- 183 1.00
   9  0.060  0.647  0.557- 184 1.03
  10  0.592  0.194  0.555- 185 1.02
  11  0.556  0.670  0.561- 186 1.01
  12  0.341  0.057  0.558- 194 1.01
  13  0.302  0.603  0.557- 195 1.01
  14  0.836  0.074  0.562- 196 1.02
  15  0.035  0.182  0.585- 183 1.01
  16  0.036  0.679  0.582- 184 1.03
  17  0.568  0.252  0.577- 185 1.04
  18  0.505  0.695  0.583- 186 1.01
  19  0.230  0.437  0.583- 191 1.02
  20  0.190  0.949  0.582- 192 1.03
  21  0.687  0.960  0.582- 193 1.03
  22  0.381  0.276  0.557- 187 1.02
  23  0.459  0.873  0.557- 188 1.03
  24  0.975  0.344  0.554- 189 1.02
  25  0.954  0.846  0.558- 190 1.03
  26  0.178  0.416  0.560- 191 1.02
  27  0.137  0.962  0.558- 192 1.03
  28  0.689  0.903  0.558- 193 1.03
  29  0.472  0.206  0.540- 146 1.09
  30  0.534  0.779  0.542- 147 1.09
  31  0.028  0.233  0.540- 144 1.09
  32  0.008  0.748  0.539- 145 1.10
  33  0.220  0.519  0.541- 148 1.09
  34  0.229  0.031  0.541- 149 1.09
  35  0.784  0.972  0.544- 150 1.09
  36  0.457  0.309  0.675- 205 1.03
  37  0.436  0.811  0.674- 206 1.02
  38  0.960  0.287  0.680- 207 1.02
  39  0.937  0.801  0.676- 208 1.02
  40  0.298  0.051  0.675- 209 1.03
  41  0.300  0.553  0.676- 210 1.04
  42  0.801  0.051  0.675- 211 1.04
  43  0.804  0.577  0.672- 212 1.02
  44  0.083  0.167  0.647- 197 1.03
  45  0.092  0.689  0.655- 198 1.00
  46  0.571  0.162  0.651- 199 1.02
  47  0.572  0.676  0.655- 200 1.01
  48  0.183  0.415  0.649- 201 1.01
  49  0.173  0.916  0.650- 202 0.99
  50  0.685  0.418  0.658- 203 1.05
  51  0.667  0.925  0.650- 204 0.99
  52  0.063  0.186  0.674- 197 1.01
  53  0.043  0.701  0.678- 198 1.02
  54  0.565  0.209  0.675- 199 1.02
  55  0.537  0.710  0.679- 200 1.02
  56  0.210  0.441  0.675- 201 1.04
  57  0.198  0.947  0.676- 202 1.05
  58  0.705  0.474  0.680- 203 1.02
  59  0.693  0.957  0.675- 204 1.04
  60  0.408  0.314  0.652- 205 1.01
  61  0.415  0.832  0.647- 206 1.02
  62  0.926  0.323  0.656- 207 1.01
  63  0.930  0.840  0.651- 208 1.01
  64  0.328  0.076  0.650- 209 1.01
  65  0.322  0.589  0.651- 210 0.99
  66  0.836  0.071  0.649- 211 1.02
  67  0.835  0.579  0.646- 212 1.05
  68  0.996  0.255  0.634- 151 1.08
  69  0.027  0.779  0.636- 152 1.08
  70  0.474  0.223  0.634- 153 1.09
  71  0.500  0.749  0.634- 154 1.08
  72  0.254  0.994  0.632- 156 1.09
  73  0.250  0.506  0.632- 155 1.09
  74  0.756  0.993  0.632- 158 1.09
  75  0.762  0.479  0.635- 157 1.08
  76  0.449  0.301  0.769- 221 1.02
  77  0.449  0.801  0.769- 222 1.02
  78  0.949  0.301  0.769- 223 1.02
  79  0.949  0.801  0.769- 224 1.02
  80  0.301  0.051  0.769- 225 1.02
  81  0.301  0.551  0.769- 226 1.02
  82  0.801  0.051  0.769- 227 1.02
  83  0.801  0.551  0.769- 228 1.02
  84  0.079  0.171  0.743- 213 1.02
  85  0.079  0.671  0.743- 214 1.02
  86  0.579  0.171  0.743- 215 1.02
  87  0.579  0.671  0.743- 216 1.02
  88  0.171  0.421  0.743- 217 1.02
  89  0.171  0.921  0.743- 218 1.02
  90  0.671  0.421  0.743- 219 1.02
  91  0.671  0.921  0.743- 220 1.02
  92  0.051  0.199  0.769- 213 1.02
  93  0.051  0.699  0.769- 214 1.02
  94  0.551  0.199  0.769- 215 1.02
  95  0.551  0.699  0.769- 216 1.02
  96  0.199  0.449  0.769- 217 1.02
  97  0.199  0.949  0.769- 218 1.02
  98  0.699  0.449  0.769- 219 1.02
  99  0.699  0.949  0.769- 220 1.02
 100  0.421  0.329  0.743- 221 1.02
 101  0.421  0.829  0.743- 222 1.02
 102  0.921  0.329  0.743- 223 1.02
 103  0.921  0.829  0.743- 224 1.02
 104  0.329  0.079  0.743- 225 1.02
 105  0.329  0.579  0.743- 226 1.02
 106  0.829  0.079  0.743- 227 1.02
 107  0.829  0.579  0.743- 228 1.02
 108  0.000  0.250  0.726- 161 1.09
 109  0.000  0.750  0.726- 162 1.09
 110  0.500  0.250  0.726- 159 1.09
 111  0.500  0.750  0.726- 160 1.09
 112  0.250  0.000  0.726- 163 1.09
 113  0.250  0.500  0.726- 164 1.09
 114  0.750  0.000  0.726- 165 1.09
 115  0.750  0.500  0.726- 166 1.09
 116  0.779  0.559  0.525- 173 1.08
 117  0.726  0.478  0.528- 173 1.10
 118  0.868  0.507  0.547- 174 1.09
 119  0.850  0.484  0.574- 174 1.10
 120  0.739  0.642  0.566- 175 1.10
 121  0.796  0.591  0.583- 175 1.10
 122  0.654  0.536  0.572- 176 1.07
 123  0.671  0.449  0.562- 176 1.10
 124  0.615  0.547  0.539- 177 1.10
 125  0.670  0.628  0.543- 177 1.10
 126  0.616  0.654  0.509- 178 1.14
 127  0.696  0.607  0.500- 178 1.11
 128  0.829  0.390  0.534- 179 1.10
 129  0.758  0.381  0.552- 179 1.08
 130  0.848  0.358  0.561- 179 1.11
 131  0.854  0.691  0.559- 180 1.09
 132  0.850  0.631  0.537- 180 1.11
 133  0.903  0.604  0.560- 180 1.09
 134  0.759  0.508  0.600- 181 1.07
 135  0.745  0.416  0.592- 181 1.07
 136  0.672  0.470  0.602- 181 1.08
 137  0.541  0.536  0.508- 182 1.10
 138  0.579  0.559  0.483- 182 1.09
 139  0.716  0.497  0.476- 168 1.11
 140  0.549  0.416  0.520- 169 1.09
 141  0.781  0.377  0.478- 170 1.09
 142  0.618  0.295  0.523- 171 1.09
 143  0.734  0.275  0.502- 172 1.11
 144  0.019  0.239  0.557-  31 1.09 183 1.31 189 1.31
 145  0.006  0.746  0.557-  32 1.10 184 1.31 190 1.31
 146  0.486  0.235  0.555-  29 1.09 187 1.31 185 1.32
 147  0.508  0.771  0.558-  30 1.09 188 1.29 186 1.31
 148  0.240  0.510  0.558-  33 1.09 195 1.30 191 1.32
 149  0.239  0.011  0.558-  34 1.09 194 1.30 192 1.32
 150  0.763  0.988  0.559-  35 1.09 193 1.30 196 1.32
 151  0.003  0.246  0.651-  68 1.08 207 1.32 197 1.33
 152  0.011  0.765  0.652-  69 1.08 208 1.31 198 1.32
 153  0.488  0.238  0.651-  70 1.09 205 1.31 199 1.34
 154  0.494  0.754  0.651-  71 1.08 206 1.31 200 1.32
 155  0.253  0.502  0.650-  73 1.09 201 1.31 210 1.34
 156  0.251  0.996  0.650-  72 1.09 209 1.30 202 1.34
 157  0.760  0.499  0.652-  75 1.08 212 1.30 203 1.31
 158  0.751  0.998  0.649-  74 1.09 211 1.30 204 1.33
 159  0.500  0.250  0.743- 110 1.09 221 1.31 215 1.31
 160  0.500  0.750  0.743- 111 1.09 222 1.31 216 1.31
 161  1.000  0.250  0.743- 108 1.09 223 1.31 213 1.31
 162  1.000  0.750  0.743- 109 1.09 224 1.31 214 1.31
 163  0.250  0.000  0.743- 112 1.09 225 1.31 218 1.31
 164  0.250  0.500  0.743- 113 1.09 226 1.31 217 1.31
 165  0.750  0.000  0.743- 114 1.09 227 1.31 220 1.31
 166  0.750  0.500  0.743- 115 1.09 228 1.31 219 1.31
 167  0.628  0.464  0.498- 169 1.40 168 1.40 182 1.50
 168  0.692  0.452  0.486- 139 1.11 170 1.39 167 1.40
 169  0.600  0.407  0.511- 140 1.09 171 1.40 167 1.40
 170  0.730  0.385  0.487- 141 1.09 168 1.39 172 1.42
 171  0.637  0.339  0.512- 142 1.09 169 1.40 172 1.40
 172  0.703  0.327  0.501- 143 1.11 171 1.40 170 1.42
 173  0.735  0.535  0.534- 116 1.08 117 1.10 229 1.51 177 1.55
 174  0.828  0.479  0.558- 118 1.09 119 1.10 229 1.51 179 1.55
 175  0.785  0.602  0.566- 121 1.10 120 1.10 229 1.51 180 1.53
 176  0.696  0.495  0.571- 122 1.07 123 1.10 181 1.49 229 1.55
 177  0.662  0.579  0.533- 125 1.10 124 1.10 178 1.54 173 1.55
 178  0.644  0.598  0.509- 127 1.11 126 1.14 177 1.54 182 1.55
 179  0.815  0.398  0.551- 129 1.08 128 1.10 130 1.11 174 1.55
 180  0.853  0.633  0.555- 131 1.09 133 1.09 132 1.11 175 1.53
 181  0.721  0.470  0.592- 134 1.07 135 1.07 136 1.08 176 1.49
 182  0.593  0.539  0.499- 138 1.09 137 1.10 167 1.50 178 1.55
 183  0.041  0.183  0.569-   8 1.00  15 1.01 144 1.31
 184  0.036  0.688  0.566-   9 1.03  16 1.03 145 1.31
 185  0.553  0.225  0.563-  10 1.02  17 1.04 146 1.32
 186  0.525  0.711  0.568-  18 1.01  11 1.01 147 1.31
 187  0.434  0.274  0.564-  22 1.02   1 1.03 146 1.31
 188  0.466  0.824  0.565-  23 1.03   2 1.05 147 1.29
 189  0.985  0.299  0.564-   3 1.02  24 1.02 144 1.31
 190  0.974  0.801  0.567-   4 1.01  25 1.03 145 1.31
 191  0.215  0.450  0.567-  26 1.02  19 1.02 148 1.32
 192  0.187  0.971  0.566-  20 1.03  27 1.03 149 1.32
 193  0.708  0.949  0.567-  21 1.03  28 1.03 150 1.30
 194  0.303  0.028  0.566-  12 1.01   5 1.03 149 1.30
 195  0.285  0.559  0.566-  13 1.01   6 1.03 148 1.30
 196  0.796  0.043  0.569-  14 1.02   7 1.03 150 1.32
 197  0.052  0.197  0.658-  52 1.01  44 1.03 151 1.33
 198  0.051  0.715  0.663-  45 1.00  53 1.02 152 1.32
 199  0.545  0.202  0.660-  46 1.02  54 1.02 153 1.34
 200  0.537  0.711  0.662-  47 1.01  55 1.02 154 1.32
 201  0.213  0.449  0.659-  48 1.01  56 1.04 155 1.31
 202  0.204  0.950  0.659-  49 0.99  57 1.05 156 1.34
 203  0.714  0.463  0.664-  58 1.02  50 1.05 157 1.31
 204  0.700  0.957  0.658-  51 0.99  59 1.04 158 1.33
 205  0.449  0.290  0.660-  60 1.01  36 1.03 153 1.31
 206  0.446  0.802  0.658-  37 1.02  61 1.02 154 1.31
 207  0.961  0.288  0.663-  62 1.01  38 1.02 151 1.32
 208  0.956  0.803  0.661-  63 1.01  39 1.02 152 1.31
 209  0.295  0.043  0.659-  64 1.01  40 1.03 156 1.30
 210  0.294  0.552  0.660-  65 0.99  41 1.04 155 1.34
 211  0.798  0.043  0.658-  66 1.02  42 1.04 158 1.30
 212  0.801  0.555  0.657-  43 1.02  67 1.05 157 1.30
 213  0.046  0.204  0.753-  92 1.02  84 1.02 161 1.31
 214  0.046  0.704  0.753-  93 1.02  85 1.02 162 1.31
 215  0.546  0.204  0.753-  94 1.02  86 1.02 159 1.31
 216  0.546  0.704  0.753-  95 1.02  87 1.02 160 1.31
 217  0.204  0.454  0.753-  96 1.02  88 1.02 164 1.31
 218  0.204  0.954  0.753-  97 1.02  89 1.02 163 1.31
 219  0.704  0.454  0.753-  98 1.02  90 1.02 166 1.31
 220  0.704  0.954  0.753-  99 1.02  91 1.02 165 1.31
 221  0.454  0.296  0.753-  76 1.02 100 1.02 159 1.31
 222  0.454  0.796  0.753-  77 1.02 101 1.02 160 1.31
 223  0.954  0.296  0.753-  78 1.02 102 1.02 161 1.31
 224  0.954  0.796  0.753-  79 1.02 103 1.02 162 1.31
 225  0.296  0.046  0.753-  80 1.02 104 1.02 163 1.31
 226  0.296  0.546  0.753-  81 1.02 105 1.02 164 1.31
 227  0.796  0.046  0.753-  82 1.02 106 1.02 165 1.31
 228  0.796  0.546  0.753-  83 1.02 107 1.02 166 1.31
 229  0.761  0.528  0.557- 174 1.51 173 1.51 175 1.51 176 1.55
 230  0.490  0.015  0.552- 304 3.20
 231  0.472  0.517  0.558- 305 3.06
 232  0.002  0.994  0.552- 302 3.29
 233  0.032  0.487  0.551- 303 3.36
 234  0.243  0.246  0.552- 306 3.16
 235  0.252  0.748  0.553- 307 3.04
 236  0.752  0.217  0.556- 308 3.10
 237  0.725  0.781  0.547- 309 3.58
 238  0.003  0.997  0.655- 310 3.14 302 3.15
 239  0.010  0.504  0.655- 311 3.14 303 3.15
 240  0.498  1.000  0.653- 304 3.18 312 3.21
 241  0.507  0.487  0.656- 313 3.04 305 3.13
 242  0.251  0.247  0.654- 306 3.20 314 3.20
 243  0.249  0.753  0.655- 315 3.10 307 3.35
 244  0.740  0.253  0.655- 316 3.11 308 3.16
 245  0.756  0.759  0.654- 309 3.12 317 3.21
 246  0.143  0.105  0.609- 306 3.20 302 3.22
 247  0.145  0.608  0.607- 303 3.16 307 3.18
 248  0.646  0.101  0.608- 304 3.13 308 3.21
 249  0.620  0.632  0.614- 309 3.30 305 3.37
 250  0.352  0.393  0.607- 305 3.18 306 3.26
 251  0.356  0.891  0.607- 307 3.23 304 3.37
 252  0.888  0.365  0.614- 303 3.32 308 3.39
 253  0.860  0.895  0.606- 302 3.17 309 3.21
 254  0.110  0.358  0.609- 306 3.19 303 3.21
 255  0.109  0.858  0.607- 307 3.22 302 3.27
 256  0.579  0.331  0.609- 305 3.35 308 3.39
 257  0.610  0.862  0.609- 309 3.15 304 3.27
 258  0.385  0.134  0.608- 304 3.17 306 3.24
 259  0.384  0.635  0.611- 305 3.24 307 3.25
 260  0.892  0.140  0.612- 302 3.18 308 3.30
 261  0.915  0.657  0.615- 303 3.32 309 3.59
 262  0.000  0.000  0.755- 310 3.13 318 3.27
 263  0.000  0.500  0.755- 311 3.13 319 3.27
 264  0.500  0.000  0.755- 312 3.13 320 3.27
 265  0.500  0.500  0.755- 313 3.13 321 3.27
 266  0.250  0.250  0.755- 314 3.13 322 3.27
 267  0.250  0.750  0.755- 315 3.13 323 3.27
 268  0.750  0.250  0.755- 316 3.13 324 3.27
 269  0.750  0.750  0.755- 317 3.13 325 3.27
 270  0.136  0.114  0.705- 310 3.20 314 3.20
 271  0.136  0.614  0.705- 311 3.20 315 3.20
 272  0.636  0.114  0.705- 312 3.20 316 3.20
 273  0.636  0.614  0.705- 313 3.20 317 3.20
 274  0.364  0.386  0.705- 313 3.20 314 3.20
 275  0.364  0.886  0.705- 312 3.20 315 3.20
 276  0.864  0.386  0.705- 311 3.20 316 3.20
 277  0.864  0.886  0.705- 310 3.20 317 3.20
 278  0.114  0.364  0.705- 314 3.21 311 3.21
 279  0.114  0.864  0.705- 315 3.21 310 3.21
 280  0.614  0.364  0.705- 316 3.21 313 3.21
 281  0.614  0.864  0.705- 317 3.21 312 3.21
 282  0.386  0.136  0.705- 314 3.21 312 3.21
 283  0.386  0.636  0.705- 315 3.21 313 3.21
 284  0.886  0.136  0.705- 316 3.21 310 3.21
 285  0.886  0.636  0.705- 317 3.21 311 3.21
 286  0.135  0.115  0.801- 318 3.22 322 3.22
 287  0.135  0.615  0.801- 319 3.22 323 3.22
 288  0.635  0.115  0.801- 320 3.22 324 3.22
 289  0.635  0.615  0.801- 321 3.22 325 3.22
 290  0.365  0.385  0.801- 321 3.22 322 3.22
 291  0.365  0.885  0.801- 320 3.22 323 3.22
 292  0.865  0.385  0.801- 319 3.22 324 3.22
 293  0.865  0.885  0.801- 318 3.22 325 3.22
 294  0.115  0.365  0.801- 319 3.23 322 3.23
 295  0.115  0.865  0.801- 318 3.23 323 3.23
 296  0.615  0.365  0.801- 321 3.23 324 3.23
 297  0.615  0.865  0.801- 320 3.23 325 3.23
 298  0.385  0.135  0.801- 320 3.23 322 3.23
 299  0.385  0.635  0.801- 321 3.23 323 3.23
 300  0.885  0.135  0.801- 318 3.23 324 3.23
 301  0.885  0.635  0.801- 319 3.23 325 3.23
 302  0.999  0.002  0.604- 238 3.15 253 3.17 260 3.18 246 3.22 255 3.27 232 3.29
 303  0.007  0.501  0.604- 239 3.15 247 3.16 254 3.21 252 3.32 261 3.32 233 3.36
 304  0.502  0.006  0.603- 248 3.13 258 3.17 240 3.18 230 3.20 257 3.27 251 3.37
 305  0.495  0.496  0.606- 231 3.06 241 3.13 250 3.18 259 3.24 256 3.35 249 3.37
 306  0.246  0.247  0.602- 234 3.16 254 3.19 242 3.20 246 3.20 258 3.24 250 3.26
 307  0.249  0.749  0.602- 235 3.04 247 3.18 255 3.22 251 3.23 259 3.25 243 3.35
 308  0.746  0.247  0.605- 236 3.10 244 3.16 248 3.21 260 3.30 252 3.39 256 3.39
 309  0.748  0.757  0.604- 245 3.12 257 3.15 253 3.21 249 3.30 237 3.58 261 3.59
 310  0.000  0.000  0.705- 262 3.13 238 3.14 270 3.20 277 3.20 279 3.21 284 3.21
 311  0.000  0.500  0.705- 263 3.13 239 3.14 271 3.20 276 3.20 278 3.21 285 3.21
 312  0.500  0.000  0.705- 264 3.13 272 3.20 275 3.20 281 3.21 282 3.21 240 3.21
 313  0.500  0.500  0.705- 241 3.04 265 3.13 273 3.20 274 3.20 280 3.21 283 3.21
 314  0.250  0.250  0.705- 266 3.13 242 3.20 270 3.20 274 3.20 282 3.21 278 3.21
 315  0.250  0.750  0.705- 243 3.10 267 3.13 271 3.20 275 3.20 283 3.21 279 3.21
 316  0.750  0.250  0.705- 244 3.11 268 3.13 272 3.20 276 3.20 284 3.21 280 3.21
 317  0.750  0.750  0.705- 269 3.13 273 3.20 277 3.20 285 3.21 281 3.21 245 3.21
 318  0.000  0.000  0.807- 286 3.22 293 3.22 300 3.23 295 3.23 262 3.27
 319  0.000  0.500  0.807- 287 3.22 292 3.22 301 3.23 294 3.23 263 3.27
 320  0.500  0.000  0.807- 288 3.22 291 3.22 298 3.23 297 3.23 264 3.27
 321  0.500  0.500  0.807- 289 3.22 290 3.22 299 3.23 296 3.23 265 3.27
 322  0.250  0.250  0.807- 290 3.22 286 3.22 294 3.23 298 3.23 266 3.27
 323  0.250  0.750  0.807- 291 3.22 287 3.22 299 3.23 295 3.23 267 3.27
 324  0.750  0.250  0.807- 292 3.22 288 3.22 296 3.23 300 3.23 268 3.27
 325  0.750  0.750  0.807- 293 3.22 289 3.22 297 3.23 301 3.23 269 3.27
 

IMPORTANT INFORMATION: All symmetrisations will be switched off!
NOSYMM: (Re-)initialisation of all symmetry stuff for point group C_1.


----------------------------------------------------------------------------------------

                                     Primitive cell                                     

  volume of cell :   20385.2105

  direct lattice vectors                    reciprocal lattice vectors
    18.060800552  0.000000000  0.000000000     0.055368531  0.000015077 -0.000000000
    -0.004918649 18.062799454  0.000000000     0.000000000  0.055362404  0.000000000
     0.000000000  0.000000000 62.487499237     0.000000000 -0.000000000  0.016003201

  length of vectors
    18.060800552 18.062800123 62.487499237     0.055368533  0.055362404  0.016003201

  position of ions in fractional coordinates (direct lattice)
     0.440594443  0.301075521  0.578086450
     0.440385569  0.823378749  0.579911888
     0.977821404  0.306933743  0.580008770
     0.970514138  0.800987771  0.582939105
     0.314754055  0.011186018  0.581614987
     0.306821665  0.552706627  0.581025697
     0.776459363  0.063236409  0.583281336
     0.063240789  0.138007308  0.561545727
     0.059950000  0.647282624  0.556531906
     0.592245468  0.194458387  0.555423347
     0.555658408  0.670221906  0.561196353
     0.340943518  0.057379461  0.558082448
     0.301761234  0.603010060  0.557259957
     0.835973606  0.073510367  0.561501223
     0.034670040  0.182149672  0.584796288
     0.035557962  0.679197409  0.582087067
     0.568078632  0.251945912  0.576994495
     0.505103789  0.695322567  0.582501883
     0.229913641  0.436944179  0.582729895
     0.190444530  0.949150440  0.581589408
     0.686658904  0.960077073  0.581699904
     0.381477913  0.276052578  0.557225771
     0.459195496  0.872761021  0.556884028
     0.975401571  0.343560908  0.554477663
     0.953633907  0.845605262  0.558303806
     0.178156563  0.416131324  0.559890305
     0.137438851  0.961654012  0.558470282
     0.689284939  0.903494808  0.558472846
     0.472308885  0.205964815  0.539983919
     0.534014121  0.778966747  0.542223380
     0.027962473  0.232808170  0.539901627
     0.008248754  0.748395663  0.539008260
     0.219655077  0.519314192  0.541460166
     0.229138951  0.030811479  0.541289417
     0.784167525  0.971740825  0.543514288
     0.456527477  0.308877385  0.675408588
     0.435533600  0.811225932  0.673798281
     0.960150785  0.287298119  0.679587159
     0.937224228  0.800718450  0.675898677
     0.297868885  0.051145524  0.675487095
     0.299662473  0.553452764  0.676347375
     0.800992106  0.051423058  0.674600321
     0.804069048  0.576576151  0.672201587
     0.082835151  0.167412804  0.647178394
     0.092056252  0.688748514  0.654935438
     0.571407142  0.162317364  0.651236762
     0.572253821  0.676417663  0.654825919
     0.182671666  0.414834217  0.649259498
     0.173391766  0.915789103  0.650314641
     0.684639785  0.417982755  0.657910093
     0.666989702  0.925224541  0.649678955
     0.062535850  0.185564324  0.673636567
     0.043436837  0.700813581  0.678386723
     0.564912692  0.208719839  0.675214824
     0.537366234  0.710468222  0.678686283
     0.209662341  0.440710714  0.674915997
     0.197580134  0.947444619  0.675760038
     0.704602304  0.473554951  0.680151358
     0.692604948  0.956567788  0.674984309
     0.407502390  0.313806024  0.651753894
     0.414797941  0.831594441  0.647435831
     0.925770270  0.323179068  0.655724415
     0.930166294  0.840050627  0.650986162
     0.328300393  0.076275878  0.650286926
     0.322210979  0.588906474  0.651228215
     0.835742324  0.071368582  0.649338738
     0.834867426  0.579375116  0.645548368
     0.995876376  0.255204454  0.634107481
     0.027084851  0.778945364  0.636255311
     0.473866051  0.222987903  0.634467233
     0.499519317  0.748561975  0.633516970
     0.253835338  0.994203927  0.632334849
     0.250499527  0.505876490  0.632359268
     0.755767460  0.993478163  0.631634941
     0.762105913  0.479247493  0.635365667
     0.448745018  0.301283966  0.768889017
     0.448745007  0.801283913  0.768889017
     0.948744965  0.301283966  0.768889017
     0.948745007  0.801283913  0.768889017
     0.301275995  0.051294496  0.768872961
     0.301276011  0.551294499  0.768872961
     0.801275943  0.051294496  0.768872961
     0.801275984  0.551294499  0.768872961
     0.078771004  0.171180501  0.743441971
     0.078771006  0.671180448  0.743441971
     0.578771004  0.171180501  0.743441971
     0.578770992  0.671180448  0.743441971
     0.171199499  0.421174482  0.743421032
     0.171199501  0.921174508  0.743421032
     0.671199512  0.421174482  0.743421032
     0.671199501  0.921174508  0.743421032
     0.051256000  0.198714991  0.768889017
     0.051256002  0.698714925  0.768889017
     0.551256027  0.198714991  0.768889017
     0.551256016  0.698714925  0.768889017
     0.198723491  0.448703970  0.768872046
     0.198723493  0.948703970  0.768872046
     0.698723518  0.448703970  0.768872046
     0.698723507  0.948703970  0.768872046
     0.421231519  0.328817467  0.743441971
     0.421231508  0.828817440  0.743441971
     0.921231466  0.328817467  0.743441971
     0.921231508  0.828817440  0.743441971
     0.328800503  0.078824997  0.743421032
     0.328800492  0.578824964  0.743421032
     0.828800477  0.078824997  0.743421032
     0.828800519  0.578824964  0.743421032
     0.000003500  0.250001478  0.725821992
     0.000003500  0.750001452  0.725821992
     0.500003506  0.250001478  0.725821992
     0.500003495  0.750001452  0.725821992
     0.250000502  0.000000000  0.725803983
     0.250000517  0.500000000  0.725803983
     0.750000502  0.000000000  0.725803983
     0.750000490  0.500000000  0.725803983
     0.779286812  0.559124557  0.525104844
     0.725782481  0.478358802  0.528166248
     0.867536214  0.507150498  0.547407462
     0.850368321  0.483560643  0.574141752
     0.738674823  0.641951270  0.565697558
     0.795770197  0.590600805  0.583357829
     0.653797079  0.536074611  0.571563416
     0.671382610  0.449003649  0.561578753
     0.614562719  0.546914508  0.538932805
     0.670036507  0.627834643  0.542573792
     0.615782740  0.654310051  0.509487738
     0.696242437  0.607302936  0.500319919
     0.829465784  0.389952059  0.533694819
     0.758043862  0.381018714  0.552220558
     0.847684090  0.358446191  0.560625865
     0.854071222  0.691216912  0.559239113
     0.850281182  0.631449807  0.537252599
     0.903368356  0.604186816  0.560243464
     0.759440264  0.507673565  0.599614864
     0.745207573  0.416267701  0.591978327
     0.672327258  0.469530182  0.602339653
     0.541218205  0.535794572  0.508118995
     0.579328066  0.559290659  0.482935918
     0.716005946  0.497316768  0.476219975
     0.549205861  0.416397055  0.520267878
     0.780770018  0.376504484  0.478431538
     0.618486858  0.294823798  0.522609716
     0.734181106  0.274809614  0.502214982
     0.018713548  0.238764596  0.557081821
     0.005877797  0.746171929  0.556516034
     0.486095209  0.234872297  0.554805121
     0.508033242  0.771391860  0.557783072
     0.239966622  0.510058913  0.557729717
     0.239492921  0.010500500  0.557513731
     0.762807174  0.987848137  0.559201935
     0.003073858  0.246414825  0.651048247
     0.011450956  0.765236387  0.652435732
     0.488355134  0.237727517  0.650859367
     0.494044615  0.753878070  0.650685016
     0.252860833  0.501552464  0.649671141
     0.251210807  0.996201504  0.649703801
     0.759994395  0.498987393  0.651692114
     0.751381417  0.998242282  0.648941442
     0.499988984  0.249994984  0.743277021
     0.499989025  0.749994958  0.743277021
     0.999988984  0.249994984  0.743277021
     0.999989025  0.749994958  0.743277021
     0.250000502  0.000001000  0.743255960
     0.250000517  0.500001003  0.743255960
     0.750000502  0.000001000  0.743255960
     0.750000491  0.500001003  0.743255960
     0.628123215  0.463799150  0.498323548
     0.692171051  0.452111639  0.486123812
     0.599820425  0.406853606  0.511140473
     0.729784232  0.385028884  0.487386576
     0.637411761  0.339440100  0.512235205
     0.703038668  0.327297606  0.500721794
     0.734973947  0.534799019  0.534283133
     0.828218776  0.478948606  0.557746383
     0.784634003  0.601731300  0.566298386
     0.696416097  0.494808191  0.570614679
     0.661675784  0.578706169  0.532538521
     0.644036084  0.598136885  0.509173344
     0.815460687  0.397856931  0.550663545
     0.853179458  0.632594831  0.554936189
     0.720840881  0.470481755  0.592320864
     0.593179319  0.539074841  0.498951725
     0.040820907  0.182510399  0.568685277
     0.035934241  0.688120116  0.565743527
     0.552605412  0.224662594  0.563016724
     0.524966346  0.710740763  0.568050629
     0.433637328  0.274183090  0.563651861
     0.466278504  0.823680224  0.564936664
     0.985472502  0.298681277  0.564027607
     0.973521291  0.800953981  0.566737195
     0.215486707  0.449882520  0.567353834
     0.186649279  0.970976812  0.566459063
     0.708086838  0.948994080  0.566845371
     0.302599812  0.028049275  0.566300645
     0.285369527  0.558579949  0.565884241
     0.796075443  0.043210570  0.569016886
     0.052002244  0.197202020  0.658104957
     0.051214332  0.715102804  0.662741504
     0.544949216  0.201592637  0.660057007
     0.537279089  0.710980307  0.662409529
     0.212593654  0.449351322  0.658503291
     0.203721571  0.949581065  0.659088369
     0.714370717  0.462967005  0.664349125
     0.699796083  0.956879047  0.658430461
     0.449230737  0.289770292  0.660069766
     0.445681901  0.801581481  0.657998612
     0.960567526  0.287793625  0.663263215
     0.956108845  0.802898995  0.660588425
     0.294574488  0.043353936  0.659132933
     0.294401211  0.551915981  0.659726436
     0.798362138  0.042570633  0.658245610
     0.800961671  0.554880783  0.657174412
     0.045862501  0.204119496  0.752725994
     0.045862500  0.704119456  0.752725994
     0.545862507  0.204119496  0.752725994
     0.545862496  0.704119456  0.752725994
     0.204119002  0.454101003  0.752704994
     0.204118991  0.954100951  0.752704994
     0.704118976  0.454101003  0.752704994
     0.704118964  0.954100951  0.752704994
     0.454140018  0.295888490  0.752726971
     0.454140007  0.795888516  0.752726971
     0.954140018  0.295888490  0.752726971
     0.954140060  0.795888516  0.752726971
     0.295882492  0.045900498  0.752704994
     0.295882481  0.545900528  0.752704994
     0.795882439  0.045900498  0.752704994
     0.795882481  0.545900528  0.752704994
     0.760576250  0.527731043  0.557245001
     0.489576302  0.015266182  0.551549404
     0.472132181  0.517459989  0.558284821
     0.001611536  0.993752643  0.551700191
     0.032044410  0.486820743  0.551187759
     0.242933783  0.246262239  0.551933941
     0.251667832  0.747852955  0.552884021
     0.752063927  0.217427606  0.555840057
     0.725481148  0.780500415  0.547228593
     0.002977645  0.997460348  0.654662740
     0.009926930  0.504082318  0.654708159
     0.497911736  0.999846806  0.653401868
     0.507007391  0.487015091  0.656301801
     0.250571645  0.247089447  0.653611016
     0.249220907  0.753151944  0.655164915
     0.740422234  0.253141358  0.655183840
     0.756396654  0.758516349  0.653605094
     0.143440540  0.105076708  0.609430365
     0.145037042  0.608074574  0.606500824
     0.645665373  0.101327985  0.607674887
     0.619679465  0.632333007  0.614097009
     0.351797945  0.393093179  0.607116914
     0.355816655  0.891256162  0.607047137
     0.888065939  0.365498961  0.614230947
     0.859686164  0.895469102  0.606122514
     0.110289590  0.357522970  0.608900779
     0.108932384  0.858304112  0.606704356
     0.578867835  0.330714039  0.609330125
     0.610209865  0.862395354  0.608907433
     0.384516875  0.134458788  0.608090803
     0.384189627  0.635380438  0.611159715
     0.892144362  0.139749553  0.611534180
     0.915329785  0.656731089  0.614744111
     0.000000000  0.000000000  0.754927972
     0.000000000  0.500000000  0.754927972
     0.500000000  0.000000000  0.754927972
     0.499999989  0.500000000  0.754927972
     0.250000496  0.250000000  0.754939022
     0.250000511  0.749999974  0.754939022
     0.750000470  0.250000000  0.754939022
     0.750000458  0.749999974  0.754939022
     0.135790500  0.114209997  0.704782994
     0.135790502  0.614209984  0.704782994
     0.635790447  0.114209997  0.704782994
     0.635790488  0.614209984  0.704782994
     0.364209516  0.385789989  0.704782994
     0.364209505  0.885789963  0.704782994
     0.864209542  0.385789989  0.704782994
     0.864209531  0.885789963  0.704782994
     0.114217990  0.364218986  0.704780979
     0.114217992  0.864218986  0.704780979
     0.614218004  0.364218986  0.704780979
     0.614217992  0.864218986  0.704780979
     0.385782012  0.135781489  0.704782017
     0.385782001  0.635781489  0.704782017
     0.885781985  0.135781489  0.704782017
     0.885782027  0.635781489  0.704782017
     0.134667000  0.115332001  0.801256025
     0.134666989  0.615331988  0.801256025
     0.634666987  0.115332001  0.801256025
     0.634666976  0.615331988  0.801256025
     0.365333002  0.384667985  0.801256025
     0.365332990  0.884667959  0.801256025
     0.865332949  0.384667985  0.801256025
     0.865332938  0.884667959  0.801256025
     0.115328503  0.365337004  0.801264999
     0.115328505  0.865336978  0.801264999
     0.615328503  0.365337004  0.801264999
     0.615328492  0.865336978  0.801264999
     0.384671513  0.134662996  0.801264999
     0.384671501  0.634662970  0.801264999
     0.884671486  0.134662996  0.801264999
     0.884671528  0.634662970  0.801264999
     0.999066688  0.002150785  0.604312642
     0.006767189  0.501236786  0.604297258
     0.502064953  0.005688113  0.602555455
     0.495175998  0.495669321  0.606437335
     0.246426921  0.247130709  0.602470172
     0.249051078  0.749323371  0.601601040
     0.746201814  0.247399977  0.604676973
     0.747906659  0.757245614  0.603813580
     0.000000500  0.000000500  0.704828963
     0.000000500  0.500000475  0.704828963
     0.500000475  0.000000500  0.704828963
     0.500000464  0.500000475  0.704828963
     0.249999994  0.249999472  0.704824995
     0.250000010  0.749999498  0.704824995
     0.749999994  0.249999472  0.704824995
     0.749999983  0.749999498  0.704824995
     0.000000000  0.000000000  0.807317968
     0.000000000  0.500000000  0.807317968
     0.500000000  0.000000000  0.807317968
     0.499999989  0.500000000  0.807317968
     0.249999994  0.250000000  0.807317968
     0.250000010  0.749999974  0.807317968
     0.749999994  0.250000000  0.807317968
     0.749999983  0.749999974  0.807317968

  ion indices of the primitive-cell ions
   primitive index   ion index
                 1           1
                 2           2
                 3           3
                 4           4
                 5           5
                 6           6
                 7           7
                 8           8
                 9           9
                10          10
                11          11
                12          12
                13          13
                14          14
                15          15
                16          16
                17          17
                18          18
                19          19
                20          20
                21          21
                22          22
                23          23
                24          24
                25          25
                26          26
                27          27
                28          28
                29          29
                30          30
                31          31
                32          32
                33          33
                34          34
                35          35
                36          36
                37          37
                38          38
                39          39
                40          40
                41          41
                42          42
                43          43
                44          44
                45          45
                46          46
                47          47
                48          48
                49          49
                50          50
                51          51
                52          52
                53          53
                54          54
                55          55
                56          56
                57          57
                58          58
                59          59
                60          60
                61          61
                62          62
                63          63
                64          64
                65          65
                66          66
                67          67
                68          68
                69          69
                70          70
                71          71
                72          72
                73          73
                74          74
                75          75
                76          76
                77          77
                78          78
                79          79
                80          80
                81          81
                82          82
                83          83
                84          84
                85          85
                86          86
                87          87
                88          88
                89          89
                90          90
                91          91
                92          92
                93          93
                94          94
                95          95
                96          96
                97          97
                98          98
                99          99
               100         100
               101         101
               102         102
               103         103
               104         104
               105         105
               106         106
               107         107
               108         108
               109         109
               110         110
               111         111
               112         112
               113         113
               114         114
               115         115
               116         116
               117         117
               118         118
               119         119
               120         120
               121         121
               122         122
               123         123
               124         124
               125         125
               126         126
               127         127
               128         128
               129         129
               130         130
               131         131
               132         132
               133         133
               134         134
               135         135
               136         136
               137         137
               138         138
               139         139
               140         140
               141         141
               142         142
               143         143
               144         144
               145         145
               146         146
               147         147
               148         148
               149         149
               150         150
               151         151
               152         152
               153         153
               154         154
               155         155
               156         156
               157         157
               158         158
               159         159
               160         160
               161         161
               162         162
               163         163
               164         164
               165         165
               166         166
               167         167
               168         168
               169         169
               170         170
               171         171
               172         172
               173         173
               174         174
               175         175
               176         176
               177         177
               178         178
               179         179
               180         180
               181         181
               182         182
               183         183
               184         184
               185         185
               186         186
               187         187
               188         188
               189         189
               190         190
               191         191
               192         192
               193         193
               194         194
               195         195
               196         196
               197         197
               198         198
               199         199
               200         200
               201         201
               202         202
               203         203
               204         204
               205         205
               206         206
               207         207
               208         208
               209         209
               210         210
               211         211
               212         212
               213         213
               214         214
               215         215
               216         216
               217         217
               218         218
               219         219
               220         220
               221         221
               222         222
               223         223
               224         224
               225         225
               226         226
               227         227
               228         228
               229         229
               230         230
               231         231
               232         232
               233         233
               234         234
               235         235
               236         236
               237         237
               238         238
               239         239
               240         240
               241         241
               242         242
               243         243
               244         244
               245         245
               246         246
               247         247
               248         248
               249         249
               250         250
               251         251
               252         252
               253         253
               254         254
               255         255
               256         256
               257         257
               258         258
               259         259
               260         260
               261         261
               262         262
               263         263
               264         264
               265         265
               266         266
               267         267
               268         268
               269         269
               270         270
               271         271
               272         272
               273         273
               274         274
               275         275
               276         276
               277         277
               278         278
               279         279
               280         280
               281         281
               282         282
               283         283
               284         284
               285         285
               286         286
               287         287
               288         288
               289         289
               290         290
               291         291
               292         292
               293         293
               294         294
               295         295
               296         296
               297         297
               298         298
               299         299
               300         300
               301         301
               302         302
               303         303
               304         304
               305         305
               306         306
               307         307
               308         308
               309         309
               310         310
               311         311
               312         312
               313         313
               314         314
               315         315
               316         316
               317         317
               318         318
               319         319
               320         320
               321         321
               322         322
               323         323
               324         324
               325         325

----------------------------------------------------------------------------------------

 
 
 KPOINTS: Automatic Mesh                          

Automatic generation of k-mesh.
 Grid dimensions read from file:
 generate k-points for:    3    3    1

 Generating k-lattice:

  Cartesian coordinates                     Fractional coordinates (reciprocal lattice)
     0.018456177  0.000005026 -0.000000000     0.333333333  0.000000000  0.000000000
     0.000000000  0.018454135  0.000000000     0.000000000  0.333333333  0.000000000
     0.000000000 -0.000000000  0.016003201     0.000000000  0.000000000  1.000000000

  Length of vectors
     0.018456178  0.018454135  0.016003201

  Shift w.r.t. Gamma in fractional coordinates (k-lattice)
     0.000000000  0.000000000  0.000000000

 
 Subroutine IBZKPT returns following result:
 ===========================================
 
 Found      5 irreducible k-points:
 
 Following reciprocal coordinates:
            Coordinates               Weight
  0.000000  0.000000  0.000000      1.000000
  0.333333  0.000000  0.000000      2.000000
  0.000000  0.333333  0.000000      2.000000
  0.333333  0.333333  0.000000      2.000000
 -0.333333  0.333333  0.000000      2.000000
 
 Following cartesian coordinates:
            Coordinates               Weight
  0.000000  0.000000  0.000000      1.000000
  0.018456  0.000005  0.000000      2.000000
  0.000000  0.018454  0.000000      2.000000
  0.018456  0.018459  0.000000      2.000000
 -0.018456  0.018449  0.000000      2.000000
 


--------------------------------------------------------------------------------------------------------




 Dimension of arrays:
   k-points           NKPTS =      5   k-points in BZ     NKDIM =      5   number of bands    NBANDS=    732
   number of dos      NEDOS =    301   number of ions     NIONS =    325
   non local maximal  LDIM  =      5   non local SUM 2l+1 LMDIM =     13
   total plane-waves  NPLWV = ******
   max r-space proj   IRMAX =   3336   max aug-charges    IRDMAX=  19845
   dimension x,y,z NGX =   100 NGY =  100 NGZ =  350
   dimension x,y,z NGXF=   200 NGYF=  200 NGZF=  700
   support grid    NGXF=   200 NGYF=  200 NGZF=  700
   ions per type =             143  39  47  72  24
   NGX,Y,Z   is equivalent  to a cutoff of   9.20,  9.20,  9.31 a.u.
   NGXF,Y,Z  is equivalent  to a cutoff of  18.41, 18.41, 18.62 a.u.

 SYSTEM =  PSC                                     
 POSCAR =   H  C  N  I Pb                          

 Startparameter for this run:
   NWRITE =      2    write-flag & timer
   PREC   = normal    normal or accurate (medium, high low for compatibility)
   ISTART =      0    job   : 0-new  1-cont  2-samecut
   ICHARG =      1    charge: 1-file 2-atom 10-const
   ISPIN  =      1    spin polarized calculation?
   LNONCOLLINEAR =      F non collinear calculations
   LSORBIT =      F    spin-orbit coupling
   INIWAV =      1    electr: 0-lowe 1-rand  2-diag
   LASPH  =      F    aspherical Exc in radial PAW
 Electronic Relaxation 1
   ENCUT  =  500.0 eV  36.75 Ry    6.06 a.u.  32.93 32.93113.93*2*pi/ulx,y,z
   ENINI  =  500.0     initial cutoff
   ENAUG  =  644.9 eV  augmentation charge cutoff
   NELM   =    600;   NELMIN=  2; NELMDL=  0     # of ELM steps 
   EDIFF  = 0.1E-03   stopping-criterion for ELM
   LREAL  =      T    real-space projection
   NLSPLINE    = F    spline interpolate recip. space projectors
   LCOMPAT=      F    compatible to vasp.4.4
   GGA_COMPAT  = F    GGA compatible to vasp.4.4-vasp.4.6
   LMAXPAW     = -100 max onsite density
   LMAXMIX     =    2 max onsite mixed and CHGCAR
   VOSKOWN=      0    Vosko Wilk Nusair interpolation
   ROPT   =   -0.00050  -0.00050  -0.00050  -0.00050
   ROPT   =   -0.00050
 Ionic relaxation
   EDIFFG = 0.1E-02   stopping-criterion for IOM
   NSW    =      0    number of steps for IOM
   NBLOCK =      1;   KBLOCK =      1    inner block; outer block 
   IBRION =     -1    ionic relax: 0-MD 1-quasi-New 2-CG
   NFREE  =      0    steps in history (QN), initial steepest desc. (CG)
   ISIF   =      2    stress and relaxation
   IWAVPR =     10    prediction:  0-non 1-charg 2-wave 3-comb
   ISYM   =      0    0-nonsym 1-usesym 2-fastsym
   LCORR  =      T    Harris-Foulkes like correction to forces

   POTIM  = 0.5000    time-step for ionic-motion
   TEIN   =    0.0    initial temperature
   TEBEG  =    0.0;   TEEND  =   0.0 temperature during run
   SMASS  =  -3.00    Nose mass-parameter (am)
   estimated Nose-frequenzy (Omega)   =  0.10E-29 period in steps = 0.13E+47 mass=  -0.745E-26a.u.
   SCALEE = 1.0000    scale energy and forces
   NPACO  =    256;   APACO  = 16.0  distance and # of slots for P.C.
   PSTRESS=    0.0 pullay stress

  Mass of Ions in am
   POMASS =   1.00 12.01 14.00126.90207.20
  Ionic Valenz
   ZVAL   =   1.00  4.00  5.00  7.00  4.00
  Atomic Wigner-Seitz radii
   RWIGS  =  -1.00 -1.00 -1.00 -1.00 -1.00
  virtual crystal weights 
   VCA    =   1.00  1.00  1.00  1.00  1.00
   NELECT =    1134.0000    total number of electrons
   NUPDOWN=      -1.0000    fix difference up-down

 DOS related values:
   EMIN   =  10.00;   EMAX   =-10.00  energy-range for DOS
   EFERMI =   0.00
   ISMEAR =     0;   SIGMA  =   0.05  broadening in eV -4-tet -1-fermi 0-gaus

 Electronic relaxation 2 (details)
   IALGO  =     38    algorithm
   LDIAG  =      T    sub-space diagonalisation (order eigenvalues)
   LSUBROT=      F    optimize rotation matrix (better conditioning)
   TURBO    =      0    0=normal 1=particle mesh
   IRESTART =      0    0=no restart 2=restart with 2 vectors
   NREBOOT  =      0    no. of reboots
   NMIN     =      0    reboot dimension
   EREF     =   0.00    reference energy to select bands
   IMIX   =      4    mixing-type and parameters
     AMIX     =   0.40;   BMIX     =  0.01
     AMIX_MAG =   1.60;   BMIX_MAG =  0.01
     AMIN     =   0.01
     WC   =   100.;   INIMIX=   1;  MIXPRE=   1;  MAXMIX= -45

 Intra band minimization:
   WEIMIN = 0.0000     energy-eigenvalue tresh-hold
   EBREAK =  0.34E-07  absolut break condition
   DEPER  =   0.30     relativ break condition  

   TIME   =   0.40     timestep for ELM

  volume/ion in A,a.u.               =      62.72       423.28
  Fermi-wavevector in a.u.,A,eV,Ry     =   0.624944  1.180972  5.313816  0.390554
  Thomas-Fermi vector in A             =   1.685677
 
 Write flags
   LWAVE        =      F    write WAVECAR
   LDOWNSAMPLE  =      F    k-point downsampling of WAVECAR
   LCHARG       =      T    write CHGCAR
   LVTOT        =      T    write LOCPOT, total local potential
   LVHAR        =      F    write LOCPOT, Hartree potential only
   LELF         =      F    write electronic localiz. function (ELF)
   LORBIT       =      0    0 simple, 1 ext, 2 COOP (PROOUT), +10 PAW based schemes


 Dipole corrections
   LMONO  =      F    monopole corrections only (constant potential shift)
   LDIPOL =      T    correct potential (dipole corrections)
   IDIPOL =      3    1-x, 2-y, 3-z, 4-all directions 
   EPSILON=  1.0000000 bulk dielectric constant

 Exchange correlation treatment:
   GGA     =    --    GGA type
   LEXCH   =     8    internal setting for exchange type
   VOSKOWN=      0    Vosko Wilk Nusair interpolation
   LHFCALC =     F    Hartree Fock is set to
   LHFONE  =     F    Hartree Fock one center treatment
   AEXX    =    0.0000 exact exchange contribution

 Linear response parameters
   LEPSILON=     F    determine dielectric tensor
   LRPA    =     F    only Hartree local field effects (RPA)
   LNABLA  =     F    use nabla operator in PAW spheres
   LVEL    =     F    velocity operator in full k-point grid
   LINTERFAST=   F  fast interpolation
   KINTER  =     0    interpolate to denser k-point grid
   CSHIFT  =0.1000    complex shift for real part using Kramers Kronig
   OMEGAMAX=  -1.0    maximum frequency
   DEG_THRESHOLD= 0.2000000E-02 threshold for treating states as degnerate
   RTIME   =   -0.100 relaxation time in fs
  (WPLASMAI=    0.000 imaginary part of plasma frequency in eV, 0.658/RTIME)
   DFIELD  = 0.0000000 0.0000000 0.0000000 field for delta impulse in time
 
 Orbital magnetization related:
   ORBITALMAG=     F  switch on orbital magnetization
   LCHIMAG   =     F  perturbation theory with respect to B field
   DQ        =  0.001000  dq finite difference perturbation B field
   LLRAUG    =     F  two centre corrections for induced B field



--------------------------------------------------------------------------------------------------------


 Static calculation
 charge density and potential will be updated during run
 non-spin polarized calculation
 Variant of blocked Davidson
 Davidson routine will perform the subspace rotation
 perform sub-space diagonalisation
    after iterative eigenvector-optimisation
 modified Broyden-mixing scheme, WC =      100.0
 initial mixing is a Kerker type mixing with AMIX =  0.4000 and BMIX =      0.0100
 Hartree-type preconditioning will be used
 using additional bands           165
 real space projection scheme for non local part
[...]
     13.54561      0.00000     45.35368        -0.001390      0.001570      0.009926
     13.54315      9.03140     45.35368         0.008459     -0.001912      0.020866
     14.07179     10.09935     32.81249         0.361567      0.364610     -0.238901
     13.10586      8.64050     33.00379         0.204091      0.075045      0.162951
     15.66590      9.16056     34.20612         0.253325     -0.168606     -0.139564
     15.35595      8.73446     35.87668        -0.086292     -0.230426     -0.136085
     13.33790     11.59544     35.34903         0.049369     -0.348108     -0.210010
     14.36934     10.66790     36.45257         0.190204      0.199340     -0.213483
     11.80546      9.68301     35.71557        -0.343708      0.769493      0.047305
     12.12350      8.11026     35.09165         0.231828      0.017291     -0.111531
     11.09680      9.87881     33.67656         0.179204      0.004154      0.110459
     12.09831     11.34045     33.90408        -0.307616      0.320485     -0.239199
     11.11831     11.81867     31.83661         0.290597     -0.916711     -0.248433
     12.57171     10.96959     31.26374        -0.231811     -0.151142     -0.135583
     14.97890      7.04363     33.34925         0.086350     -0.023311      0.114203
     13.68900      6.88226     34.50688        -0.291706     -0.113127      0.122121
     15.30809      6.47454     35.03211        -0.196538      0.448702     -0.270497
     15.42181     12.48531     34.94545         0.292053      0.123573      0.074712
     15.35365     11.40575     33.57157        -0.119567     -0.057189      0.325184
     16.31258     10.91331     35.00821         0.140182      0.176234     -0.009161
     13.71360      9.17001     37.46843         0.566406      0.609826      0.391002
     13.45700      7.51896     36.99125         0.315084     -0.642514      0.048100
     12.14046      8.48103     37.63870        -0.417193     -0.165562      0.458416
      9.77220      9.67795     31.75109         0.034524      0.117753     -0.006017
     10.46038     10.10236     30.17746        -0.121638     -0.131886     -0.305105
     12.92919      8.98293     29.75780        -0.359007     -0.390364      0.296489
      9.91705      7.52130     32.51024         0.026909     -0.014918      0.087265
     14.09948      6.80072     29.89599         0.064026      0.018767     -0.104592
     11.16892      5.32534     32.65657        -0.175531      0.033471      0.084380
     13.25855      4.96383     31.38216        -0.341766      0.437408     -0.014820
      0.33681      4.31276     34.81065        -0.050587     -0.119517     -0.657804
      0.10249     13.47795     34.77530         0.108117     -0.094950     -0.003912
      8.77811      4.24245     34.66838         0.359173     -0.534388      0.052429
      9.17169     13.93350     34.85447         0.786078     -0.452176     -0.437516
      4.33148      9.21309     34.85114        -0.435806     -0.486848     -0.284477
      4.32538      0.18967     34.83764        -0.588495     -0.105167     -0.338695
     13.77205     17.84330     34.94313         0.601124      0.203340     -0.282477
      0.05430      4.45094     40.68238         0.497986     -0.474748      1.165582
      0.20305     13.82231     40.76908         0.089197     -0.423839      0.964588
      8.81892      4.29402     40.67057         1.256607     -0.457538      0.963011
      8.91913     13.61715     40.65968         0.215311     -0.227738      0.522455
      4.56440      9.05944     40.59632         0.427429      0.857755      0.430512
      4.53217     17.99419     40.59837        -1.185064     -1.168469      0.023644
     13.72365      9.01311     40.72261        -0.630202     -0.431340      0.445623
     13.56564     18.03105     40.55073        -0.891234     -0.893532      0.078180
      9.02897      4.51561     46.44552         0.009638      0.007353      0.034903
      9.02651     13.54701     46.44552         0.003915      0.009409      0.050916
     18.05937      4.51561     46.44552         0.000553      0.016241      0.053347
     18.05691     13.54701     46.44552         0.032400     -0.011744      0.055112
      4.51521      0.00002     46.44421        -0.003907     -0.005366      0.064514
      4.51275      9.03142     46.44421         0.007579      0.010110      0.051890
     13.54561      0.00002     46.44421         0.007850      0.008351      0.051534
     13.54315      9.03142     46.44421        -0.019310     -0.022680      0.058495
     11.34213      8.37751     31.13899        -0.146645      0.287329     -0.113950
     12.49894      8.16640     30.37666         0.409902      0.206645     -0.138911
     10.83124      7.34892     31.93989         0.288680     -0.141768     -0.228010
     13.17859      6.95470     30.45557        -0.119869     -0.792469      0.405426
     11.51050      6.13124     32.00830         0.415018     -0.476342      0.028440
     12.69583      5.91191     31.28885         0.138690      0.567142     -0.329326
     13.27159      9.65997     33.38602        -1.486165     -0.536396      0.326383
     14.95594      8.65115     34.85218        -0.008536     -0.736463      0.101261
     14.16816     10.86895     35.38657         0.169875     -0.076555     -0.076509
     12.57540      8.93762     35.65628         0.676537     -0.097358     -0.551803
     11.94755     10.45305     33.27700         0.882983     -0.317874     -0.023391
     11.62887     10.80403     31.81697        -0.467731      1.023488      0.601053
     14.72592      7.18641     34.40959         0.437568      0.634135      0.184970
     15.40599     11.42643     34.67657        -0.403198      0.033218      0.231714
     13.01665      8.49822     37.01265        -0.310118     -0.095476     -0.293712
     10.71064      9.73720     31.17825         0.110416      0.582320     -0.089745
      0.73636      3.29665     35.53572        -0.419311      0.908927      0.107037
      0.64562     12.42938     35.35190         0.145388     -0.265975     -0.146908
      9.97939      4.05804     35.18151        -0.237229      0.366483      0.058889
      9.47782     12.83797     35.49606         0.199619     -0.655591     -0.065423
      7.83049      4.95251     35.22120         0.052270      0.549130      0.549219
      8.41731     14.87797     35.30148        -1.259197      1.007669      1.068597
     17.79695      5.39502     35.24467         0.073219     -0.203191      0.136914
     17.57863     14.46747     35.41399        -0.070957     -0.191608     -0.730502
      3.88965      8.12614     35.45252         0.160073      0.180709     -0.068033
      3.36626     17.53856     35.39661         0.197622     -0.074811     -0.129471
     12.78395     17.14149     35.42075        -0.376121      0.489985      0.348304
      5.46506      0.50665     35.38671        -0.283253     -0.182106      0.509598
      5.15125     10.08952     35.36069         0.087876     -0.504347      0.522267
     14.37755      0.78050     35.55644        -0.193500     -0.203096     -0.029557
      0.93823      3.56202     41.12333        -0.347528      0.363119     -1.384862
      0.92145     12.91676     41.41306        -0.754510      0.604807     -0.107428
      9.84123      3.64133     41.24531        -0.947502      0.408860     -0.874962
      9.70019     12.84229     41.39231        -0.618515      0.615025     -0.012302
      3.83740      8.11654     41.14822         0.474067      0.400042      1.149761
      3.67470     17.15209     41.18478         1.686600      1.913563      1.494603
     12.89983      8.36248     41.51352        -0.853746     -1.291108     -0.643159
     12.63417     17.28391     41.14367         1.657093      1.622589      1.353637
      8.11204      5.23406     41.24611         0.049001      0.097091      0.266314
      8.04543     14.47881     41.11669         0.007335      0.006603     -0.258177
     17.34720      5.19836     41.44566         0.262278     -0.268039      0.016045
     17.26414     14.50260     41.27852         0.082567      0.033475     -0.378174
      5.32004      0.78309     41.18757         0.270180      0.377185      1.035312
      5.31441      9.96915     41.22466        -1.398661     -2.028212      1.218382
     14.41885      0.76894     41.13212         0.130977      0.279547      1.040431
     14.46328     10.02270     41.06519         1.041922      0.868966     -0.962752
      0.82731      3.68697     47.03596         0.025146     -0.029778     -0.094202
      0.82485     12.71837     47.03596         0.001066     -0.011674     -0.094057
      9.85771      3.68697     47.03596         0.019960     -0.026517     -0.089553
      9.85525     12.71837     47.03596         0.029382     -0.021982     -0.096703
      3.68432      8.20234     47.03465        -0.015037     -0.016033     -0.071454
      3.68186     17.23373     47.03465        -0.008296     -0.002352     -0.078780
     12.71472      8.20234     47.03465         0.002669      0.003728     -0.087234
     12.71226     17.23373     47.03465        -0.013035     -0.017910     -0.073168
      8.20068      5.34457     47.03603        -0.021071      0.014868     -0.094589
      8.19822     14.37597     47.03603        -0.011484      0.015677     -0.099600
     17.23108      5.34457     47.03603        -0.009254      0.008944     -0.093311
     17.22862     14.37597     47.03603        -0.033074      0.024192     -0.093679
      5.34365      0.82909     47.03465         0.009740      0.009783     -0.071436
      5.34119      9.86049     47.03465         0.005929      0.004407     -0.077308
     14.37405      0.82909     47.03465         0.007766      0.003017     -0.079557
     14.37159      9.86049     47.03465         0.020314      0.027072     -0.077122
     13.73402      9.53230     34.82085        -0.642555     -0.394556     -0.156575
      8.84206      0.27575     34.46494         0.087752      0.027655      0.007906
      8.52454      9.34678     34.88582         0.188664     -0.109674     -0.202016
      0.02422     17.94995     34.47437        -0.140203      0.055789     -0.023968
      0.57635      8.79335     34.44234        -0.123951      0.064489      0.016697
      4.38637      4.44819     34.48897        -0.062202     -0.052476     -0.018221
      4.54164     13.50832     34.54834         0.032502      0.062087     -0.085557
     13.58181      3.92735     34.73306        -0.097659     -0.041368     -0.105524
     13.09893     14.09802     34.19495        -0.157171     -0.037185      0.044841
      0.04887     18.01693     40.90824        -0.005226     -0.001209     -0.042659
      0.17681      9.10514     40.91108         0.022854     -0.035663      0.004473
      8.98777     18.06003     40.82945        -0.019806      0.003329      0.159387
      9.15456      8.79686     41.01066        -0.033817      0.028024     -0.002262
      4.52431      4.46313     40.84252         0.022516      0.004086      0.183077
      4.49742     13.60403     40.93962        -0.015524     -0.020832     -0.102119
     13.37137      4.57244     40.94080         0.039699      0.023476      0.047741
     13.65740     13.70093     40.84215        -0.033963     -0.015814      0.028322
      2.59013      1.89798     38.08178         0.018949     -0.014967      0.097413
      2.61649     10.98353     37.89872         0.004489     -0.094151      0.142911
     11.66074      1.83027     37.97208         0.110148      0.073500      0.046429
     11.18880     11.42170     38.37339         0.122024     -0.063159     -0.126494
      6.35182      7.10036     37.93722        -0.005654     -0.056493      0.069339
      6.42195     16.09858     37.93286         0.085284      0.068202      0.092775
     16.03738      6.60193     38.38176        -0.188248      0.110812     -0.229609
     15.52222     16.17468     37.87508        -0.021405     -0.117669      0.092969
      1.99016      6.45787     38.04869         0.098680     -0.062929      0.057647
      1.96318     15.50338     37.91144         0.006295      0.042245      0.067829
     10.45319      5.97362     38.07552         0.175465      0.082431     -0.071104
     11.01664     15.57727     38.04910         0.020564     -0.019700      0.088875
      6.94402      2.42870     37.99807         0.018300      0.001836      0.008508
      6.93565     11.47675     38.18984         0.059048      0.063826      0.046974
     16.11215      2.52427     38.21324        -0.059424      0.041505     -0.029802
     16.52836     11.86240     38.41382        -0.265348     -0.109588     -0.280271
      0.00000      0.00000     47.17356        -0.002878      0.001677      0.401131
     -0.00246      9.03140     47.17356        -0.004027      0.002750      0.417284
      9.03040      0.00000     47.17356         0.001355     -0.001276      0.379647
      9.02794      9.03140     47.17356         0.003700      0.000896      0.558897
      4.51398      4.51570     47.17425        -0.000883     -0.002037      0.398583
      4.51152     13.54710     47.17425         0.001936      0.002791      0.538758
     13.54438      4.51570     47.17425         0.001753     -0.001348      0.477977
     13.54192     13.54710     47.17425         0.000934     -0.000122      0.300197
      2.45192      2.06295     44.04013         0.022627     -0.041045      0.012701
      2.44946     11.09435     44.04013         0.039016     -0.045615      0.080201
     11.48232      2.06295     44.04013         0.038924     -0.052455      0.011820
     11.47986     11.09435     44.04013         0.085536      0.009082     -0.016855
      6.57602      6.96845     44.04013        -0.046674      0.015010      0.004194
      6.57356     15.99985     44.04013         0.004236      0.046501      0.022752
     15.60642      6.96845     44.04013        -0.003055      0.022210      0.026709
     15.60396     15.99985     44.04013        -0.057256      0.028884      0.059551
      2.06108      6.57881     44.04000         0.026044     -0.011595     -0.019187
      2.05862     15.61021     44.04000        -0.022777      0.041872      0.060539
     11.09148      6.57881     44.04000        -0.032217     -0.070271      0.070203
     11.08902     15.61021     44.04000         0.005462     -0.016433     -0.012351
      6.96686      2.45259     44.04007        -0.023393     -0.030733     -0.007044
      6.96440     11.48399     44.04007         0.037526      0.020404      0.014579
     15.99726      2.45259     44.04007         0.000227     -0.018947     -0.045989
     15.99481     11.48399     44.04007        -0.021321      0.067146     -0.029715
      2.43163      2.08322     50.06849         0.005207     -0.014370      0.021595
      2.42917     11.11462     50.06849        -0.000575     -0.018274      0.022706
     11.46203      2.08322     50.06849         0.003612     -0.018474      0.022258
     11.45957     11.11462     50.06849         0.033219      0.013233      0.020140
      6.59631      6.94818     50.06849        -0.021092     -0.001421      0.022461
      6.59385     15.97958     50.06849         0.003480      0.022861      0.022244
     15.62671      6.94818     50.06849        -0.006233      0.014385      0.021560
     15.62425     15.97958     50.06849        -0.017848      0.003335      0.019943
      2.08113      6.59901     50.06905        -0.011926     -0.009885      0.022796
      2.07867     15.63041     50.06905        -0.023932      0.003631      0.022558
     11.11153      6.59901     50.06905        -0.000870     -0.016662      0.021627
     11.10907     15.63041     50.06905        -0.001383     -0.017883      0.020971
      6.94681      2.43239     50.06905         0.013674      0.006097      0.022816
      6.94435     11.46379     50.06905         0.008391      0.012597      0.023154
     15.97721      2.43239     50.06905         0.017324      0.001430      0.021525
     15.97475     11.46379     50.06905        -0.001460      0.021373      0.020264
     18.04393      0.03885     37.76199        -0.032153     -0.096165     -0.024713
      0.11976      9.05374     37.76102        -0.030973      0.016543      0.062833
      9.06767      0.10274     37.65218        -0.116086     -0.025406     -0.048088
      8.94084      8.95318     37.89475         0.003862      0.049635     -0.114355
      4.44945      4.46387     37.64685         0.025753     -0.001775     -0.016012
      4.49438     13.53488     37.59254        -0.017539     -0.064912      0.088793
     13.47579      4.46874     37.78475         0.021605      0.021996     -0.008431
     13.50407     13.67798     37.73080        -0.066359     -0.020092     -0.008646
      0.00001      0.00001     44.04300         0.013253     -0.031443      0.115955
     -0.00245      9.03141     44.04300         0.041239     -0.059647      0.014393
      9.03041      0.00001     44.04300        -0.025529      0.049308     -0.060606
      9.02795      9.03141     44.04300        -0.044285     -0.001116      0.174283
      4.51397      4.51569     44.04275         0.033696      0.014644     -0.050190
      4.51151     13.54709     44.04275        -0.041605     -0.021580     -0.013974
     13.54437      4.51569     44.04275         0.014817      0.046230      0.100327
     13.54191     13.54709     44.04275        -0.045347      0.046354      0.060223
      0.00000      0.00000     50.44728         0.010478      0.003370     -0.622925
     -0.00246      9.03140     50.44728         0.010462     -0.004547     -0.629301
      9.03040      0.00000     50.44728        -0.010417      0.005620     -0.619119
      9.02794      9.03140     50.44728        -0.010904     -0.003760     -0.666905
      4.51397      4.51570     50.44728         0.007640      0.011902     -0.625650
      4.51151     13.54710     50.44728         0.008335     -0.010641     -0.662757
     13.54437      4.51570     50.44728        -0.009101      0.010860     -0.647518
     13.54191     13.54710     50.44728        -0.006869     -0.011375     -0.594981
 -----------------------------------------------------------------------------------
    total drift:                                0.014636     -0.043681      0.818017


--------------------------------------------------------------------------------------------------------



  FREE ENERGIE OF THE ION-ELECTRON SYSTEM (eV)
  ---------------------------------------------------
  free  energy   TOTEN  =     -1573.13711409 eV

  energy  without entropy=    -1573.13711409  energy(sigma->0) =    -1573.13711409
 


--------------------------------------------------------------------------------------------------------


    POTLOK:  cpu time    0.4997: real time    0.4996


--------------------------------------------------------------------------------------------------------


     LOOP+:  cpu time  285.6781: real time  286.2422
 vacuum level on the upper side and lower side of the slab         2.300         1.615
    4ORBIT:  cpu time    0.0000: real time    0.0000

 total amount of memory used by VASP MPI-rank0  8653584. kBytes
=======================================================================

   base      :      30000. kBytes
   nonlr-proj:      53622. kBytes
   fftplans  :     249280. kBytes
   grid      :     701440. kBytes
   one-center:       2636. kBytes
   wavefun   :    7616606. kBytes
 
  
  
 General timing and accounting informations for this job:
 ========================================================
  
                  Total CPU time used (sec):      500.344
                            User time (sec):      407.103
                          System time (sec):       93.241
                         Elapsed time (sec):      501.131
  
                   Maximum memory used (kb):    10309136.
                   Average memory used (kb):          N/A
  
                          Minor page faults:      3614055
                          Major page faults:           14
                 Voluntary context switches:        11133
