<?xml version="1.0" encoding="ISO-8859-1"?>
<modeling>
 <generator>
  <i name="program" type="string">vasp </i>
  <i name="version" type="string">6.2.1  </i>
  <i name="subversion" type="string">16May21 (build Nov 15 2021 14:57:28) complex                          parallel </i>
  <i name="platform" type="string">LinuxPGI </i>
  <i name="date" type="string">2023 07 24 </i>
  <i name="time" type="string">22:15:33 </i>
 </generator>
 <incar>
  <i type="string" name="SYSTEM">PSC</i>
  <i type="int" name="ISTART">     1</i>
  <i type="string" name="PREC">Normal</i>
  <i name="BMIX">      0.01000000</i>
  <i name="AMIN">      0.01000000</i>
  <i type="int" name="ICHARG">     1</i>
  <i type="int" name="NELM">   600</i>
  <i type="int" name="ISYM">     0</i>
  <i name="ENCUT">    500.00000000</i>
  <i type="string" name="LREAL">Auto</i>
  <i type="int" name="ISMEAR">     0</i>
  <i name="SIGMA">      0.05000000</i>
  <i type="logical" name="LWAVE"> F  </i>
  <i type="logical" name="LVTOT"> T  </i>
  <i type="logical" name="GGA_COMPAT"> F  </i>
  <i type="logical" name="LDIPOL"> T  </i>
  <i type="int" name="IDIPOL">     3</i>
  <i type="int" name="IVDW">    12</i>
 </incar>
 <primitive_cell>
  <structure name="primitive_cell" >
   <crystal>
    <varray name="basis" >
     <v>      18.06080055       0.00000000       0.00000000 </v>
     <v>      -0.00491865      18.06279945       0.00000000 </v>
     <v>       0.00000000       0.00000000      62.48749924 </v>
    </varray>
    <i name="volume">  20385.21054034 </i>
    <varray name="rec_basis" >
     <v>       0.05536853       0.00001508      -0.00000000 </v>
     <v>       0.00000000       0.05536240       0.00000000 </v>
     <v>       0.00000000      -0.00000000       0.01600320 </v>
    </varray>
   </crystal>
   <varray name="positions" >
    <v>       0.44059444       0.30107552       0.57808645 </v>
    <v>       0.44038557       0.82337875       0.57991189 </v>
    <v>       0.97782140       0.30693374       0.58000877 </v>
    <v>       0.97051414       0.80098777       0.58293910 </v>
    <v>       0.31475405       0.01118602       0.58161499 </v>
    <v>       0.30682167       0.55270663       0.58102570 </v>
    <v>       0.77645936       0.06323641       0.58328134 </v>
    <v>       0.06324079       0.13800731       0.56154573 </v>
    <v>       0.05995000       0.64728262       0.55653191 </v>
    <v>       0.59224547       0.19445839       0.55542335 </v>
    <v>       0.55565841       0.67022191       0.56119635 </v>
    <v>       0.34094352       0.05737946       0.55808245 </v>
    <v>       0.30176123       0.60301006       0.55725996 </v>
    <v>       0.83597361       0.07351037       0.56150122 </v>
    <v>       0.03467004       0.18214967       0.58479629 </v>
    <v>       0.03555796       0.67919741       0.58208707 </v>
    <v>       0.56807863       0.25194591       0.57699450 </v>
    <v>       0.50510379       0.69532257       0.58250188 </v>
    <v>       0.22991364       0.43694418       0.58272990 </v>
    <v>       0.19044453       0.94915044       0.58158941 </v>
    <v>       0.68665890       0.96007707       0.58169990 </v>
    <v>       0.38147791       0.27605258       0.55722577 </v>
    <v>       0.45919550       0.87276102       0.55688403 </v>
    <v>       0.97540157       0.34356091       0.55447766 </v>
    <v>       0.95363391       0.84560526       0.55830381 </v>
    <v>       0.17815656       0.41613132       0.55989031 </v>
    <v>       0.13743885       0.96165401       0.55847028 </v>
    <v>       0.68928494       0.90349481       0.55847285 </v>
    <v>       0.47230888       0.20596482       0.53998392 </v>
    <v>       0.53401412       0.77896675       0.54222338 </v>
    <v>       0.02796247       0.23280817       0.53990163 </v>
    <v>       0.00824875       0.74839566       0.53900826 </v>
    <v>       0.21965508       0.51931419       0.54146017 </v>
    <v>       0.22913895       0.03081148       0.54128942 </v>
    <v>       0.78416752       0.97174082       0.54351429 </v>
    <v>       0.45652748       0.30887738       0.67540859 </v>
    <v>       0.43553360       0.81122593       0.67379828 </v>
    <v>       0.96015078       0.28729812       0.67958716 </v>
    <v>       0.93722423       0.80071845       0.67589868 </v>
    <v>       0.29786889       0.05114552       0.67548710 </v>
    <v>       0.29966247       0.55345276       0.67634737 </v>
    <v>       0.80099211       0.05142306       0.67460032 </v>
    <v>       0.80406905       0.57657615       0.67220159 </v>
    <v>       0.08283515       0.16741280       0.64717839 </v>
    <v>       0.09205625       0.68874851       0.65493544 </v>
    <v>       0.57140714       0.16231736       0.65123676 </v>
    <v>       0.57225382       0.67641766       0.65482592 </v>
    <v>       0.18267167       0.41483422       0.64925950 </v>
    <v>       0.17339177       0.91578910       0.65031464 </v>
    <v>       0.68463979       0.41798276       0.65791009 </v>
    <v>       0.66698970       0.92522454       0.64967895 </v>
    <v>       0.06253585       0.18556432       0.67363657 </v>
    <v>       0.04343684       0.70081358       0.67838672 </v>
    <v>       0.56491269       0.20871984       0.67521482 </v>
    <v>       0.53736623       0.71046822       0.67868628 </v>
    <v>       0.20966234       0.44071071       0.67491600 </v>
    <v>       0.19758013       0.94744462       0.67576004 </v>
    <v>       0.70460230       0.47355495       0.68015136 </v>
    <v>       0.69260495       0.95656779       0.67498431 </v>
    <v>       0.40750239       0.31380602       0.65175389 </v>
    <v>       0.41479794       0.83159444       0.64743583 </v>
    <v>       0.92577027       0.32317907       0.65572441 </v>
    <v>       0.93016629       0.84005063       0.65098616 </v>
    <v>       0.32830039       0.07627588       0.65028693 </v>
    <v>       0.32221098       0.58890647       0.65122822 </v>
    <v>       0.83574232       0.07136858       0.64933874 </v>
    <v>       0.83486743       0.57937512       0.64554837 </v>
    <v>       0.99587638       0.25520445       0.63410748 </v>
    <v>       0.02708485       0.77894536       0.63625531 </v>
    <v>       0.47386605       0.22298790       0.63446723 </v>
    <v>       0.49951932       0.74856198       0.63351697 </v>
    <v>       0.25383534       0.99420393       0.63233485 </v>
    <v>       0.25049953       0.50587649       0.63235927 </v>
    <v>       0.75576746       0.99347816       0.63163494 </v>
    <v>       0.76210591       0.47924749       0.63536567 </v>
    <v>       0.44874502       0.30128397       0.76888902 </v>
    <v>       0.44874501       0.80128391       0.76888902 </v>
    <v>       0.94874497       0.30128397       0.76888902 </v>
    <v>       0.94874501       0.80128391       0.76888902 </v>
    <v>       0.30127600       0.05129450       0.76887296 </v>
    <v>       0.30127601       0.55129450       0.76887296 </v>
    <v>       0.80127594       0.05129450       0.76887296 </v>
    <v>       0.80127598       0.55129450       0.76887296 </v>
    <v>       0.07877100       0.17118050       0.74344197 </v>
    <v>       0.07877101       0.67118045       0.74344197 </v>
    <v>       0.57877100       0.17118050       0.74344197 </v>
    <v>       0.57877099       0.67118045       0.74344197 </v>
    <v>       0.17119950       0.42117448       0.74342103 </v>
    <v>       0.17119950       0.92117451       0.74342103 </v>
    <v>       0.67119951       0.42117448       0.74342103 </v>
    <v>       0.67119950       0.92117451       0.74342103 </v>
    <v>       0.05125600       0.19871499       0.76888902 </v>
    <v>       0.05125600       0.69871493       0.76888902 </v>
    <v>       0.55125603       0.19871499       0.76888902 </v>
    <v>       0.55125602       0.69871493       0.76888902 </v>
    <v>       0.19872349       0.44870397       0.76887205 </v>
    <v>       0.19872349       0.94870397       0.76887205 </v>
    <v>       0.69872352       0.44870397       0.76887205 </v>
    <v>       0.69872351       0.94870397       0.76887205 </v>
    <v>       0.42123152       0.32881747       0.74344197 </v>
    <v>       0.42123151       0.82881744       0.74344197 </v>
    <v>       0.92123147       0.32881747       0.74344197 </v>
    <v>       0.92123151       0.82881744       0.74344197 </v>
    <v>       0.32880050       0.07882500       0.74342103 </v>
    <v>       0.32880049       0.57882496       0.74342103 </v>
    <v>       0.82880048       0.07882500       0.74342103 </v>
    <v>       0.82880052       0.57882496       0.74342103 </v>
    <v>       0.00000350       0.25000148       0.72582199 </v>
    <v>       0.00000350       0.75000145       0.72582199 </v>
    <v>       0.50000351       0.25000148       0.72582199 </v>
    <v>       0.50000350       0.75000145       0.72582199 </v>
    <v>       0.25000050       0.00000000       0.72580398 </v>
    <v>       0.25000052       0.50000000       0.72580398 </v>
    <v>       0.75000050       0.00000000       0.72580398 </v>
    <v>       0.75000049       0.50000000       0.72580398 </v>
    <v>       0.77928681       0.55912456       0.52510484 </v>
    <v>       0.72578248       0.47835880       0.52816625 </v>
    <v>       0.86753621       0.50715050       0.54740746 </v>
    <v>       0.85036832       0.48356064       0.57414175 </v>
    <v>       0.73867482       0.64195127       0.56569756 </v>
    <v>       0.79577020       0.59060081       0.58335783 </v>
    <v>       0.65379708       0.53607461       0.57156342 </v>
    <v>       0.67138261       0.44900365       0.56157875 </v>
    <v>       0.61456272       0.54691451       0.53893281 </v>
    <v>       0.67003651       0.62783464       0.54257379 </v>
    <v>       0.61578274       0.65431005       0.50948774 </v>
    <v>       0.69624244       0.60730294       0.50031992 </v>
    <v>       0.82946578       0.38995206       0.53369482 </v>
    <v>       0.75804386       0.38101871       0.55222056 </v>
    <v>       0.84768409       0.35844619       0.56062586 </v>
    <v>       0.85407122       0.69121691       0.55923911 </v>
    <v>       0.85028118       0.63144981       0.53725260 </v>
    <v>       0.90336836       0.60418682       0.56024346 </v>
    <v>       0.75944026       0.50767357       0.59961486 </v>
    <v>       0.74520757       0.41626770       0.59197833 </v>
    <v>       0.67232726       0.46953018       0.60233965 </v>
    <v>       0.54121821       0.53579457       0.50811899 </v>
    <v>       0.57932807       0.55929066       0.48293592 </v>
    <v>       0.71600595       0.49731677       0.47621998 </v>
    <v>       0.54920586       0.41639706       0.52026788 </v>
    <v>       0.78077002       0.37650448       0.47843154 </v>
    <v>       0.61848686       0.29482380       0.52260972 </v>
    <v>       0.73418111       0.27480961       0.50221498 </v>
    <v>       0.01871355       0.23876460       0.55708182 </v>
    <v>       0.00587780       0.74617193       0.55651603 </v>
    <v>       0.48609521       0.23487230       0.55480512 </v>
    <v>       0.50803324       0.77139186       0.55778307 </v>
    <v>       0.23996662       0.51005891       0.55772972 </v>
    <v>       0.23949292       0.01050050       0.55751373 </v>
    <v>       0.76280717       0.98784814       0.55920194 </v>
    <v>       0.00307386       0.24641482       0.65104825 </v>
    <v>       0.01145096       0.76523639       0.65243573 </v>
    <v>       0.48835513       0.23772752       0.65085937 </v>
    <v>       0.49404461       0.75387807       0.65068502 </v>
    <v>       0.25286083       0.50155246       0.64967114 </v>
    <v>       0.25121081       0.99620150       0.64970380 </v>
    <v>       0.75999439       0.49898739       0.65169211 </v>
    <v>       0.75138142       0.99824228       0.64894144 </v>
    <v>       0.49998898       0.24999498       0.74327702 </v>
    <v>       0.49998903       0.74999496       0.74327702 </v>
    <v>       0.99998898       0.24999498       0.74327702 </v>
    <v>       0.99998903       0.74999496       0.74327702 </v>
    <v>       0.25000050       0.00000100       0.74325596 </v>
    <v>       0.25000052       0.50000100       0.74325596 </v>
    <v>       0.75000050       0.00000100       0.74325596 </v>
    <v>       0.75000049       0.50000100       0.74325596 </v>
    <v>       0.62812322       0.46379915       0.49832355 </v>
    <v>       0.69217105       0.45211164       0.48612381 </v>
    <v>       0.59982042       0.40685361       0.51114047 </v>
    <v>       0.72978423       0.38502888       0.48738658 </v>
    <v>       0.63741176       0.33944010       0.51223520 </v>
    <v>       0.70303867       0.32729761       0.50072179 </v>
    <v>       0.73497395       0.53479902       0.53428313 </v>
    <v>       0.82821878       0.47894861       0.55774638 </v>
    <v>       0.78463400       0.60173130       0.56629839 </v>
    <v>       0.69641610       0.49480819       0.57061468 </v>
    <v>       0.66167578       0.57870617       0.53253852 </v>
    <v>       0.64403608       0.59813689       0.50917334 </v>
    <v>       0.81546069       0.39785693       0.55066355 </v>
    <v>       0.85317946       0.63259483       0.55493619 </v>
    <v>       0.72084088       0.47048175       0.59232086 </v>
    <v>       0.59317932       0.53907484       0.49895173 </v>
    <v>       0.04082091       0.18251040       0.56868528 </v>
    <v>       0.03593424       0.68812012       0.56574353 </v>
    <v>       0.55260541       0.22466259       0.56301672 </v>
    <v>       0.52496635       0.71074076       0.56805063 </v>
    <v>       0.43363733       0.27418309       0.56365186 </v>
    <v>       0.46627850       0.82368022       0.56493666 </v>
    <v>       0.98547250       0.29868128       0.56402761 </v>
    <v>       0.97352129       0.80095398       0.56673719 </v>
    <v>       0.21548671       0.44988252       0.56735383 </v>
    <v>       0.18664928       0.97097681       0.56645906 </v>
    <v>       0.70808684       0.94899408       0.56684537 </v>
    <v>       0.30259981       0.02804927       0.56630064 </v>
    <v>       0.28536953       0.55857995       0.56588424 </v>
    <v>       0.79607544       0.04321057       0.56901689 </v>
    <v>       0.05200224       0.19720202       0.65810496 </v>
    <v>       0.05121433       0.71510280       0.66274150 </v>
    <v>       0.54494922       0.20159264       0.66005701 </v>
    <v>       0.53727909       0.71098031       0.66240953 </v>
    <v>       0.21259365       0.44935132       0.65850329 </v>
    <v>       0.20372157       0.94958106       0.65908837 </v>
    <v>       0.71437072       0.46296700       0.66434913 </v>
    <v>       0.69979608       0.95687905       0.65843046 </v>
    <v>       0.44923074       0.28977029       0.66006977 </v>
    <v>       0.44568190       0.80158148       0.65799861 </v>
    <v>       0.96056753       0.28779363       0.66326321 </v>
    <v>       0.95610884       0.80289900       0.66058842 </v>
    <v>       0.29457449       0.04335394       0.65913293 </v>
    <v>       0.29440121       0.55191598       0.65972644 </v>
    <v>       0.79836214       0.04257063       0.65824561 </v>
    <v>       0.80096167       0.55488078       0.65717441 </v>
    <v>       0.04586250       0.20411950       0.75272599 </v>
    <v>       0.04586250       0.70411946       0.75272599 </v>
    <v>       0.54586251       0.20411950       0.75272599 </v>
    <v>       0.54586250       0.70411946       0.75272599 </v>
    <v>       0.20411900       0.45410100       0.75270499 </v>
    <v>       0.20411899       0.95410095       0.75270499 </v>
    <v>       0.70411898       0.45410100       0.75270499 </v>
    <v>       0.70411896       0.95410095       0.75270499 </v>
    <v>       0.45414002       0.29588849       0.75272697 </v>
    <v>       0.45414001       0.79588852       0.75272697 </v>
    <v>       0.95414002       0.29588849       0.75272697 </v>
    <v>       0.95414006       0.79588852       0.75272697 </v>
    <v>       0.29588249       0.04590050       0.75270499 </v>
    <v>       0.29588248       0.54590053       0.75270499 </v>
    <v>       0.79588244       0.04590050       0.75270499 </v>
    <v>       0.79588248       0.54590053       0.75270499 </v>
    <v>       0.76057625       0.52773104       0.55724500 </v>
    <v>       0.48957630       0.01526618       0.55154940 </v>
    <v>       0.47213218       0.51745999       0.55828482 </v>
    <v>       0.00161154       0.99375264       0.55170019 </v>
    <v>       0.03204441       0.48682074       0.55118776 </v>
    <v>       0.24293378       0.24626224       0.55193394 </v>
    <v>       0.25166783       0.74785296       0.55288402 </v>
    <v>       0.75206393       0.21742761       0.55584006 </v>
    <v>       0.72548115       0.78050041       0.54722859 </v>
    <v>       0.00297764       0.99746035       0.65466274 </v>
    <v>       0.00992693       0.50408232       0.65470816 </v>
    <v>       0.49791174       0.99984681       0.65340187 </v>
    <v>       0.50700739       0.48701509       0.65630180 </v>
    <v>       0.25057165       0.24708945       0.65361102 </v>
    <v>       0.24922091       0.75315194       0.65516492 </v>
    <v>       0.74042223       0.25314136       0.65518384 </v>
    <v>       0.75639665       0.75851635       0.65360509 </v>
    <v>       0.14344054       0.10507671       0.60943037 </v>
    <v>       0.14503704       0.60807457       0.60650082 </v>
    <v>       0.64566537       0.10132798       0.60767489 </v>
    <v>       0.61967946       0.63233301       0.61409701 </v>
    <v>       0.35179795       0.39309318       0.60711691 </v>
    <v>       0.35581666       0.89125616       0.60704714 </v>
    <v>       0.88806594       0.36549896       0.61423095 </v>
    <v>       0.85968616       0.89546910       0.60612251 </v>
    <v>       0.11028959       0.35752297       0.60890078 </v>
    <v>       0.10893238       0.85830411       0.60670436 </v>
    <v>       0.57886784       0.33071404       0.60933013 </v>
    <v>       0.61020987       0.86239535       0.60890743 </v>
    <v>       0.38451687       0.13445879       0.60809080 </v>
    <v>       0.38418963       0.63538044       0.61115971 </v>
    <v>       0.89214436       0.13974955       0.61153418 </v>
    <v>       0.91532979       0.65673109       0.61474411 </v>
    <v>       0.00000000       0.00000000       0.75492797 </v>
    <v>       0.00000000       0.50000000       0.75492797 </v>
    <v>       0.50000000       0.00000000       0.75492797 </v>
    <v>       0.49999999       0.50000000       0.75492797 </v>
    <v>       0.25000050       0.25000000       0.75493902 </v>
    <v>       0.25000051       0.74999997       0.75493902 </v>
    <v>       0.75000047       0.25000000       0.75493902 </v>
    <v>       0.75000046       0.74999997       0.75493902 </v>
    <v>       0.13579050       0.11421000       0.70478299 </v>
    <v>       0.13579050       0.61420998       0.70478299 </v>
    <v>       0.63579045       0.11421000       0.70478299 </v>
    <v>       0.63579049       0.61420998       0.70478299 </v>
    <v>       0.36420952       0.38578999       0.70478299 </v>
    <v>       0.36420950       0.88578996       0.70478299 </v>
    <v>       0.86420954       0.38578999       0.70478299 </v>
    <v>       0.86420953       0.88578996       0.70478299 </v>
    <v>       0.11421799       0.36421899       0.70478098 </v>
    <v>       0.11421799       0.86421899       0.70478098 </v>
    <v>       0.61421800       0.36421899       0.70478098 </v>
    <v>       0.61421799       0.86421899       0.70478098 </v>
    <v>       0.38578201       0.13578149       0.70478202 </v>
    <v>       0.38578200       0.63578149       0.70478202 </v>
    <v>       0.88578199       0.13578149       0.70478202 </v>
    <v>       0.88578203       0.63578149       0.70478202 </v>
    <v>       0.13466700       0.11533200       0.80125603 </v>
    <v>       0.13466699       0.61533199       0.80125603 </v>
    <v>       0.63466699       0.11533200       0.80125603 </v>
    <v>       0.63466698       0.61533199       0.80125603 </v>
    <v>       0.36533300       0.38466799       0.80125603 </v>
    <v>       0.36533299       0.88466796       0.80125603 </v>
    <v>       0.86533295       0.38466799       0.80125603 </v>
    <v>       0.86533294       0.88466796       0.80125603 </v>
    <v>       0.11532850       0.36533700       0.80126500 </v>
    <v>       0.11532850       0.86533698       0.80126500 </v>
    <v>       0.61532850       0.36533700       0.80126500 </v>
    <v>       0.61532849       0.86533698       0.80126500 </v>
    <v>       0.38467151       0.13466300       0.80126500 </v>
    <v>       0.38467150       0.63466297       0.80126500 </v>
    <v>       0.88467149       0.13466300       0.80126500 </v>
    <v>       0.88467153       0.63466297       0.80126500 </v>
    <v>       0.99906669       0.00215078       0.60431264 </v>
    <v>       0.00676719       0.50123679       0.60429726 </v>
    <v>       0.50206495       0.00568811       0.60255545 </v>
    <v>       0.49517600       0.49566932       0.60643733 </v>
    <v>       0.24642692       0.24713071       0.60247017 </v>
    <v>       0.24905108       0.74932337       0.60160104 </v>
    <v>       0.74620181       0.24739998       0.60467697 </v>
    <v>       0.74790666       0.75724561       0.60381358 </v>
    <v>       0.00000050       0.00000050       0.70482896 </v>
    <v>       0.00000050       0.50000048       0.70482896 </v>
    <v>       0.50000048       0.00000050       0.70482896 </v>
    <v>       0.50000046       0.50000048       0.70482896 </v>
    <v>       0.24999999       0.24999947       0.70482499 </v>
    <v>       0.25000001       0.74999950       0.70482499 </v>
    <v>       0.74999999       0.24999947       0.70482499 </v>
    <v>       0.74999998       0.74999950       0.70482499 </v>
    <v>       0.00000000       0.00000000       0.80731797 </v>
    <v>       0.00000000       0.50000000       0.80731797 </v>
    <v>       0.50000000       0.00000000       0.80731797 </v>
    <v>       0.49999999       0.50000000       0.80731797 </v>
    <v>       0.24999999       0.25000000       0.80731797 </v>
    <v>       0.25000001       0.74999997       0.80731797 </v>
    <v>       0.74999999       0.25000000       0.80731797 </v>
    <v>       0.74999998       0.74999997       0.80731797 </v>
   </varray>
  </structure>
  <varray name="primitive_index" >
   <v type="int" >        1 </v>
   <v type="int" >        2 </v>
   <v type="int" >        3 </v>
   <v type="int" >        4 </v>
   <v type="int" >        5 </v>
   <v type="int" >        6 </v>
   <v type="int" >        7 </v>
   <v type="int" >        8 </v>
   <v type="int" >        9 </v>
   <v type="int" >       10 </v>
   <v type="int" >       11 </v>
   <v type="int" >       12 </v>
   <v type="int" >       13 </v>
   <v type="int" >       14 </v>
   <v type="int" >       15 </v>
   <v type="int" >       16 </v>
   <v type="int" >       17 </v>
   <v type="int" >       18 </v>
   <v type="int" >       19 </v>
   <v type="int" >       20 </v>
   <v type="int" >       21 </v>
   <v type="int" >       22 </v>
   <v type="int" >       23 </v>
   <v type="int" >       24 </v>
   <v type="int" >       25 </v>
   <v type="int" >       26 </v>
   <v type="int" >       27 </v>
   <v type="int" >       28 </v>
   <v type="int" >       29 </v>
   <v type="int" >       30 </v>
   <v type="int" >       31 </v>
   <v type="int" >       32 </v>
   <v type="int" >       33 </v>
   <v type="int" >       34 </v>
   <v type="int" >       35 </v>
   <v type="int" >       36 </v>
   <v type="int" >       37 </v>
   <v type="int" >       38 </v>
   <v type="int" >       39 </v>
   <v type="int" >       40 </v>
   <v type="int" >       41 </v>
   <v type="int" >       42 </v>
   <v type="int" >       43 </v>
   <v type="int" >       44 </v>
   <v type="int" >       45 </v>
   <v type="int" >       46 </v>
   <v type="int" >       47 </v>
   <v type="int" >       48 </v>
   <v type="int" >       49 </v>
   <v type="int" >       50 </v>
   <v type="int" >       51 </v>
   <v type="int" >       52 </v>
   <v type="int" >       53 </v>
   <v type="int" >       54 </v>
   <v type="int" >       55 </v>
   <v type="int" >       56 </v>
   <v type="int" >       57 </v>
   <v type="int" >       58 </v>
   <v type="int" >       59 </v>
   <v type="int" >       60 </v>
   <v type="int" >       61 </v>
   <v type="int" >       62 </v>
   <v type="int" >       63 </v>
   <v type="int" >       64 </v>
   <v type="int" >       65 </v>
   <v type="int" >       66 </v>
   <v type="int" >       67 </v>
   <v type="int" >       68 </v>
   <v type="int" >       69 </v>
   <v type="int" >       70 </v>
   <v type="int" >       71 </v>
   <v type="int" >       72 </v>
   <v type="int" >       73 </v>
   <v type="int" >       74 </v>
   <v type="int" >       75 </v>
   <v type="int" >       76 </v>
   <v type="int" >       77 </v>
   <v type="int" >       78 </v>
   <v type="int" >       79 </v>
   <v type="int" >       80 </v>
   <v type="int" >       81 </v>
   <v type="int" >       82 </v>
   <v type="int" >       83 </v>
   <v type="int" >       84 </v>
   <v type="int" >       85 </v>
   <v type="int" >       86 </v>
   <v type="int" >       87 </v>
   <v type="int" >       88 </v>
   <v type="int" >       89 </v>
   <v type="int" >       90 </v>
   <v type="int" >       91 </v>
   <v type="int" >       92 </v>
   <v type="int" >       93 </v>
   <v type="int" >       94 </v>
   <v type="int" >       95 </v>
   <v type="int" >       96 </v>
   <v type="int" >       97 </v>
   <v type="int" >       98 </v>
   <v type="int" >       99 </v>
   <v type="int" >      100 </v>
   <v type="int" >      101 </v>
   <v type="int" >      102 </v>
   <v type="int" >      103 </v>
   <v type="int" >      104 </v>
   <v type="int" >      105 </v>
   <v type="int" >      106 </v>
   <v type="int" >      107 </v>
   <v type="int" >      108 </v>
   <v type="int" >      109 </v>
   <v type="int" >      110 </v>
   <v type="int" >      111 </v>
   <v type="int" >      112 </v>
   <v type="int" >      113 </v>
   <v type="int" >      114 </v>
   <v type="int" >      115 </v>
   <v type="int" >      116 </v>
   <v type="int" >      117 </v>
   <v type="int" >      118 </v>
   <v type="int" >      119 </v>
   <v type="int" >      120 </v>
   <v type="int" >      121 </v>
   <v type="int" >      122 </v>
   <v type="int" >      123 </v>
   <v type="int" >      124 </v>
   <v type="int" >      125 </v>
   <v type="int" >      126 </v>
   <v type="int" >      127 </v>
   <v type="int" >      128 </v>
   <v type="int" >      129 </v>
   <v type="int" >      130 </v>
   <v type="int" >      131 </v>
   <v type="int" >      132 </v>
   <v type="int" >      133 </v>
   <v type="int" >      134 </v>
   <v type="int" >      135 </v>
   <v type="int" >      136 </v>
   <v type="int" >      137 </v>
   <v type="int" >      138 </v>
   <v type="int" >      139 </v>
   <v type="int" >      140 </v>
   <v type="int" >      141 </v>
   <v type="int" >      142 </v>
   <v type="int" >      143 </v>
   <v type="int" >      144 </v>
   <v type="int" >      145 </v>
   <v type="int" >      146 </v>
   <v type="int" >      147 </v>
   <v type="int" >      148 </v>
   <v type="int" >      149 </v>
   <v type="int" >      150 </v>
   <v type="int" >      151 </v>
   <v type="int" >      152 </v>
   <v type="int" >      153 </v>
   <v type="int" >      154 </v>
   <v type="int" >      155 </v>
   <v type="int" >      156 </v>
   <v type="int" >      157 </v>
   <v type="int" >      158 </v>
   <v type="int" >      159 </v>
   <v type="int" >      160 </v>
   <v type="int" >      161 </v>
   <v type="int" >      162 </v>
   <v type="int" >      163 </v>
   <v type="int" >      164 </v>
   <v type="int" >      165 </v>
   <v type="int" >      166 </v>
   <v type="int" >      167 </v>
   <v type="int" >      168 </v>
   <v type="int" >      169 </v>
   <v type="int" >      170 </v>
   <v type="int" >      171 </v>
   <v type="int" >      172 </v>
   <v type="int" >      173 </v>
   <v type="int" >      174 </v>
   <v type="int" >      175 </v>
   <v type="int" >      176 </v>
   <v type="int" >      177 </v>
   <v type="int" >      178 </v>
   <v type="int" >      179 </v>
   <v type="int" >      180 </v>
   <v type="int" >      181 </v>
   <v type="int" >      182 </v>
   <v type="int" >      183 </v>
   <v type="int" >      184 </v>
   <v type="int" >      185 </v>
   <v type="int" >      186 </v>
   <v type="int" >      187 </v>
   <v type="int" >      188 </v>
   <v type="int" >      189 </v>
   <v type="int" >      190 </v>
   <v type="int" >      191 </v>
   <v type="int" >      192 </v>
   <v type="int" >      193 </v>
   <v type="int" >      194 </v>
   <v type="int" >      195 </v>
   <v type="int" >      196 </v>
   <v type="int" >      197 </v>
   <v type="int" >      198 </v>
   <v type="int" >      199 </v>
   <v type="int" >      200 </v>
   <v type="int" >      201 </v>
   <v type="int" >      202 </v>
   <v type="int" >      203 </v>
   <v type="int" >      204 </v>
   <v type="int" >      205 </v>
   <v type="int" >      206 </v>
   <v type="int" >      207 </v>
   <v type="int" >      208 </v>
   <v type="int" >      209 </v>
   <v type="int" >      210 </v>
   <v type="int" >      211 </v>
   <v type="int" >      212 </v>
   <v type="int" >      213 </v>
   <v type="int" >      214 </v>
   <v type="int" >      215 </v>
   <v type="int" >      216 </v>
   <v type="int" >      217 </v>
   <v type="int" >      218 </v>
   <v type="int" >      219 </v>
   <v type="int" >      220 </v>
   <v type="int" >      221 </v>
   <v type="int" >      222 </v>
   <v type="int" >      223 </v>
   <v type="int" >      224 </v>
   <v type="int" >      225 </v>
   <v type="int" >      226 </v>
   <v type="int" >      227 </v>
   <v type="int" >      228 </v>
   <v type="int" >      229 </v>
   <v type="int" >      230 </v>
   <v type="int" >      231 </v>
   <v type="int" >      232 </v>
   <v type="int" >      233 </v>
   <v type="int" >      234 </v>
   <v type="int" >      235 </v>
   <v type="int" >      236 </v>
   <v type="int" >      237 </v>
   <v type="int" >      238 </v>
   <v type="int" >      239 </v>
   <v type="int" >      240 </v>
   <v type="int" >      241 </v>
   <v type="int" >      242 </v>
   <v type="int" >      243 </v>
   <v type="int" >      244 </v>
   <v type="int" >      245 </v>
   <v type="int" >      246 </v>
   <v type="int" >      247 </v>
   <v type="int" >      248 </v>
   <v type="int" >      249 </v>
   <v type="int" >      250 </v>
   <v type="int" >      251 </v>
   <v type="int" >      252 </v>
   <v type="int" >      253 </v>
   <v type="int" >      254 </v>
   <v type="int" >      255 </v>
   <v type="int" >      256 </v>
   <v type="int" >      257 </v>
   <v type="int" >      258 </v>
   <v type="int" >      259 </v>
   <v type="int" >      260 </v>
   <v type="int" >      261 </v>
   <v type="int" >      262 </v>
   <v type="int" >      263 </v>
   <v type="int" >      264 </v>
   <v type="int" >      265 </v>
   <v type="int" >      266 </v>
   <v type="int" >      267 </v>
   <v type="int" >      268 </v>
   <v type="int" >      269 </v>
   <v type="int" >      270 </v>
   <v type="int" >      271 </v>
   <v type="int" >      272 </v>
   <v type="int" >      273 </v>
   <v type="int" >      274 </v>
   <v type="int" >      275 </v>
   <v type="int" >      276 </v>
   <v type="int" >      277 </v>
   <v type="int" >      278 </v>
   <v type="int" >      279 </v>
   <v type="int" >      280 </v>
   <v type="int" >      281 </v>
   <v type="int" >      282 </v>
   <v type="int" >      283 </v>
   <v type="int" >      284 </v>
   <v type="int" >      285 </v>
   <v type="int" >      286 </v>
   <v type="int" >      287 </v>
   <v type="int" >      288 </v>
   <v type="int" >      289 </v>
   <v type="int" >      290 </v>
   <v type="int" >      291 </v>
   <v type="int" >      292 </v>
   <v type="int" >      293 </v>
   <v type="int" >      294 </v>
   <v type="int" >      295 </v>
   <v type="int" >      296 </v>
   <v type="int" >      297 </v>
   <v type="int" >      298 </v>
   <v type="int" >      299 </v>
   <v type="int" >      300 </v>
   <v type="int" >      301 </v>
   <v type="int" >      302 </v>
   <v type="int" >      303 </v>
   <v type="int" >      304 </v>
   <v type="int" >      305 </v>
   <v type="int" >      306 </v>
   <v type="int" >      307 </v>
   <v type="int" >      308 </v>
   <v type="int" >      309 </v>
   <v type="int" >      310 </v>
   <v type="int" >      311 </v>
   <v type="int" >      312 </v>
   <v type="int" >      313 </v>
   <v type="int" >      314 </v>
   <v type="int" >      315 </v>
   <v type="int" >      316 </v>
   <v type="int" >      317 </v>
   <v type="int" >      318 </v>
   <v type="int" >      319 </v>
   <v type="int" >      320 </v>
   <v type="int" >      321 </v>
   <v type="int" >      322 </v>
   <v type="int" >      323 </v>
   <v type="int" >      324 </v>
   <v type="int" >      325 </v>
  </varray>
 </primitive_cell>
 <kpoints>
  <generation param="Gamma">
   <v type="int" name="divisions">       3        3        1 </v>
   <v name="usershift">      0.00000000       0.00000000       0.00000000 </v>
   <v name="genvec1">      0.33333333       0.00000000       0.00000000 </v>
   <v name="genvec2">      0.00000000       0.33333333       0.00000000 </v>
   <v name="genvec3">      0.00000000       0.00000000       1.00000000 </v>
   <v name="shift">      0.00000000       0.00000000       0.00000000 </v>
  </generation>
  <varray name="kpointlist" >
   <v>       0.00000000       0.00000000       0.00000000 </v>
   <v>       0.33333333       0.00000000       0.00000000 </v>
   <v>       0.00000000       0.33333333       0.00000000 </v>
   <v>       0.33333333       0.33333333       0.00000000 </v>
   <v>      -0.33333333       0.33333333       0.00000000 </v>
  </varray>
  <varray name="weights" >
   <v>       0.11111111 </v>
   <v>       0.22222222 </v>
   <v>       0.22222222 </v>
   <v>       0.22222222 </v>
   <v>       0.22222222 </v>
  </varray>
 </kpoints>
 <parameters>
  <separator name="general" >
   <i type="string" name="SYSTEM">PSC</i>
   <i type="logical" name="LCOMPAT"> F  </i>
  </separator>
  <separator name="electronic" >
   <i type="string" name="PREC">normal</i>
   <i name="ENMAX">    500.00000000</i>
   <i name="ENAUG">    644.87300000</i>
   <i name="EDIFF">      0.00010000</i>
   <i type="int" name="IALGO">    38</i>
   <i type="int" name="IWAVPR">    10</i>
   <i type="int" name="NBANDS">   732</i>
   <i type="int" name="NBANDSLOW">    -1</i>
   <i type="int" name="NBANDSHIGH">    -1</i>
   <i name="NELECT">   1134.00000000</i>
   <i type="int" name="TURBO">     0</i>
   <i type="int" name="IRESTART">     0</i>
   <i type="int" name="NREBOOT">     0</i>
   <i type="int" name="NMIN">     0</i>
   <i name="EREF">      0.00000000</i>
   <separator name="electronic smearing" >
    <i type="int" name="ISMEAR">     0</i>
    <i name="SIGMA">      0.05000000</i>
    <i name="KSPACING">      0.50000000</i>
    <i type="logical" name="KGAMMA"> T  </i>
    <i type="logical" name="KBLOWUP"> T  </i>
   </separator>
   <separator name="electronic projectors" >
    <i type="logical" name="LREAL"> T  </i>
    <v name="ROPT">     -0.00050000     -0.00050000     -0.00050000     -0.00050000     -0.00050000</v>
    <i type="int" name="LMAXPAW">  -100</i>
    <i type="int" name="LMAXMIX">     2</i>
    <i type="logical" name="NLSPLINE"> F  </i>
   </separator>
   <separator name="electronic startup" >
    <i type="int" name="ISTART">     0</i>
    <i type="int" name="ICHARG">     1</i>
    <i type="int" name="INIWAV">     1</i>
   </separator>
   <separator name="electronic spin" >
    <i type="int" name="ISPIN">     1</i>
    <i type="logical" name="LNONCOLLINEAR"> F  </i>
    <v name="MAGMOM">      1.00000000      1.00000000      1.00000000      1.00000000      1.00000000      1.00000000      1.00000000      1.00000000      1.00000000      1.00000000      1.00000000      1.00000000      1.00000000      1.00000000      1.00000000      1.00000000      1.00000000      1.00000000      1.00000000      1.00000000
      1.00000000      1.00000000      1.00000000      1.00000000      1.00000000      1.00000000      1.00000000      1.00000000      1.00000000      1.00000000      1.00000000      1.00000000      1.00000000      1.00000000      1.00000000      1.00000000      1.00000000      1.00000000      1.00000000      1.00000000
      1.00000000      1.00000000      1.00000000      1.00000000      1.00000000      1.00000000      1.00000000      1.00000000      1.00000000      1.00000000      1.00000000      1.00000000      1.00000000      1.00000000      1.00000000      1.00000000      1.00000000      1.00000000      1.00000000      1.00000000
      1.00000000      1.00000000      1.00000000      1.00000000      1.00000000      1.00000000      1.00000000      1.00000000      1.00000000      1.00000000      1.00000000      1.00000000      1.00000000      1.00000000      1.00000000      1.00000000      1.00000000      1.00000000      1.00000000      1.00000000
      1.00000000      1.00000000      1.00000000      1.00000000      1.00000000      1.00000000      1.00000000      1.00000000      1.00000000      1.00000000      1.00000000      1.00000000      1.00000000      1.00000000      1.00000000      1.00000000      1.00000000      1.00000000      1.00000000      1.00000000
      1.00000000      1.00000000      1.00000000      1.00000000      1.00000000      1.00000000      1.00000000      1.00000000      1.00000000      1.00000000      1.00000000      1.00000000      1.00000000      1.00000000      1.00000000      1.00000000      1.00000000      1.00000000      1.00000000      1.00000000
      1.00000000      1.00000000      1.00000000      1.00000000      1.00000000      1.00000000      1.00000000      1.00000000      1.00000000      1.00000000      1.00000000      1.00000000      1.00000000      1.00000000      1.00000000      1.00000000      1.00000000      1.00000000      1.00000000      1.00000000
      1.00000000      1.00000000      1.00000000      1.00000000      1.00000000      1.00000000      1.00000000      1.00000000      1.00000000      1.00000000      1.00000000      1.00000000      1.00000000      1.00000000      1.00000000      1.00000000      1.00000000      1.00000000      1.00000000      1.00000000
      1.00000000      1.00000000      1.00000000      1.00000000      1.00000000      1.00000000      1.00000000      1.00000000      1.00000000      1.00000000      1.00000000      1.00000000      1.00000000      1.00000000      1.00000000      1.00000000      1.00000000      1.00000000      1.00000000      1.00000000
      1.00000000      1.00000000      1.00000000      1.00000000      1.00000000      1.00000000      1.00000000      1.00000000      1.00000000      1.00000000      1.00000000      1.00000000      1.00000000      1.00000000      1.00000000      1.00000000      1.00000000      1.00000000      1.00000000      1.00000000
      1.00000000      1.00000000      1.00000000      1.00000000      1.00000000      1.00000000      1.00000000      1.00000000      1.00000000      1.00000000      1.00000000      1.00000000      1.00000000      1.00000000      1.00000000      1.00000000      1.00000000      1.00000000      1.00000000      1.00000000
      1.00000000      1.00000000      1.00000000      1.00000000      1.00000000      1.00000000      1.00000000      1.00000000      1.00000000      1.00000000      1.00000000      1.00000000      1.00000000      1.00000000      1.00000000      1.00000000      1.00000000      1.00000000      1.00000000      1.00000000
      1.00000000      1.00000000      1.00000000      1.00000000      1.00000000      1.00000000      1.00000000      1.00000000      1.00000000      1.00000000      1.00000000      1.00000000      1.00000000      1.00000000      1.00000000      1.00000000      1.00000000      1.00000000      1.00000000      1.00000000
      1.00000000      1.00000000      1.00000000      1.00000000      1.00000000      1.00000000      1.00000000      1.00000000      1.00000000      1.00000000      1.00000000      1.00000000      1.00000000      1.00000000      1.00000000      1.00000000      1.00000000      1.00000000      1.00000000      1.00000000
      1.00000000      1.00000000      1.00000000      1.00000000      1.00000000      1.00000000      1.00000000      1.00000000      1.00000000      1.00000000      1.00000000      1.00000000      1.00000000      1.00000000      1.00000000      1.00000000      1.00000000      1.00000000      1.00000000      1.00000000
      1.00000000      1.00000000      1.00000000      1.00000000      1.00000000      1.00000000      1.00000000      1.00000000      1.00000000      1.00000000      1.00000000      1.00000000      1.00000000      1.00000000      1.00000000      1.00000000      1.00000000      1.00000000      1.00000000      1.00000000
      1.00000000      1.00000000      1.00000000      1.00000000      1.00000000</v>
    <i name="NUPDOWN">     -1.00000000</i>
    <i type="logical" name="LSORBIT"> F  </i>
    <v name="SAXIS">      0.00000000      0.00000000      1.00000000</v>
    <i type="logical" name="LSPIRAL"> F  </i>
    <v name="QSPIRAL">      0.00000000      0.00000000      0.00000000</v>
    <i type="logical" name="LZEROZ"> F  </i>
   </separator>
   <separator name="electronic exchange-correlation" >
    <i type="logical" name="LASPH"> F  </i>
    <i type="logical" name="LMETAGGA"> F  </i>
   </separator>
   <separator name="electronic convergence" >
    <i type="int" name="NELM">   600</i>
    <i type="int" name="NELMDL">     0</i>
    <i type="int" name="NELMIN">     2</i>
    <i name="ENINI">    500.00000000</i>
    <separator name="electronic convergence detail" >
     <i type="logical" name="LDIAG"> T  </i>
     <i type="logical" name="LSUBROT"> F  </i>
     <i name="WEIMIN">      0.00000000</i>
     <i name="EBREAK">      0.00000003</i>
     <i name="DEPER">      0.30000000</i>
     <i type="int" name="NRMM">     4</i>
     <i name="TIME">      0.40000000</i>
    </separator>
   </separator>
   <separator name="electronic mixer" >
    <i name="AMIX">      0.40000000</i>
    <i name="BMIX">      0.01000000</i>
    <i name="AMIN">      0.01000000</i>
    <i name="AMIX_MAG">      1.60000000</i>
    <i name="BMIX_MAG">      0.01000000</i>
    <separator name="electronic mixer details" >
     <i type="int" name="IMIX">     4</i>
     <i type="logical" name="MIXFIRST"> F  </i>
     <i type="int" name="MAXMIX">   -45</i>
     <i name="WC">    100.00000000</i>
     <i type="int" name="INIMIX">     1</i>
     <i type="int" name="MIXPRE">     1</i>
     <i type="int" name="MREMOVE">     5</i>
    </separator>
   </separator>
   <separator name="electronic dipolcorrection" >
    <i type="logical" name="LDIPOL"> T  </i>
    <i type="logical" name="LMONO"> F  </i>
    <i type="int" name="IDIPOL">     3</i>
    <i name="EPSILON">      1.00000000</i>
    <v name="DIPOL">   -100.00000000   -100.00000000   -100.00000000</v>
    <i name="EFIELD">      0.00000000</i>
   </separator>
  </separator>
  <separator name="grids" >
   <i type="int" name="NGX">   100</i>
   <i type="int" name="NGY">   100</i>
   <i type="int" name="NGZ">   350</i>
   <i type="int" name="NGXF">   200</i>
   <i type="int" name="NGYF">   200</i>
   <i type="int" name="NGZF">   700</i>
   <i type="logical" name="ADDGRID"> F  </i>
  </separator>
  <separator name="ionic" >
   <i type="int" name="NSW">     0</i>
   <i type="int" name="IBRION">    -1</i>
   <i type="int" name="MDALGO">     0</i>
   <i type="int" name="ISIF">     2</i>
   <i name="PSTRESS">      0.00000000</i>
   <i name="EDIFFG">      0.00100000</i>
   <i type="int" name="NFREE">     0</i>
   <i name="POTIM">      0.50000000</i>
   <i name="SMASS">     -3.00000000</i>
   <i name="SCALEE">      1.00000000</i>
  </separator>
  <separator name="ionic md" >
   <i name="TEBEG">      0.00010000</i>
   <i name="TEEND">      0.00010000</i>
   <i type="int" name="NBLOCK">     1</i>
   <i type="int" name="KBLOCK">     1</i>
   <i type="int" name="NPACO">   256</i>
   <i name="APACO">     16.00000000</i>
  </separator>
  <separator name="symmetry" >
   <i type="int" name="ISYM">     0</i>
   <i name="SYMPREC">      0.00001000</i>
  </separator>
  <separator name="dos" >
   <i type="int" name="LORBIT">     0</i>
   <v name="RWIGS">     -1.00000000     -1.00000000     -1.00000000     -1.00000000     -1.00000000</v>
   <i type="int" name="NEDOS">   301</i>
   <i name="EMIN">     10.00000000</i>
   <i name="EMAX">    -10.00000000</i>
   <i name="EFERMI">      0.00000000</i>
  </separator>
  <separator name="writing" >
   <i type="int" name="NWRITE">     2</i>
   <i type="logical" name="LWAVE"> F  </i>
   <i type="logical" name="LDOWNSAMPLE"> F  </i>
   <i type="logical" name="LCHARG"> T  </i>
   <i type="logical" name="LPARD"> F  </i>
   <i type="logical" name="LVTOT"> T  </i>
   <i type="logical" name="LVHAR"> F  </i>
   <i type="logical" name="LELF"> F  </i>
   <i type="logical" name="LOPTICS"> F  </i>
   <v name="STM">      0.00000000      0.00000000      0.00000000      0.00000000      0.00000000      0.00000000      0.00000000</v>
  </separator>
  <separator name="performance" >
   <i type="int" name="NPAR">     4</i>
   <i type="int" name="NSIM">     4</i>
   <i type="int" name="NBLK">    -1</i>
   <i type="logical" name="LPLANE"> T  </i>
   <i type="logical" name="LSCALAPACK"> T  </i>
   <i type="logical" name="LSCAAWARE"> F  </i>
   <i type="logical" name="LSCALU"> F  </i>
   <i type="logical" name="LASYNC"> F  </i>
   <i type="logical" name="LORBITALREAL"> F  </i>
  </separator>
  <separator name="miscellaneous" >
   <i type="int" name="IDIOT">     3</i>
   <i type="int" name="PHON_NSTRUCT">    -1</i>
   <i type="logical" name="LMUSIC"> F  </i>
   <v name="POMASS">      1.00000000     12.01100000     14.00100000    126.90400000    207.20000000</v>
   <v name="DARWINR">      0.00000000      0.00000000      0.00000000      0.00000000      0.00000000</v>
   <v name="DARWINV">      1.00000000      1.00000000      1.00000000      1.00000000      1.00000000</v>
   <i type="logical" name="LCORR"> T  </i>
  </separator>
  <i type="logical" name="GGA_COMPAT"> F  </i>
  <i type="logical" name="LBERRY"> F  </i>
  <i type="int" name="ICORELEVEL">     0</i>
  <i type="logical" name="LDAU"> F  </i>
  <i type="int" name="I_CONSTRAINED_M">     0</i>
  <separator name="electronic exchange-correlation" >
   <i type="string" name="GGA">--</i>
   <i type="int" name="VOSKOWN">     0</i>
   <i type="logical" name="LHFCALC"> F  </i>
   <i type="string" name="PRECFOCK"></i>
   <i type="logical" name="LSYMGRAD"> F  </i>
   <i type="logical" name="LHFONE"> F  </i>
   <i type="logical" name="LRHFCALC"> F  </i>
   <i type="logical" name="LTHOMAS"> F  </i>
   <i type="logical" name="LMODELHF"> F  </i>
   <i type="logical" name="LFOCKACE"> F  </i>
   <i name="ENCUT4O">     -1.00000000</i>
   <i type="int" name="EXXOEP">     0</i>
   <i type="int" name="FOURORBIT">     0</i>
   <i name="AEXX">      0.00000000</i>
   <i name="HFALPHA">      0.00000000</i>
   <i name="MCALPHA">      0.00000000</i>
   <i name="ALDAX">      1.00000000</i>
   <i name="AGGAX">      1.00000000</i>
   <i name="ALDAC">      1.00000000</i>
   <i name="AGGAC">      1.00000000</i>
   <i type="int" name="NKREDX">     1</i>
   <i type="int" name="NKREDY">     1</i>
   <i type="int" name="NKREDZ">     1</i>
   <i type="logical" name="SHIFTRED"> F  </i>
   <i type="logical" name="ODDONLY"> F  </i>
   <i type="logical" name="EVENONLY"> F  </i>
   <i type="int" name="LMAXFOCK">     0</i>
   <i type="int" name="NMAXFOCKAE">     0</i>
   <i type="logical" name="LFOCKAEDFT"> F  </i>
   <i name="HFSCREEN">      0.00000000</i>
   <i name="HFSCREENC">      0.00000000</i>
   <i type="int" name="NBANDSGWLOW">     0</i>
  </separator>
  <separator name="vdW DFT" >
   <i type="logical" name="LUSE_VDW"> F  </i>
   <i name="Zab_VDW">     -0.84910000</i>
   <i name="PARAM1">      0.12340000</i>
   <i name="PARAM2">      1.00000000</i>
   <i name="PARAM3">      0.00000000</i>
  </separator>
  <separator name="model GW" >
   <i type="int" name="MODEL_GW">     0</i>
   <i name="MODEL_EPS0">     37.63423484</i>
   <i name="MODEL_ALPHA">      1.00000000</i>
  </separator>
  <separator name="linear response parameters" >
   <i type="logical" name="LEPSILON"> F  </i>
   <i type="logical" name="LRPA"> F  </i>
   <i type="logical" name="LNABLA"> F  </i>
   <i type="logical" name="LVEL"> F  </i>
   <i type="int" name="KINTER">     0</i>
   <i name="CSHIFT">      0.10000000</i>
   <i name="OMEGAMAX">     -1.00000000</i>
   <i name="DEG_THRESHOLD">      0.00200000</i>
   <i name="RTIME">     -0.10000000</i>
   <i name="WPLASMAI">      0.00000000</i>
   <v name="DFIELD">      0.00000000      0.00000000      0.00000000</v>
   <v name="WPLASMA">      0.00000000      0.00000000      0.00000000      0.00000000      0.00000000      0.00000000      0.00000000      0.00000000      0.00000000</v>
  </separator>
  <separator name="orbital magnetization" >
   <i type="logical" name="NUCIND"> F  </i>
   <v name="MAGPOS">      0.00000000      0.00000000      0.00000000</v>
   <i type="logical" name="LNICSALL"> T  </i>
   <i type="logical" name="ORBITALMAG"> F  </i>
   <i type="logical" name="LMAGBLOCH"> F  </i>
   <i type="logical" name="LCHIMAG"> F  </i>
   <i type="logical" name="LGAUGE"> T  </i>
   <i type="int" name="MAGATOM">     0</i>
   <v name="MAGDIPOL">      0.00000000      0.00000000      0.00000000</v>
   <v name="AVECCONST">      0.00000000      0.00000000      0.00000000</v>
  </separator>
  <separator name="response functions" >
   <i type="logical" name="LFINITE_TEMPERATURE"> F  </i>
   <i type="logical" name="LADDER"> F  </i>
   <i type="logical" name="LRPAFORCE"> F  </i>
   <i type="logical" name="LFXC"> F  </i>
   <i type="logical" name="LHARTREE"> T  </i>
   <i type="int" name="IBSE">     0</i>
   <v type="int" name="KPOINT">    -1     0     0     0</v>
   <i type="logical" name="LTCTC"> F  </i>
   <i type="logical" name="LTCTE"> F  </i>
   <i type="logical" name="LTETE"> F  </i>
   <i type="logical" name="LTRIPLET"> F  </i>
   <i type="logical" name="LFXCEPS"> F  </i>
   <i type="logical" name="LFXHEG"> F  </i>
   <i type="int" name="NATURALO">     2</i>
   <i type="logical" name="LHOLEGF"> F  </i>
   <i type="logical" name="L2ORDER"> F  </i>
   <i type="logical" name="LDMP1"> F  </i>
   <i type="logical" name="LMP2LT"> F  </i>
   <i type="logical" name="LSMP2LT"> F  </i>
   <i type="logical" name="LGWLF"> F  </i>
   <i name="ENCUTGW">     -2.00000000</i>
   <i name="ENCUTGWSOFT">     -2.00000000</i>
   <i name="ENCUTLF">     -1.00000000</i>
   <i type="logical" name="LESF_SPLINES"> F  </i>
   <i type="int" name="LMAXMP2">    -1</i>
   <i name="SCISSOR">      0.00000000</i>
   <i type="int" name="NOMEGA">     0</i>
   <i type="int" name="NOMEGAR">     0</i>
   <i type="int" name="NBANDSGW">    -1</i>
   <i type="int" name="NBANDSO">    -1</i>
   <i type="int" name="NBANDSV">    -1</i>
   <i type="int" name="NELM">   600</i>
   <i type="int" name="NELMHF">     1</i>
   <i type="int" name="DIM">     3</i>
   <i type="int" name="IESPILON">     4</i>
   <i type="int" name="ANTIRES">     0</i>
   <i name="OMEGAMAX">    -30.00000000</i>
   <i name="OMEGAMIN">    -30.00000000</i>
   <i name="OMEGATL">   -200.00000000</i>
   <i type="int" name="OMEGAGRID">     0</i>
   <i name="CSHIFT">     -0.10000000</i>
   <i type="logical" name="LSELFENERGY"> F  </i>
   <i type="logical" name="LSPECTRAL"> F  </i>
   <i type="logical" name="LSPECTRALGW"> F  </i>
   <i type="logical" name="LSINGLES"> F  </i>
   <i type="logical" name="LFERMIGW"> F  </i>
   <i type="logical" name="ODDONLYGW"> F  </i>
   <i type="logical" name="EVENONLYGW"> F  </i>
   <i type="int" name="NKREDLFX">     1</i>
   <i type="int" name="NKREDLFY">     1</i>
   <i type="int" name="NKREDLFZ">     1</i>
   <i type="int" name="MAXMEM">  2800</i>
   <i type="int" name="TELESCOPE">     0</i>
   <i type="int" name="NTAUPAR">    -1</i>
   <i type="int" name="NOMEGAPAR">    -1</i>
   <i name="DAMP_NEWTON">      0.80000001</i>
   <i name="LAMBDA">      1.00000000</i>
  </separator>
  <separator name="External order field" >
   <i name="OFIELD_KAPPA">      0.00000000</i>
   <v name="OFIELD_K">      0.00000000      0.00000000      0.00000000</v>
   <i name="OFIELD_Q6_NEAR">      0.00000000</i>
   <i name="OFIELD_Q6_FAR">      0.00000000</i>
   <i name="OFIELD_A">      0.00000000</i>
  </separator>
 </parameters>
 <atominfo>
  <atoms>     325 </atoms>
  <types>       5 </types>
  <array name="atoms" >
   <dimension dim="1">ion</dimension>
   <field type="string">element</field>
   <field type="int">atomtype</field>
   <set>
    <rc><c>H </c><c>   1</c></rc>
    <rc><c>H </c><c>   1</c></rc>
    <rc><c>H </c><c>   1</c></rc>
    <rc><c>H </c><c>   1</c></rc>
    <rc><c>H </c><c>   1</c></rc>
    <rc><c>H </c><c>   1</c></rc>
    <rc><c>H </c><c>   1</c></rc>
    <rc><c>H </c><c>   1</c></rc>
    <rc><c>H </c><c>   1</c></rc>
    <rc><c>H </c><c>   1</c></rc>
    <rc><c>H </c><c>   1</c></rc>
    <rc><c>H </c><c>   1</c></rc>
    <rc><c>H </c><c>   1</c></rc>
    <rc><c>H </c><c>   1</c></rc>
    <rc><c>H </c><c>   1</c></rc>
    <rc><c>H </c><c>   1</c></rc>
    <rc><c>H </c><c>   1</c></rc>
    <rc><c>H </c><c>   1</c></rc>
    <rc><c>H </c><c>   1</c></rc>
    <rc><c>H </c><c>   1</c></rc>
    <rc><c>H </c><c>   1</c></rc>
    <rc><c>H </c><c>   1</c></rc>
    <rc><c>H </c><c>   1</c></rc>
    <rc><c>H </c><c>   1</c></rc>
    <rc><c>H </c><c>   1</c></rc>
    <rc><c>H </c><c>   1</c></rc>
    <rc><c>H </c><c>   1</c></rc>
    <rc><c>H </c><c>   1</c></rc>
    <rc><c>H </c><c>   1</c></rc>
    <rc><c>H </c><c>   1</c></rc>
    <rc><c>H </c><c>   1</c></rc>
    <rc><c>H </c><c>   1</c></rc>
    <rc><c>H </c><c>   1</c></rc>
    <rc><c>H </c><c>   1</c></rc>
    <rc><c>H </c><c>   1</c></rc>
    <rc><c>H </c><c>   1</c></rc>
    <rc><c>H </c><c>   1</c></rc>
    <rc><c>H </c><c>   1</c></rc>
    <rc><c>H </c><c>   1</c></rc>
    <rc><c>H </c><c>   1</c></rc>
    <rc><c>H </c><c>   1</c></rc>
    <rc><c>H </c><c>   1</c></rc>
    <rc><c>H </c><c>   1</c></rc>
    <rc><c>H </c><c>   1</c></rc>
    <rc><c>H </c><c>   1</c></rc>
    <rc><c>H </c><c>   1</c></rc>
    <rc><c>H </c><c>   1</c></rc>
    <rc><c>H </c><c>   1</c></rc>
    <rc><c>H </c><c>   1</c></rc>
    <rc><c>H </c><c>   1</c></rc>
    <rc><c>H </c><c>   1</c></rc>
    <rc><c>H </c><c>   1</c></rc>
    <rc><c>H </c><c>   1</c></rc>
    <rc><c>H </c><c>   1</c></rc>
    <rc><c>H </c><c>   1</c></rc>
    <rc><c>H </c><c>   1</c></rc>
    <rc><c>H </c><c>   1</c></rc>
    <rc><c>H </c><c>   1</c></rc>
    <rc><c>H </c><c>   1</c></rc>
    <rc><c>H </c><c>   1</c></rc>
    <rc><c>H </c><c>   1</c></rc>
    <rc><c>H </c><c>   1</c></rc>
    <rc><c>H </c><c>   1</c></rc>
    <rc><c>H </c><c>   1</c></rc>
    <rc><c>H </c><c>   1</c></rc>
    <rc><c>H </c><c>   1</c></rc>
    <rc><c>H </c><c>   1</c></rc>
    <rc><c>H </c><c>   1</c></rc>
    <rc><c>H </c><c>   1</c></rc>
    <rc><c>H </c><c>   1</c></rc>
    <rc><c>H </c><c>   1</c></rc>
    <rc><c>H </c><c>   1</c></rc>
    <rc><c>H </c><c>   1</c></rc>
    <rc><c>H </c><c>   1</c></rc>
    <rc><c>H </c><c>   1</c></rc>
    <rc><c>H </c><c>   1</c></rc>
    <rc><c>H </c><c>   1</c></rc>
    <rc><c>H </c><c>   1</c></rc>
    <rc><c>H </c><c>   1</c></rc>
    <rc><c>H </c><c>   1</c></rc>
    <rc><c>H </c><c>   1</c></rc>
    <rc><c>H </c><c>   1</c></rc>
    <rc><c>H </c><c>   1</c></rc>
    <rc><c>H </c><c>   1</c></rc>
    <rc><c>H </c><c>   1</c></rc>
    <rc><c>H </c><c>   1</c></rc>
    <rc><c>H </c><c>   1</c></rc>
    <rc><c>H </c><c>   1</c></rc>
    <rc><c>H </c><c>   1</c></rc>
    <rc><c>H </c><c>   1</c></rc>
    <rc><c>H </c><c>   1</c></rc>
    <rc><c>H </c><c>   1</c></rc>
    <rc><c>H </c><c>   1</c></rc>
    <rc><c>H </c><c>   1</c></rc>
    <rc><c>H </c><c>   1</c></rc>
    <rc><c>H </c><c>   1</c></rc>
    <rc><c>H </c><c>   1</c></rc>
    <rc><c>H </c><c>   1</c></rc>
    <rc><c>H </c><c>   1</c></rc>
    <rc><c>H </c><c>   1</c></rc>
    <rc><c>H </c><c>   1</c></rc>
    <rc><c>H </c><c>   1</c></rc>
    <rc><c>H </c><c>   1</c></rc>
    <rc><c>H </c><c>   1</c></rc>
    <rc><c>H </c><c>   1</c></rc>
    <rc><c>H </c><c>   1</c></rc>
    <rc><c>H </c><c>   1</c></rc>
    <rc><c>H </c><c>   1</c></rc>
    <rc><c>H </c><c>   1</c></rc>
    <rc><c>H </c><c>   1</c></rc>
    <rc><c>H </c><c>   1</c></rc>
    <rc><c>H </c><c>   1</c></rc>
    <rc><c>H </c><c>   1</c></rc>
    <rc><c>H </c><c>   1</c></rc>
    <rc><c>H </c><c>   1</c></rc>
    <rc><c>H </c><c>   1</c></rc>
    <rc><c>H </c><c>   1</c></rc>
    <rc><c>H </c><c>   1</c></rc>
    <rc><c>H </c><c>   1</c></rc>
    <rc><c>H </c><c>   1</c></rc>
    <rc><c>H </c><c>   1</c></rc>
    <rc><c>H </c><c>   1</c></rc>
    <rc><c>H </c><c>   1</c></rc>
    <rc><c>H </c><c>   1</c></rc>
    <rc><c>H </c><c>   1</c></rc>
    <rc><c>H </c><c>   1</c></rc>
    <rc><c>H </c><c>   1</c></rc>
    <rc><c>H </c><c>   1</c></rc>
    <rc><c>H </c><c>   1</c></rc>
    <rc><c>H </c><c>   1</c></rc>
    <rc><c>H </c><c>   1</c></rc>
    <rc><c>H </c><c>   1</c></rc>
    <rc><c>H </c><c>   1</c></rc>
    <rc><c>H </c><c>   1</c></rc>
    <rc><c>H </c><c>   1</c></rc>
    <rc><c>H </c><c>   1</c></rc>
    <rc><c>H </c><c>   1</c></rc>
    <rc><c>H </c><c>   1</c></rc>
    <rc><c>H </c><c>   1</c></rc>
    <rc><c>H </c><c>   1</c></rc>
    <rc><c>H </c><c>   1</c></rc>
    <rc><c>H </c><c>   1</c></rc>
    <rc><c>H </c><c>   1</c></rc>
    <rc><c>C </c><c>   2</c></rc>
    <rc><c>C </c><c>   2</c></rc>
    <rc><c>C </c><c>   2</c></rc>
    <rc><c>C </c><c>   2</c></rc>
    <rc><c>C </c><c>   2</c></rc>
    <rc><c>C </c><c>   2</c></rc>
    <rc><c>C </c><c>   2</c></rc>
    <rc><c>C </c><c>   2</c></rc>
    <rc><c>C </c><c>   2</c></rc>
    <rc><c>C </c><c>   2</c></rc>
    <rc><c>C </c><c>   2</c></rc>
    <rc><c>C </c><c>   2</c></rc>
    <rc><c>C </c><c>   2</c></rc>
    <rc><c>C </c><c>   2</c></rc>
    <rc><c>C </c><c>   2</c></rc>
    <rc><c>C </c><c>   2</c></rc>
    <rc><c>C </c><c>   2</c></rc>
    <rc><c>C </c><c>   2</c></rc>
    <rc><c>C </c><c>   2</c></rc>
    <rc><c>C </c><c>   2</c></rc>
    <rc><c>C </c><c>   2</c></rc>
    <rc><c>C </c><c>   2</c></rc>
    <rc><c>C </c><c>   2</c></rc>
    <rc><c>C </c><c>   2</c></rc>
    <rc><c>C </c><c>   2</c></rc>
    <rc><c>C </c><c>   2</c></rc>
    <rc><c>C </c><c>   2</c></rc>
    <rc><c>C </c><c>   2</c></rc>
    <rc><c>C </c><c>   2</c></rc>
    <rc><c>C </c><c>   2</c></rc>
    <rc><c>C </c><c>   2</c></rc>
    <rc><c>C </c><c>   2</c></rc>
    <rc><c>C </c><c>   2</c></rc>
    <rc><c>C </c><c>   2</c></rc>
    <rc><c>C </c><c>   2</c></rc>
    <rc><c>C </c><c>   2</c></rc>
    <rc><c>C </c><c>   2</c></rc>
    <rc><c>C </c><c>   2</c></rc>
    <rc><c>C </c><c>   2</c></rc>
    <rc><c>N </c><c>   3</c></rc>
    <rc><c>N </c><c>   3</c></rc>
    <rc><c>N </c><c>   3</c></rc>
    <rc><c>N </c><c>   3</c></rc>
    <rc><c>N </c><c>   3</c></rc>
    <rc><c>N </c><c>   3</c></rc>
    <rc><c>N </c><c>   3</c></rc>
    <rc><c>N </c><c>   3</c></rc>
    <rc><c>N </c><c>   3</c></rc>
    <rc><c>N </c><c>   3</c></rc>
    <rc><c>N </c><c>   3</c></rc>
    <rc><c>N </c><c>   3</c></rc>
    <rc><c>N </c><c>   3</c></rc>
    <rc><c>N </c><c>   3</c></rc>
    <rc><c>N </c><c>   3</c></rc>
    <rc><c>N </c><c>   3</c></rc>
    <rc><c>N </c><c>   3</c></rc>
    <rc><c>N </c><c>   3</c></rc>
    <rc><c>N </c><c>   3</c></rc>
    <rc><c>N </c><c>   3</c></rc>
    <rc><c>N </c><c>   3</c></rc>
    <rc><c>N </c><c>   3</c></rc>
    <rc><c>N </c><c>   3</c></rc>
    <rc><c>N </c><c>   3</c></rc>
    <rc><c>N </c><c>   3</c></rc>
    <rc><c>N </c><c>   3</c></rc>
    <rc><c>N </c><c>   3</c></rc>
    <rc><c>N </c><c>   3</c></rc>
    <rc><c>N </c><c>   3</c></rc>
    <rc><c>N </c><c>   3</c></rc>
    <rc><c>N </c><c>   3</c></rc>
    <rc><c>N </c><c>   3</c></rc>
    <rc><c>N </c><c>   3</c></rc>
    <rc><c>N </c><c>   3</c></rc>
    <rc><c>N </c><c>   3</c></rc>
    <rc><c>N </c><c>   3</c></rc>
    <rc><c>N </c><c>   3</c></rc>
    <rc><c>N </c><c>   3</c></rc>
    <rc><c>N </c><c>   3</c></rc>
    <rc><c>N </c><c>   3</c></rc>
    <rc><c>N </c><c>   3</c></rc>
    <rc><c>N </c><c>   3</c></rc>
    <rc><c>N </c><c>   3</c></rc>
    <rc><c>N </c><c>   3</c></rc>
    <rc><c>N </c><c>   3</c></rc>
    <rc><c>N </c><c>   3</c></rc>
    <rc><c>N </c><c>   3</c></rc>
    <rc><c>I </c><c>   4</c></rc>
    <rc><c>I </c><c>   4</c></rc>
    <rc><c>I </c><c>   4</c></rc>
    <rc><c>I </c><c>   4</c></rc>
    <rc><c>I </c><c>   4</c></rc>
    <rc><c>I </c><c>   4</c></rc>
    <rc><c>I </c><c>   4</c></rc>
    <rc><c>I </c><c>   4</c></rc>
    <rc><c>I </c><c>   4</c></rc>
    <rc><c>I </c><c>   4</c></rc>
    <rc><c>I </c><c>   4</c></rc>
    <rc><c>I </c><c>   4</c></rc>
    <rc><c>I </c><c>   4</c></rc>
    <rc><c>I </c><c>   4</c></rc>
    <rc><c>I </c><c>   4</c></rc>
    <rc><c>I </c><c>   4</c></rc>
    <rc><c>I </c><c>   4</c></rc>
    <rc><c>I </c><c>   4</c></rc>
    <rc><c>I </c><c>   4</c></rc>
    <rc><c>I </c><c>   4</c></rc>
    <rc><c>I </c><c>   4</c></rc>
    <rc><c>I </c><c>   4</c></rc>
    <rc><c>I </c><c>   4</c></rc>
    <rc><c>I </c><c>   4</c></rc>
    <rc><c>I </c><c>   4</c></rc>
    <rc><c>I </c><c>   4</c></rc>
    <rc><c>I </c><c>   4</c></rc>
    <rc><c>I </c><c>   4</c></rc>
    <rc><c>I </c><c>   4</c></rc>
    <rc><c>I </c><c>   4</c></rc>
    <rc><c>I </c><c>   4</c></rc>
    <rc><c>I </c><c>   4</c></rc>
    <rc><c>I </c><c>   4</c></rc>
    <rc><c>I </c><c>   4</c></rc>
    <rc><c>I </c><c>   4</c></rc>
    <rc><c>I </c><c>   4</c></rc>
    <rc><c>I </c><c>   4</c></rc>
    <rc><c>I </c><c>   4</c></rc>
    <rc><c>I </c><c>   4</c></rc>
    <rc><c>I </c><c>   4</c></rc>
    <rc><c>I </c><c>   4</c></rc>
    <rc><c>I </c><c>   4</c></rc>
    <rc><c>I </c><c>   4</c></rc>
    <rc><c>I </c><c>   4</c></rc>
    <rc><c>I </c><c>   4</c></rc>
    <rc><c>I </c><c>   4</c></rc>
    <rc><c>I </c><c>   4</c></rc>
    <rc><c>I </c><c>   4</c></rc>
    <rc><c>I </c><c>   4</c></rc>
    <rc><c>I </c><c>   4</c></rc>
    <rc><c>I </c><c>   4</c></rc>
    <rc><c>I </c><c>   4</c></rc>
    <rc><c>I </c><c>   4</c></rc>
    <rc><c>I </c><c>   4</c></rc>
    <rc><c>I </c><c>   4</c></rc>
    <rc><c>I </c><c>   4</c></rc>
    <rc><c>I </c><c>   4</c></rc>
    <rc><c>I </c><c>   4</c></rc>
    <rc><c>I </c><c>   4</c></rc>
    <rc><c>I </c><c>   4</c></rc>
    <rc><c>I </c><c>   4</c></rc>
    <rc><c>I </c><c>   4</c></rc>
    <rc><c>I </c><c>   4</c></rc>
    <rc><c>I </c><c>   4</c></rc>
    <rc><c>I </c><c>   4</c></rc>
    <rc><c>I </c><c>   4</c></rc>
    <rc><c>I </c><c>   4</c></rc>
    <rc><c>I </c><c>   4</c></rc>
    <rc><c>I </c><c>   4</c></rc>
    <rc><c>I </c><c>   4</c></rc>
    <rc><c>I </c><c>   4</c></rc>
    <rc><c>I </c><c>   4</c></rc>
    <rc><c>Pb</c><c>   5</c></rc>
    <rc><c>Pb</c><c>   5</c></rc>
    <rc><c>Pb</c><c>   5</c></rc>
    <rc><c>Pb</c><c>   5</c></rc>
    <rc><c>Pb</c><c>   5</c></rc>
    <rc><c>Pb</c><c>   5</c></rc>
    <rc><c>Pb</c><c>   5</c></rc>
    <rc><c>Pb</c><c>   5</c></rc>
    <rc><c>Pb</c><c>   5</c></rc>
    <rc><c>Pb</c><c>   5</c></rc>
    <rc><c>Pb</c><c>   5</c></rc>
    <rc><c>Pb</c><c>   5</c></rc>
    <rc><c>Pb</c><c>   5</c></rc>
    <rc><c>Pb</c><c>   5</c></rc>
    <rc><c>Pb</c><c>   5</c></rc>
    <rc><c>Pb</c><c>   5</c></rc>
    <rc><c>Pb</c><c>   5</c></rc>
    <rc><c>Pb</c><c>   5</c></rc>
    <rc><c>Pb</c><c>   5</c></rc>
    <rc><c>Pb</c><c>   5</c></rc>
    <rc><c>Pb</c><c>   5</c></rc>
    <rc><c>Pb</c><c>   5</c></rc>
    <rc><c>Pb</c><c>   5</c></rc>
    <rc><c>Pb</c><c>   5</c></rc>
   </set>
  </array>
  <array name="atomtypes" >
   <dimension dim="1">type</dimension>
   <field type="int">atomspertype</field>
   <field type="string">element</field>
   <field>mass</field>
   <field>valence</field>
   <field type="string">pseudopotential</field>
   <set>
    <rc><c> 143</c><c>H </c><c>      1.00000000</c><c>      1.00000000</c><c>  PAW_PBE H 15Jun2001                   </c></rc>
    <rc><c>  39</c><c>C </c><c>     12.01100000</c><c>      4.00000000</c><c>  PAW_PBE C 08Apr2002                   </c></rc>
    <rc><c>  47</c><c>N </c><c>     14.00100000</c><c>      5.00000000</c><c>  PAW_PBE N 08Apr2002                   </c></rc>
    <rc><c>  72</c><c>I </c><c>    126.90400000</c><c>      7.00000000</c><c>  PAW_PBE I 08Apr2002                   </c></rc>
    <rc><c>  24</c><c>Pb</c><c>    207.20000000</c><c>      4.00000000</c><c>  PAW_PBE Pb 08Apr2002                  </c></rc>
   </set>
  </array>
 </atominfo>
 <structure name="initialpos" >
  <crystal>
   <varray name="basis" >
    <v>      18.06080055       0.00000000       0.00000000 </v>
    <v>      -0.00491865      18.06279945       0.00000000 </v>
    <v>       0.00000000       0.00000000      62.48749924 </v>
   </varray>
   <i name="volume">  20385.21054034 </i>
   <varray name="rec_basis" >
    <v>       0.05536853       0.00001508      -0.00000000 </v>
    <v>       0.00000000       0.05536240       0.00000000 </v>
    <v>       0.00000000      -0.00000000       0.01600320 </v>
   </varray>
  </crystal>
  <varray name="positions" >
   <v>       0.44059444       0.30107552       0.57808645 </v>
   <v>       0.44038557       0.82337875       0.57991189 </v>
   <v>       0.97782140       0.30693374       0.58000877 </v>
   <v>       0.97051414       0.80098777       0.58293910 </v>
   <v>       0.31475405       0.01118602       0.58161499 </v>
   <v>       0.30682167       0.55270663       0.58102570 </v>
   <v>       0.77645936       0.06323641       0.58328134 </v>
   <v>       0.06324079       0.13800731       0.56154573 </v>
   <v>       0.05995000       0.64728262       0.55653191 </v>
   <v>       0.59224547       0.19445839       0.55542335 </v>
   <v>       0.55565841       0.67022191       0.56119635 </v>
   <v>       0.34094352       0.05737946       0.55808245 </v>
   <v>       0.30176123       0.60301006       0.55725996 </v>
   <v>       0.83597361       0.07351037       0.56150122 </v>
   <v>       0.03467004       0.18214967       0.58479629 </v>
   <v>       0.03555796       0.67919741       0.58208707 </v>
   <v>       0.56807863       0.25194591       0.57699450 </v>
   <v>       0.50510379       0.69532257       0.58250188 </v>
   <v>       0.22991364       0.43694418       0.58272990 </v>
   <v>       0.19044453       0.94915044       0.58158941 </v>
   <v>       0.68665890       0.96007707       0.58169990 </v>
   <v>       0.38147791       0.27605258       0.55722577 </v>
   <v>       0.45919550       0.87276102       0.55688403 </v>
   <v>       0.97540157       0.34356091       0.55447766 </v>
   <v>       0.95363391       0.84560526       0.55830381 </v>
   <v>       0.17815656       0.41613132       0.55989031 </v>
   <v>       0.13743885       0.96165401       0.55847028 </v>
   <v>       0.68928494       0.90349481       0.55847285 </v>
   <v>       0.47230888       0.20596482       0.53998392 </v>
   <v>       0.53401412       0.77896675       0.54222338 </v>
   <v>       0.02796247       0.23280817       0.53990163 </v>
   <v>       0.00824875       0.74839566       0.53900826 </v>
   <v>       0.21965508       0.51931419       0.54146017 </v>
   <v>       0.22913895       0.03081148       0.54128942 </v>
   <v>       0.78416752       0.97174082       0.54351429 </v>
   <v>       0.45652748       0.30887738       0.67540859 </v>
   <v>       0.43553360       0.81122593       0.67379828 </v>
   <v>       0.96015078       0.28729812       0.67958716 </v>
   <v>       0.93722423       0.80071845       0.67589868 </v>
   <v>       0.29786889       0.05114552       0.67548710 </v>
   <v>       0.29966247       0.55345276       0.67634737 </v>
   <v>       0.80099211       0.05142306       0.67460032 </v>
   <v>       0.80406905       0.57657615       0.67220159 </v>
   <v>       0.08283515       0.16741280       0.64717839 </v>
   <v>       0.09205625       0.68874851       0.65493544 </v>
   <v>       0.57140714       0.16231736       0.65123676 </v>
   <v>       0.57225382       0.67641766       0.65482592 </v>
   <v>       0.18267167       0.41483422       0.64925950 </v>
   <v>       0.17339177       0.91578910       0.65031464 </v>
   <v>       0.68463979       0.41798276       0.65791009 </v>
   <v>       0.66698970       0.92522454       0.64967895 </v>
   <v>       0.06253585       0.18556432       0.67363657 </v>
   <v>       0.04343684       0.70081358       0.67838672 </v>
   <v>       0.56491269       0.20871984       0.67521482 </v>
   <v>       0.53736623       0.71046822       0.67868628 </v>
   <v>       0.20966234       0.44071071       0.67491600 </v>
   <v>       0.19758013       0.94744462       0.67576004 </v>
   <v>       0.70460230       0.47355495       0.68015136 </v>
   <v>       0.69260495       0.95656779       0.67498431 </v>
   <v>       0.40750239       0.31380602       0.65175389 </v>
   <v>       0.41479794       0.83159444       0.64743583 </v>
   <v>       0.92577027       0.32317907       0.65572441 </v>
   <v>       0.93016629       0.84005063       0.65098616 </v>
   <v>       0.32830039       0.07627588       0.65028693 </v>
   <v>       0.32221098       0.58890647       0.65122822 </v>
   <v>       0.83574232       0.07136858       0.64933874 </v>
   <v>       0.83486743       0.57937512       0.64554837 </v>
   <v>       0.99587638       0.25520445       0.63410748 </v>
   <v>       0.02708485       0.77894536       0.63625531 </v>
   <v>       0.47386605       0.22298790       0.63446723 </v>
   <v>       0.49951932       0.74856198       0.63351697 </v>
   <v>       0.25383534       0.99420393       0.63233485 </v>
   <v>       0.25049953       0.50587649       0.63235927 </v>
   <v>       0.75576746       0.99347816       0.63163494 </v>
   <v>       0.76210591       0.47924749       0.63536567 </v>
   <v>       0.44874502       0.30128397       0.76888902 </v>
   <v>       0.44874501       0.80128391       0.76888902 </v>
   <v>       0.94874497       0.30128397       0.76888902 </v>
   <v>       0.94874501       0.80128391       0.76888902 </v>
   <v>       0.30127600       0.05129450       0.76887296 </v>
   <v>       0.30127601       0.55129450       0.76887296 </v>
   <v>       0.80127594       0.05129450       0.76887296 </v>
   <v>       0.80127598       0.55129450       0.76887296 </v>
   <v>       0.07877100       0.17118050       0.74344197 </v>
   <v>       0.07877101       0.67118045       0.74344197 </v>
   <v>       0.57877100       0.17118050       0.74344197 </v>
   <v>       0.57877099       0.67118045       0.74344197 </v>
   <v>       0.17119950       0.42117448       0.74342103 </v>
   <v>       0.17119950       0.92117451       0.74342103 </v>
   <v>       0.67119951       0.42117448       0.74342103 </v>
   <v>       0.67119950       0.92117451       0.74342103 </v>
   <v>       0.05125600       0.19871499       0.76888902 </v>
   <v>       0.05125600       0.69871493       0.76888902 </v>
   <v>       0.55125603       0.19871499       0.76888902 </v>
   <v>       0.55125602       0.69871493       0.76888902 </v>
   <v>       0.19872349       0.44870397       0.76887205 </v>
   <v>       0.19872349       0.94870397       0.76887205 </v>
   <v>       0.69872352       0.44870397       0.76887205 </v>
   <v>       0.69872351       0.94870397       0.76887205 </v>
   <v>       0.42123152       0.32881747       0.74344197 </v>
   <v>       0.42123151       0.82881744       0.74344197 </v>
   <v>       0.92123147       0.32881747       0.74344197 </v>
   <v>       0.92123151       0.82881744       0.74344197 </v>
   <v>       0.32880050       0.07882500       0.74342103 </v>
   <v>       0.32880049       0.57882496       0.74342103 </v>
   <v>       0.82880048       0.07882500       0.74342103 </v>
   <v>       0.82880052       0.57882496       0.74342103 </v>
   <v>       0.00000350       0.25000148       0.72582199 </v>
   <v>       0.00000350       0.75000145       0.72582199 </v>
   <v>       0.50000351       0.25000148       0.72582199 </v>
   <v>       0.50000350       0.75000145       0.72582199 </v>
   <v>       0.25000050       0.00000000       0.72580398 </v>
   <v>       0.25000052       0.50000000       0.72580398 </v>
   <v>       0.75000050       0.00000000       0.72580398 </v>
   <v>       0.75000049       0.50000000       0.72580398 </v>
   <v>       0.77928681       0.55912456       0.52510484 </v>
   <v>       0.72578248       0.47835880       0.52816625 </v>
   <v>       0.86753621       0.50715050       0.54740746 </v>
   <v>       0.85036832       0.48356064       0.57414175 </v>
   <v>       0.73867482       0.64195127       0.56569756 </v>
   <v>       0.79577020       0.59060081       0.58335783 </v>
   <v>       0.65379708       0.53607461       0.57156342 </v>
   <v>       0.67138261       0.44900365       0.56157875 </v>
   <v>       0.61456272       0.54691451       0.53893281 </v>
   <v>       0.67003651       0.62783464       0.54257379 </v>
   <v>       0.61578274       0.65431005       0.50948774 </v>
   <v>       0.69624244       0.60730294       0.50031992 </v>
   <v>       0.82946578       0.38995206       0.53369482 </v>
   <v>       0.75804386       0.38101871       0.55222056 </v>
   <v>       0.84768409       0.35844619       0.56062586 </v>
   <v>       0.85407122       0.69121691       0.55923911 </v>
   <v>       0.85028118       0.63144981       0.53725260 </v>
   <v>       0.90336836       0.60418682       0.56024346 </v>
   <v>       0.75944026       0.50767357       0.59961486 </v>
   <v>       0.74520757       0.41626770       0.59197833 </v>
   <v>       0.67232726       0.46953018       0.60233965 </v>
   <v>       0.54121821       0.53579457       0.50811899 </v>
   <v>       0.57932807       0.55929066       0.48293592 </v>
   <v>       0.71600595       0.49731677       0.47621998 </v>
   <v>       0.54920586       0.41639706       0.52026788 </v>
   <v>       0.78077002       0.37650448       0.47843154 </v>
   <v>       0.61848686       0.29482380       0.52260972 </v>
   <v>       0.73418111       0.27480961       0.50221498 </v>
   <v>       0.01871355       0.23876460       0.55708182 </v>
   <v>       0.00587780       0.74617193       0.55651603 </v>
   <v>       0.48609521       0.23487230       0.55480512 </v>
   <v>       0.50803324       0.77139186       0.55778307 </v>
   <v>       0.23996662       0.51005891       0.55772972 </v>
   <v>       0.23949292       0.01050050       0.55751373 </v>
   <v>       0.76280717       0.98784814       0.55920194 </v>
   <v>       0.00307386       0.24641482       0.65104825 </v>
   <v>       0.01145096       0.76523639       0.65243573 </v>
   <v>       0.48835513       0.23772752       0.65085937 </v>
   <v>       0.49404461       0.75387807       0.65068502 </v>
   <v>       0.25286083       0.50155246       0.64967114 </v>
   <v>       0.25121081       0.99620150       0.64970380 </v>
   <v>       0.75999439       0.49898739       0.65169211 </v>
   <v>       0.75138142       0.99824228       0.64894144 </v>
   <v>       0.49998898       0.24999498       0.74327702 </v>
   <v>       0.49998903       0.74999496       0.74327702 </v>
   <v>       0.99998898       0.24999498       0.74327702 </v>
   <v>       0.99998903       0.74999496       0.74327702 </v>
   <v>       0.25000050       0.00000100       0.74325596 </v>
   <v>       0.25000052       0.50000100       0.74325596 </v>
   <v>       0.75000050       0.00000100       0.74325596 </v>
   <v>       0.75000049       0.50000100       0.74325596 </v>
   <v>       0.62812322       0.46379915       0.49832355 </v>
   <v>       0.69217105       0.45211164       0.48612381 </v>
   <v>       0.59982042       0.40685361       0.51114047 </v>
   <v>       0.72978423       0.38502888       0.48738658 </v>
   <v>       0.63741176       0.33944010       0.51223520 </v>
   <v>       0.70303867       0.32729761       0.50072179 </v>
   <v>       0.73497395       0.53479902       0.53428313 </v>
   <v>       0.82821878       0.47894861       0.55774638 </v>
   <v>       0.78463400       0.60173130       0.56629839 </v>
   <v>       0.69641610       0.49480819       0.57061468 </v>
   <v>       0.66167578       0.57870617       0.53253852 </v>
   <v>       0.64403608       0.59813689       0.50917334 </v>
   <v>       0.81546069       0.39785693       0.55066355 </v>
   <v>       0.85317946       0.63259483       0.55493619 </v>
   <v>       0.72084088       0.47048175       0.59232086 </v>
   <v>       0.59317932       0.53907484       0.49895173 </v>
   <v>       0.04082091       0.18251040       0.56868528 </v>
   <v>       0.03593424       0.68812012       0.56574353 </v>
   <v>       0.55260541       0.22466259       0.56301672 </v>
   <v>       0.52496635       0.71074076       0.56805063 </v>
   <v>       0.43363733       0.27418309       0.56365186 </v>
   <v>       0.46627850       0.82368022       0.56493666 </v>
   <v>       0.98547250       0.29868128       0.56402761 </v>
   <v>       0.97352129       0.80095398       0.56673719 </v>
   <v>       0.21548671       0.44988252       0.56735383 </v>
   <v>       0.18664928       0.97097681       0.56645906 </v>
   <v>       0.70808684       0.94899408       0.56684537 </v>
   <v>       0.30259981       0.02804927       0.56630064 </v>
   <v>       0.28536953       0.55857995       0.56588424 </v>
   <v>       0.79607544       0.04321057       0.56901689 </v>
   <v>       0.05200224       0.19720202       0.65810496 </v>
   <v>       0.05121433       0.71510280       0.66274150 </v>
   <v>       0.54494922       0.20159264       0.66005701 </v>
   <v>       0.53727909       0.71098031       0.66240953 </v>
   <v>       0.21259365       0.44935132       0.65850329 </v>
   <v>       0.20372157       0.94958106       0.65908837 </v>
   <v>       0.71437072       0.46296700       0.66434913 </v>
   <v>       0.69979608       0.95687905       0.65843046 </v>
   <v>       0.44923074       0.28977029       0.66006977 </v>
   <v>       0.44568190       0.80158148       0.65799861 </v>
   <v>       0.96056753       0.28779363       0.66326321 </v>
   <v>       0.95610884       0.80289900       0.66058842 </v>
   <v>       0.29457449       0.04335394       0.65913293 </v>
   <v>       0.29440121       0.55191598       0.65972644 </v>
   <v>       0.79836214       0.04257063       0.65824561 </v>
   <v>       0.80096167       0.55488078       0.65717441 </v>
   <v>       0.04586250       0.20411950       0.75272599 </v>
   <v>       0.04586250       0.70411946       0.75272599 </v>
   <v>       0.54586251       0.20411950       0.75272599 </v>
   <v>       0.54586250       0.70411946       0.75272599 </v>
   <v>       0.20411900       0.45410100       0.75270499 </v>
   <v>       0.20411899       0.95410095       0.75270499 </v>
   <v>       0.70411898       0.45410100       0.75270499 </v>
   <v>       0.70411896       0.95410095       0.75270499 </v>
   <v>       0.45414002       0.29588849       0.75272697 </v>
   <v>       0.45414001       0.79588852       0.75272697 </v>
   <v>       0.95414002       0.29588849       0.75272697 </v>
[...]
   <v>       0.59224547       0.19445839       0.55542335 </v>
   <v>       0.55565841       0.67022191       0.56119635 </v>
   <v>       0.34094352       0.05737946       0.55808245 </v>
   <v>       0.30176123       0.60301006       0.55725996 </v>
   <v>       0.83597361       0.07351037       0.56150122 </v>
   <v>       0.03467004       0.18214967       0.58479629 </v>
   <v>       0.03555796       0.67919741       0.58208707 </v>
   <v>       0.56807863       0.25194591       0.57699450 </v>
   <v>       0.50510379       0.69532257       0.58250188 </v>
   <v>       0.22991364       0.43694418       0.58272990 </v>
   <v>       0.19044453       0.94915044       0.58158941 </v>
   <v>       0.68665890       0.96007707       0.58169990 </v>
   <v>       0.38147791       0.27605258       0.55722577 </v>
   <v>       0.45919550       0.87276102       0.55688403 </v>
   <v>       0.97540157       0.34356091       0.55447766 </v>
   <v>       0.95363391       0.84560526       0.55830381 </v>
   <v>       0.17815656       0.41613132       0.55989031 </v>
   <v>       0.13743885       0.96165401       0.55847028 </v>
   <v>       0.68928494       0.90349481       0.55847285 </v>
   <v>       0.47230888       0.20596482       0.53998392 </v>
   <v>       0.53401412       0.77896675       0.54222338 </v>
   <v>       0.02796247       0.23280817       0.53990163 </v>
   <v>       0.00824875       0.74839566       0.53900826 </v>
   <v>       0.21965508       0.51931419       0.54146017 </v>
   <v>       0.22913895       0.03081148       0.54128942 </v>
   <v>       0.78416752       0.97174082       0.54351429 </v>
   <v>       0.45652748       0.30887738       0.67540859 </v>
   <v>       0.43553360       0.81122593       0.67379828 </v>
   <v>       0.96015078       0.28729812       0.67958716 </v>
   <v>       0.93722423       0.80071845       0.67589868 </v>
   <v>       0.29786889       0.05114552       0.67548710 </v>
   <v>       0.29966247       0.55345276       0.67634737 </v>
   <v>       0.80099211       0.05142306       0.67460032 </v>
   <v>       0.80406905       0.57657615       0.67220159 </v>
   <v>       0.08283515       0.16741280       0.64717839 </v>
   <v>       0.09205625       0.68874851       0.65493544 </v>
   <v>       0.57140714       0.16231736       0.65123676 </v>
   <v>       0.57225382       0.67641766       0.65482592 </v>
   <v>       0.18267167       0.41483422       0.64925950 </v>
   <v>       0.17339177       0.91578910       0.65031464 </v>
   <v>       0.68463979       0.41798276       0.65791009 </v>
   <v>       0.66698970       0.92522454       0.64967895 </v>
   <v>       0.06253585       0.18556432       0.67363657 </v>
   <v>       0.04343684       0.70081358       0.67838672 </v>
   <v>       0.56491269       0.20871984       0.67521482 </v>
   <v>       0.53736623       0.71046822       0.67868628 </v>
   <v>       0.20966234       0.44071071       0.67491600 </v>
   <v>       0.19758013       0.94744462       0.67576004 </v>
   <v>       0.70460230       0.47355495       0.68015136 </v>
   <v>       0.69260495       0.95656779       0.67498431 </v>
   <v>       0.40750239       0.31380602       0.65175389 </v>
   <v>       0.41479794       0.83159444       0.64743583 </v>
   <v>       0.92577027       0.32317907       0.65572441 </v>
   <v>       0.93016629       0.84005063       0.65098616 </v>
   <v>       0.32830039       0.07627588       0.65028693 </v>
   <v>       0.32221098       0.58890647       0.65122822 </v>
   <v>       0.83574232       0.07136858       0.64933874 </v>
   <v>       0.83486743       0.57937512       0.64554837 </v>
   <v>       0.99587638       0.25520445       0.63410748 </v>
   <v>       0.02708485       0.77894536       0.63625531 </v>
   <v>       0.47386605       0.22298790       0.63446723 </v>
   <v>       0.49951932       0.74856198       0.63351697 </v>
   <v>       0.25383534       0.99420393       0.63233485 </v>
   <v>       0.25049953       0.50587649       0.63235927 </v>
   <v>       0.75576746       0.99347816       0.63163494 </v>
   <v>       0.76210591       0.47924749       0.63536567 </v>
   <v>       0.44874502       0.30128397       0.76888902 </v>
   <v>       0.44874501       0.80128391       0.76888902 </v>
   <v>       0.94874497       0.30128397       0.76888902 </v>
   <v>       0.94874501       0.80128391       0.76888902 </v>
   <v>       0.30127600       0.05129450       0.76887296 </v>
   <v>       0.30127601       0.55129450       0.76887296 </v>
   <v>       0.80127594       0.05129450       0.76887296 </v>
   <v>       0.80127598       0.55129450       0.76887296 </v>
   <v>       0.07877100       0.17118050       0.74344197 </v>
   <v>       0.07877101       0.67118045       0.74344197 </v>
   <v>       0.57877100       0.17118050       0.74344197 </v>
   <v>       0.57877099       0.67118045       0.74344197 </v>
   <v>       0.17119950       0.42117448       0.74342103 </v>
   <v>       0.17119950       0.92117451       0.74342103 </v>
   <v>       0.67119951       0.42117448       0.74342103 </v>
   <v>       0.67119950       0.92117451       0.74342103 </v>
   <v>       0.05125600       0.19871499       0.76888902 </v>
   <v>       0.05125600       0.69871493       0.76888902 </v>
   <v>       0.55125603       0.19871499       0.76888902 </v>
   <v>       0.55125602       0.69871493       0.76888902 </v>
   <v>       0.19872349       0.44870397       0.76887205 </v>
   <v>       0.19872349       0.94870397       0.76887205 </v>
   <v>       0.69872352       0.44870397       0.76887205 </v>
   <v>       0.69872351       0.94870397       0.76887205 </v>
   <v>       0.42123152       0.32881747       0.74344197 </v>
   <v>       0.42123151       0.82881744       0.74344197 </v>
   <v>       0.92123147       0.32881747       0.74344197 </v>
   <v>       0.92123151       0.82881744       0.74344197 </v>
   <v>       0.32880050       0.07882500       0.74342103 </v>
   <v>       0.32880049       0.57882496       0.74342103 </v>
   <v>       0.82880048       0.07882500       0.74342103 </v>
   <v>       0.82880052       0.57882496       0.74342103 </v>
   <v>       0.00000350       0.25000148       0.72582199 </v>
   <v>       0.00000350       0.75000145       0.72582199 </v>
   <v>       0.50000351       0.25000148       0.72582199 </v>
   <v>       0.50000350       0.75000145       0.72582199 </v>
   <v>       0.25000050       0.00000000       0.72580398 </v>
   <v>       0.25000052       0.50000000       0.72580398 </v>
   <v>       0.75000050       0.00000000       0.72580398 </v>
   <v>       0.75000049       0.50000000       0.72580398 </v>
   <v>       0.77928681       0.55912456       0.52510484 </v>
   <v>       0.72578248       0.47835880       0.52816625 </v>
   <v>       0.86753621       0.50715050       0.54740746 </v>
   <v>       0.85036832       0.48356064       0.57414175 </v>
   <v>       0.73867482       0.64195127       0.56569756 </v>
   <v>       0.79577020       0.59060081       0.58335783 </v>
   <v>       0.65379708       0.53607461       0.57156342 </v>
   <v>       0.67138261       0.44900365       0.56157875 </v>
   <v>       0.61456272       0.54691451       0.53893281 </v>
   <v>       0.67003651       0.62783464       0.54257379 </v>
   <v>       0.61578274       0.65431005       0.50948774 </v>
   <v>       0.69624244       0.60730294       0.50031992 </v>
   <v>       0.82946578       0.38995206       0.53369482 </v>
   <v>       0.75804386       0.38101871       0.55222056 </v>
   <v>       0.84768409       0.35844619       0.56062586 </v>
   <v>       0.85407122       0.69121691       0.55923911 </v>
   <v>       0.85028118       0.63144981       0.53725260 </v>
   <v>       0.90336836       0.60418682       0.56024346 </v>
   <v>       0.75944026       0.50767357       0.59961486 </v>
   <v>       0.74520757       0.41626770       0.59197833 </v>
   <v>       0.67232726       0.46953018       0.60233965 </v>
   <v>       0.54121821       0.53579457       0.50811899 </v>
   <v>       0.57932807       0.55929066       0.48293592 </v>
   <v>       0.71600595       0.49731677       0.47621998 </v>
   <v>       0.54920586       0.41639706       0.52026788 </v>
   <v>       0.78077002       0.37650448       0.47843154 </v>
   <v>       0.61848686       0.29482380       0.52260972 </v>
   <v>       0.73418111       0.27480961       0.50221498 </v>
   <v>       0.01871355       0.23876460       0.55708182 </v>
   <v>       0.00587780       0.74617193       0.55651603 </v>
   <v>       0.48609521       0.23487230       0.55480512 </v>
   <v>       0.50803324       0.77139186       0.55778307 </v>
   <v>       0.23996662       0.51005891       0.55772972 </v>
   <v>       0.23949292       0.01050050       0.55751373 </v>
   <v>       0.76280717       0.98784814       0.55920194 </v>
   <v>       0.00307386       0.24641482       0.65104825 </v>
   <v>       0.01145096       0.76523639       0.65243573 </v>
   <v>       0.48835513       0.23772752       0.65085937 </v>
   <v>       0.49404461       0.75387807       0.65068502 </v>
   <v>       0.25286083       0.50155246       0.64967114 </v>
   <v>       0.25121081       0.99620150       0.64970380 </v>
   <v>       0.75999439       0.49898739       0.65169211 </v>
   <v>       0.75138142       0.99824228       0.64894144 </v>
   <v>       0.49998898       0.24999498       0.74327702 </v>
   <v>       0.49998903       0.74999496       0.74327702 </v>
   <v>       0.99998898       0.24999498       0.74327702 </v>
   <v>       0.99998903       0.74999496       0.74327702 </v>
   <v>       0.25000050       0.00000100       0.74325596 </v>
   <v>       0.25000052       0.50000100       0.74325596 </v>
   <v>       0.75000050       0.00000100       0.74325596 </v>
   <v>       0.75000049       0.50000100       0.74325596 </v>
   <v>       0.62812322       0.46379915       0.49832355 </v>
   <v>       0.69217105       0.45211164       0.48612381 </v>
   <v>       0.59982042       0.40685361       0.51114047 </v>
   <v>       0.72978423       0.38502888       0.48738658 </v>
   <v>       0.63741176       0.33944010       0.51223520 </v>
   <v>       0.70303867       0.32729761       0.50072179 </v>
   <v>       0.73497395       0.53479902       0.53428313 </v>
   <v>       0.82821878       0.47894861       0.55774638 </v>
   <v>       0.78463400       0.60173130       0.56629839 </v>
   <v>       0.69641610       0.49480819       0.57061468 </v>
   <v>       0.66167578       0.57870617       0.53253852 </v>
   <v>       0.64403608       0.59813689       0.50917334 </v>
   <v>       0.81546069       0.39785693       0.55066355 </v>
   <v>       0.85317946       0.63259483       0.55493619 </v>
   <v>       0.72084088       0.47048175       0.59232086 </v>
   <v>       0.59317932       0.53907484       0.49895173 </v>
   <v>       0.04082091       0.18251040       0.56868528 </v>
   <v>       0.03593424       0.68812012       0.56574353 </v>
   <v>       0.55260541       0.22466259       0.56301672 </v>
   <v>       0.52496635       0.71074076       0.56805063 </v>
   <v>       0.43363733       0.27418309       0.56365186 </v>
   <v>       0.46627850       0.82368022       0.56493666 </v>
   <v>       0.98547250       0.29868128       0.56402761 </v>
   <v>       0.97352129       0.80095398       0.56673719 </v>
   <v>       0.21548671       0.44988252       0.56735383 </v>
   <v>       0.18664928       0.97097681       0.56645906 </v>
   <v>       0.70808684       0.94899408       0.56684537 </v>
   <v>       0.30259981       0.02804927       0.56630064 </v>
   <v>       0.28536953       0.55857995       0.56588424 </v>
   <v>       0.79607544       0.04321057       0.56901689 </v>
   <v>       0.05200224       0.19720202       0.65810496 </v>
   <v>       0.05121433       0.71510280       0.66274150 </v>
   <v>       0.54494922       0.20159264       0.66005701 </v>
   <v>       0.53727909       0.71098031       0.66240953 </v>
   <v>       0.21259365       0.44935132       0.65850329 </v>
   <v>       0.20372157       0.94958106       0.65908837 </v>
   <v>       0.71437072       0.46296700       0.66434913 </v>
   <v>       0.69979608       0.95687905       0.65843046 </v>
   <v>       0.44923074       0.28977029       0.66006977 </v>
   <v>       0.44568190       0.80158148       0.65799861 </v>
   <v>       0.96056753       0.28779363       0.66326321 </v>
   <v>       0.95610884       0.80289900       0.66058842 </v>
   <v>       0.29457449       0.04335394       0.65913293 </v>
   <v>       0.29440121       0.55191598       0.65972644 </v>
   <v>       0.79836214       0.04257063       0.65824561 </v>
   <v>       0.80096167       0.55488078       0.65717441 </v>
   <v>       0.04586250       0.20411950       0.75272599 </v>
   <v>       0.04586250       0.70411946       0.75272599 </v>
   <v>       0.54586251       0.20411950       0.75272599 </v>
   <v>       0.54586250       0.70411946       0.75272599 </v>
   <v>       0.20411900       0.45410100       0.75270499 </v>
   <v>       0.20411899       0.95410095       0.75270499 </v>
   <v>       0.70411898       0.45410100       0.75270499 </v>
   <v>       0.70411896       0.95410095       0.75270499 </v>
   <v>       0.45414002       0.29588849       0.75272697 </v>
   <v>       0.45414001       0.79588852       0.75272697 </v>
   <v>       0.95414002       0.29588849       0.75272697 </v>
   <v>       0.95414006       0.79588852       0.75272697 </v>
   <v>       0.29588249       0.04590050       0.75270499 </v>
   <v>       0.29588248       0.54590053       0.75270499 </v>
   <v>       0.79588244       0.04590050       0.75270499 </v>
   <v>       0.79588248       0.54590053       0.75270499 </v>
   <v>       0.76057625       0.52773104       0.55724500 </v>
   <v>       0.48957630       0.01526618       0.55154940 </v>
   <v>       0.47213218       0.51745999       0.55828482 </v>
   <v>       0.00161154       0.99375264       0.55170019 </v>
   <v>       0.03204441       0.48682074       0.55118776 </v>
   <v>       0.24293378       0.24626224       0.55193394 </v>
   <v>       0.25166783       0.74785296       0.55288402 </v>
   <v>       0.75206393       0.21742761       0.55584006 </v>
   <v>       0.72548115       0.78050041       0.54722859 </v>
   <v>       0.00297764       0.99746035       0.65466274 </v>
   <v>       0.00992693       0.50408232       0.65470816 </v>
   <v>       0.49791174       0.99984681       0.65340187 </v>
   <v>       0.50700739       0.48701509       0.65630180 </v>
   <v>       0.25057165       0.24708945       0.65361102 </v>
   <v>       0.24922091       0.75315194       0.65516492 </v>
   <v>       0.74042223       0.25314136       0.65518384 </v>
   <v>       0.75639665       0.75851635       0.65360509 </v>
   <v>       0.14344054       0.10507671       0.60943037 </v>
   <v>       0.14503704       0.60807457       0.60650082 </v>
   <v>       0.64566537       0.10132798       0.60767489 </v>
   <v>       0.61967946       0.63233301       0.61409701 </v>
   <v>       0.35179795       0.39309318       0.60711691 </v>
   <v>       0.35581666       0.89125616       0.60704714 </v>
   <v>       0.88806594       0.36549896       0.61423095 </v>
   <v>       0.85968616       0.89546910       0.60612251 </v>
   <v>       0.11028959       0.35752297       0.60890078 </v>
   <v>       0.10893238       0.85830411       0.60670436 </v>
   <v>       0.57886784       0.33071404       0.60933013 </v>
   <v>       0.61020987       0.86239535       0.60890743 </v>
   <v>       0.38451687       0.13445879       0.60809080 </v>
   <v>       0.38418963       0.63538044       0.61115971 </v>
   <v>       0.89214436       0.13974955       0.61153418 </v>
   <v>       0.91532979       0.65673109       0.61474411 </v>
   <v>       0.00000000       0.00000000       0.75492797 </v>
   <v>       0.00000000       0.50000000       0.75492797 </v>
   <v>       0.50000000       0.00000000       0.75492797 </v>
   <v>       0.49999999       0.50000000       0.75492797 </v>
   <v>       0.25000050       0.25000000       0.75493902 </v>
   <v>       0.25000051       0.74999997       0.75493902 </v>
   <v>       0.75000047       0.25000000       0.75493902 </v>
   <v>       0.75000046       0.74999997       0.75493902 </v>
   <v>       0.13579050       0.11421000       0.70478299 </v>
   <v>       0.13579050       0.61420998       0.70478299 </v>
   <v>       0.63579045       0.11421000       0.70478299 </v>
   <v>       0.63579049       0.61420998       0.70478299 </v>
   <v>       0.36420952       0.38578999       0.70478299 </v>
   <v>       0.36420950       0.88578996       0.70478299 </v>
   <v>       0.86420954       0.38578999       0.70478299 </v>
   <v>       0.86420953       0.88578996       0.70478299 </v>
   <v>       0.11421799       0.36421899       0.70478098 </v>
   <v>       0.11421799       0.86421899       0.70478098 </v>
   <v>       0.61421800       0.36421899       0.70478098 </v>
   <v>       0.61421799       0.86421899       0.70478098 </v>
   <v>       0.38578201       0.13578149       0.70478202 </v>
   <v>       0.38578200       0.63578149       0.70478202 </v>
   <v>       0.88578199       0.13578149       0.70478202 </v>
   <v>       0.88578203       0.63578149       0.70478202 </v>
   <v>       0.13466700       0.11533200       0.80125603 </v>
   <v>       0.13466699       0.61533199       0.80125603 </v>
   <v>       0.63466699       0.11533200       0.80125603 </v>
   <v>       0.63466698       0.61533199       0.80125603 </v>
   <v>       0.36533300       0.38466799       0.80125603 </v>
   <v>       0.36533299       0.88466796       0.80125603 </v>
   <v>       0.86533295       0.38466799       0.80125603 </v>
   <v>       0.86533294       0.88466796       0.80125603 </v>
   <v>       0.11532850       0.36533700       0.80126500 </v>
   <v>       0.11532850       0.86533698       0.80126500 </v>
   <v>       0.61532850       0.36533700       0.80126500 </v>
   <v>       0.61532849       0.86533698       0.80126500 </v>
   <v>       0.38467151       0.13466300       0.80126500 </v>
   <v>       0.38467150       0.63466297       0.80126500 </v>
   <v>       0.88467149       0.13466300       0.80126500 </v>
   <v>       0.88467153       0.63466297       0.80126500 </v>
   <v>       0.99906669       0.00215078       0.60431264 </v>
   <v>       0.00676719       0.50123679       0.60429726 </v>
   <v>       0.50206495       0.00568811       0.60255545 </v>
   <v>       0.49517600       0.49566932       0.60643733 </v>
   <v>       0.24642692       0.24713071       0.60247017 </v>
   <v>       0.24905108       0.74932337       0.60160104 </v>
   <v>       0.74620181       0.24739998       0.60467697 </v>
   <v>       0.74790666       0.75724561       0.60381358 </v>
   <v>       0.00000050       0.00000050       0.70482896 </v>
   <v>       0.00000050       0.50000048       0.70482896 </v>
   <v>       0.50000048       0.00000050       0.70482896 </v>
   <v>       0.50000046       0.50000048       0.70482896 </v>
   <v>       0.24999999       0.24999947       0.70482499 </v>
   <v>       0.25000001       0.74999950       0.70482499 </v>
   <v>       0.74999999       0.24999947       0.70482499 </v>
   <v>       0.74999998       0.74999950       0.70482499 </v>
   <v>       0.00000000       0.00000000       0.80731797 </v>
   <v>       0.00000000       0.50000000       0.80731797 </v>
   <v>       0.50000000       0.00000000       0.80731797 </v>
   <v>       0.49999999       0.50000000       0.80731797 </v>
   <v>       0.24999999       0.25000000       0.80731797 </v>
   <v>       0.25000001       0.74999997       0.80731797 </v>
   <v>       0.74999999       0.25000000       0.80731797 </v>
   <v>       0.74999998       0.74999997       0.80731797 </v>
  </varray>
 </structure>
</modeling>
