 vasp.6.2.1 16May21 (build Nov 15 2021 14:57:28) complex                         
 executed on             LinuxPGI date 2023.07.30  14:42:32
 running on    4 total cores
 distrk:  each k-point on    4 cores,    1 groups
 distr:  one band on NCORE=   1 cores,    4 groups


--------------------------------------------------------------------------------------------------------


 INCAR:
   SYSTEM = PSC
   ISTART = 1
   ICHARG = 1
   PREC = Normal
   ENCUT = 500
   GGA_COMPAT = F
   NELM = 600
   ISYM = 0
   LREAL = Auto
   ISMEAR = 0
   SIGMA = 0.05
   AMIN = 0.01
   BMIX = 0.01
   LVTOT = T
   LWAVE = F
   LDIPOL = T
   IDIPOL = 3
   LVDW = T
   IVDW = 12

 POTCAR:    PAW_PBE H 15Jun2001                   
 POTCAR:    PAW_PBE C 08Apr2002                   
 POTCAR:    PAW_PBE N 08Apr2002                   
 POTCAR:    PAW_PBE I 08Apr2002                   
 POTCAR:    PAW_PBE Pb 08Apr2002                  
 WARNING: For LVTOT=.TRUE., VASP.5.x writes the TOTAL local potential to the
     file LOCPOT. If you want only the Hartree contributions, use LVHAR=.TRUE.
     instead. 

 POTCAR:    PAW_PBE H 15Jun2001                   
   SHA256 =  030f79b5d3ab3cf0e668861823c8fb652ff669f3e15e46930bd03bfd63a607b6 H/POTCAR              
   COPYR  = (c) Copyright 15Jun2001 Georg Kresse                                                    
   COPYR  = This file is part of the software VASP. Any use, copying, and all other rights are regul
   COPYR  = If you do not have a valid VASP license, you may not use, copy or distribute this file. 
   VRHFIN =H: ultrasoft test                                                                        
   LEXCH  = PE                                                                                      
   EATOM  =    12.4884 eV,    0.9179 Ry                                                             
                                                                                                    
   TITEL  = PAW_PBE H 15Jun2001                                                                     
   LULTRA =        F    use ultrasoft PP ?                                                          
   IUNSCR =        0    unscreen: 0-lin 1-nonlin 2-no                                               
   RPACOR =    0.000    partial core radius                                                         
   POMASS =    1.000; ZVAL   =    1.000    mass and valenz                                          
   RCORE  =    1.100    outmost cutoff radius                                                       
   RWIGS  =    0.700; RWIGS  =    0.370    wigner-seitz radius (au A)                               
   ENMAX  =  250.000; ENMIN  =  200.000 eV                                                          
   RCLOC  =    0.701    cutoff for local pot                                                        
   LCOR   =        T    correct aug charges                                                         
   LPAW   =        T    paw PP                                                                      
   EAUG   =  400.000                                                                                
   RMAX   =    1.123    core radius for proj-oper                                                   
   RAUG   =    1.200    factor for augmentation sphere                                              
   RDEP   =    1.112    radius for radial grids                                                     
   RDEPT  =    0.926    core radius for aug-charge                                                  
                                                                                                    
   Atomic configuration                                                                             
    2 entries                                                                                       
     n  l   j            E        occ.                                                              
     1  0  0.50        -6.4927   1.0000                                                             
     2  1  0.50        -3.4015   0.0000                                                             
   Description                                                                                      
     l       E           TYP  RCUT    TYP  RCUT                                                     
     0     -6.4927494     23  1.100                                                                 
     0      6.8029130     23  1.100                                                                 
     1     -4.0817478     23  1.100                                                                 
  local pseudopotential read in
  atomic valenz-charges read in
  non local Contribution for L=            0  read in
    real space projection operators read in
  non local Contribution for L=            0  read in
    real space projection operators read in
  non local Contribution for L=            1  read in
    real space projection operators read in
    PAW grid and wavefunctions read in
 
   number of l-projection  operators is LMAX  =            3
   number of lm-projection operators is LMMAX =            5
 
 POTCAR:    PAW_PBE C 08Apr2002                   
   SHA256 =  253f7b50bb8d59471dbedb8285d89021f4a42ed1a2c5d38a03a736e69125dd95 C/POTCAR              
   COPYR  = (c) Copyright 08Apr2002 Georg Kresse                                                    
   COPYR  = This file is part of the software VASP. Any use, copying, and all other rights are regul
   COPYR  = If you do not have a valid VASP license, you may not use, copy or distribute this file. 
   VRHFIN =C: s2p2                                                                                  
   LEXCH  = PE                                                                                      
   EATOM  =   147.1560 eV,   10.8157 Ry                                                             
                                                                                                    
   TITEL  = PAW_PBE C 08Apr2002                                                                     
   LULTRA =        F    use ultrasoft PP ?                                                          
   IUNSCR =        1    unscreen: 0-lin 1-nonlin 2-no                                               
   RPACOR =    1.200    partial core radius                                                         
   POMASS =   12.011; ZVAL   =    4.000    mass and valenz                                          
   RCORE  =    1.500    outmost cutoff radius                                                       
   RWIGS  =    1.630; RWIGS  =    0.863    wigner-seitz radius (au A)                               
   ENMAX  =  400.000; ENMIN  =  300.000 eV                                                          
   ICORE  =        2    local potential                                                             
   LCOR   =        T    correct aug charges                                                         
   LPAW   =        T    paw PP                                                                      
   EAUG   =  644.873                                                                                
   DEXC   =    0.000                                                                                
   RMAX   =    1.529    core radius for proj-oper                                                   
   RAUG   =    1.300    factor for augmentation sphere                                              
   RDEP   =    1.501    radius for radial grids                                                     
   RDEPT  =    1.300    core radius for aug-charge                                                  
                                                                                                    
   Atomic configuration                                                                             
    4 entries                                                                                       
     n  l   j            E        occ.                                                              
     1  0  0.50      -273.3789   2.0000                                                             
     2  0  0.50       -13.7508   2.0000                                                             
     2  1  0.50        -5.2854   2.0000                                                             
     3  2  1.50        -5.4423   0.0000                                                             
   Description                                                                                      
     l       E           TYP  RCUT    TYP  RCUT                                                     
     0    -13.7508458     23  1.200                                                                 
     0     -8.2022199     23  1.200                                                                 
     1     -5.2854383     23  1.500                                                                 
     1     34.0145650     23  1.500                                                                 
     2     -5.4423304      7  1.500                                                                 
  local pseudopotential read in
  partial core-charges read in
  partial kinetic energy density read in
  atomic valenz-charges read in
  non local Contribution for L=            0  read in
    real space projection operators read in
  non local Contribution for L=            0  read in
    real space projection operators read in
  non local Contribution for L=            1  read in
    real space projection operators read in
  non local Contribution for L=            1  read in
    real space projection operators read in
    PAW grid and wavefunctions read in
 
   number of l-projection  operators is LMAX  =            4
   number of lm-projection operators is LMMAX =            8
 
 POTCAR:    PAW_PBE N 08Apr2002                   
   SHA256 =  e053789ff3a61a86a1b75d8a110fcc91f86041011e7b0817c7c99e4e8a6349d7 N/POTCAR              
   COPYR  = (c) Copyright 08Apr2002 Georg Kresse                                                    
   COPYR  = This file is part of the software VASP. Any use, copying, and all other rights are regul
   COPYR  = If you do not have a valid VASP license, you may not use, copy or distribute this file. 
   VRHFIN =N: s2p3                                                                                  
   LEXCH  = PE                                                                                      
   EATOM  =   264.5486 eV,   19.4438 Ry                                                             
                                                                                                    
   TITEL  = PAW_PBE N 08Apr2002                                                                     
   LULTRA =        F    use ultrasoft PP ?                                                          
   IUNSCR =        1    unscreen: 0-lin 1-nonlin 2-no                                               
   RPACOR =    1.200    partial core radius                                                         
   POMASS =   14.001; ZVAL   =    5.000    mass and valenz                                          
   RCORE  =    1.500    outmost cutoff radius                                                       
   RWIGS  =    1.400; RWIGS  =    0.741    wigner-seitz radius (au A)                               
   ENMAX  =  400.000; ENMIN  =  300.000 eV                                                          
   ICORE  =        2    local potential                                                             
   LCOR   =        T    correct aug charges                                                         
   LPAW   =        T    paw PP                                                                      
   EAUG   =  627.112                                                                                
   DEXC   =    0.000                                                                                
   RMAX   =    1.529    core radius for proj-oper                                                   
   RAUG   =    1.300    factor for augmentation sphere                                              
   RDEP   =    1.514    radius for radial grids                                                     
   RDEPT  =    1.338    core radius for aug-charge                                                  
                                                                                                    
   Atomic configuration                                                                             
    4 entries                                                                                       
     n  l   j            E        occ.                                                              
     1  0  0.50      -384.7179   2.0000                                                             
     2  0  0.50       -18.5828   2.0000                                                             
     2  1  0.50        -7.0898   3.0000                                                             
     3  2  1.50        -6.8029   0.0000                                                             
   Description                                                                                      
     l       E           TYP  RCUT    TYP  RCUT                                                     
     0    -18.5828119     23  1.200                                                                 
     0    -13.5018863     23  1.200                                                                 
     1     -7.0897853     23  1.500                                                                 
     1      9.5240782     23  1.500                                                                 
     2     -6.8029130      7  1.500                                                                 
  local pseudopotential read in
  partial core-charges read in
  partial kinetic energy density read in
  atomic valenz-charges read in
  non local Contribution for L=            0  read in
    real space projection operators read in
  non local Contribution for L=            0  read in
    real space projection operators read in
  non local Contribution for L=            1  read in
    real space projection operators read in
  non local Contribution for L=            1  read in
    real space projection operators read in
    PAW grid and wavefunctions read in
 
   number of l-projection  operators is LMAX  =            4
   number of lm-projection operators is LMMAX =            8
 
 POTCAR:    PAW_PBE I 08Apr2002                   
   SHA256 =  e40f3f59b681c1fc3e3091736183c4589116986673d2b852a5012aec72758799 I/POTCAR              
   COPYR  = (c) Copyright 08Apr2002 Georg Kresse                                                    
   COPYR  = This file is part of the software VASP. Any use, copying, and all other rights are regul
   COPYR  = If you do not have a valid VASP license, you may not use, copy or distribute this file. 
   VRHFIN =I : s2p5                                                                                 
   LEXCH  = PE                                                                                      
   EATOM  =   315.8678 eV,   23.2156 Ry                                                             
                                                                                                    
   TITEL  = PAW_PBE I 08Apr2002                                                                     
   LULTRA =        F    use ultrasoft PP ?                                                          
   IUNSCR =        1    unscreen: 0-lin 1-nonlin 2-no                                               
   RPACOR =    2.200    partial core radius                                                         
   POMASS =  126.904; ZVAL   =    7.000    mass and valenz                                          
   RCORE  =    2.300    outmost cutoff radius                                                       
   RWIGS  =    2.810; RWIGS  =    1.487    wigner-seitz radius (au A)                               
   ENMAX  =  175.647; ENMIN  =  131.735 eV                                                          
   ICORE  =        3    local potential                                                             
   LCOR   =        T    correct aug charges                                                         
   LPAW   =        T    paw PP                                                                      
   EAUG   =  370.139                                                                                
   DEXC   =    0.000                                                                                
   RMAX   =    2.359    core radius for proj-oper                                                   
   RAUG   =    1.300    factor for augmentation sphere                                              
   RDEP   =    2.392    radius for radial grids                                                     
   RDEPT  =    2.170    core radius for aug-charge                                                  
                                                                                                    
   Atomic configuration                                                                             
   13 entries                                                                                       
     n  l   j            E        occ.                                                              
     1  0  0.50    -32976.3739   2.0000                                                             
     2  0  0.50     -5094.5933   2.0000                                                             
     2  1  1.50     -4572.0131   6.0000                                                             
     3  0  0.50     -1028.2813   2.0000                                                             
     3  1  1.50      -859.0250   6.0000                                                             
     3  2  2.50      -605.7620  10.0000                                                             
     4  0  0.50      -180.5540   2.0000                                                             
     4  1  1.50      -127.5306   6.0000                                                             
     4  2  2.50       -50.2720  10.0000                                                             
     5  0  0.50       -17.4058   2.0000                                                             
     5  1  0.50        -7.0851   5.0000                                                             
     5  2  1.50        -7.0750   0.0000                                                             
     4  3  2.50        -7.0750   0.0000                                                             
   Description                                                                                      
     l       E           TYP  RCUT    TYP  RCUT                                                     
     0    -17.4058016     23  2.300                                                                 
     0    -18.7663842     23  2.300                                                                 
     1     -7.0850686     23  2.300                                                                 
     1     -4.2150896     23  2.300                                                                 
     2     -7.0750295     23  2.300                                                                 
     3     -1.3605826     23  2.300                                                                 
  local pseudopotential read in
  partial core-charges read in
  partial kinetic energy density read in
  atomic valenz-charges read in
  non local Contribution for L=            0  read in
    real space projection operators read in
  non local Contribution for L=            0  read in
    real space projection operators read in
  non local Contribution for L=            1  read in
    real space projection operators read in
  non local Contribution for L=            1  read in
    real space projection operators read in
  non local Contribution for L=            2  read in
    real space projection operators read in
    PAW grid and wavefunctions read in
 
   number of l-projection  operators is LMAX  =            5
   number of lm-projection operators is LMMAX =           13
 
 POTCAR:    PAW_PBE Pb 08Apr2002                  
   SHA256 =  797118a27cf1bcd06b9881c67a26cdde129e3cd1a551dd4a281f9681ce847303 Pb/POTCAR             
   COPYR  = (c) Copyright 08Apr2002 Georg Kresse                                                    
   COPYR  = This file is part of the software VASP. Any use, copying, and all other rights are regul
   COPYR  = If you do not have a valid VASP license, you may not use, copy or distribute this file. 
   VRHFIN =Pb:                                                                                      
   LEXCH  = PE                                                                                      
   EATOM  =    96.9868 eV,    7.1283 Ry                                                             
                                                                                                    
   TITEL  = PAW_PBE Pb 08Apr2002                                                                    
   LULTRA =        F    use ultrasoft PP ?                                                          
   IUNSCR =        1    unscreen: 0-lin 1-nonlin 2-no                                               
   RPACOR =    2.200    partial core radius                                                         
   POMASS =  207.200; ZVAL   =    4.000    mass and valenz                                          
   RCORE  =    3.100    outmost cutoff radius                                                       
   RWIGS  =    3.260; RWIGS  =    1.725    wigner-seitz radius (au A)                               
   ENMAX  =   97.973; ENMIN  =   73.480 eV                                                          
   ICORE  =        3    local potential                                                             
   LCOR   =        T    correct aug charges                                                         
   LPAW   =        T    paw PP                                                                      
   EAUG   =  234.873                                                                                
   DEXC   =    0.000                                                                                
   RMAX   =    3.158    core radius for proj-oper                                                   
   RAUG   =    1.300    factor for augmentation sphere                                              
   RDEP   =    3.202    radius for radial grids                                                     
   RDEPT  =    2.659    core radius for aug-charge                                                  
                                                                                                    
   Atomic configuration                                                                             
   17 entries                                                                                       
     n  l   j            E        occ.                                                              
     1  0  0.50    -88091.8466   2.0000                                                             
     2  0  0.50    -15753.4197   2.0000                                                             
     2  1  1.50    -13508.1797   6.0000                                                             
     3  0  0.50     -3781.7194   2.0000                                                             
     3  1  1.50     -3138.2529   6.0000                                                             
     3  2  2.50     -2483.2977  10.0000                                                             
     4  0  0.50      -856.2895   2.0000                                                             
     4  1  1.50      -645.4943   6.0000                                                             
     4  2  2.50      -401.8768  10.0000                                                             
     4  3  3.50      -132.9059  14.0000                                                             
     5  0  0.50      -144.0950   2.0000                                                             
     5  1  1.50       -85.7879   6.0000                                                             
     5  2  2.50       -21.1769  10.0000                                                             
     6  0  0.50       -12.0372   2.0000                                                             
     6  1  1.50        -3.4971   2.0000                                                             
     6  2  2.50        -1.3606   0.0000                                                             
     5  3  2.50        -2.7212   0.0000                                                             
   Description                                                                                      
     l       E           TYP  RCUT    TYP  RCUT                                                     
     0    -12.0371566     23  3.100                                                                 
     0    -13.3977392     23  3.100                                                                 
     1     -3.4971341     23  3.100                                                                 
     1     -5.4423304     23  3.100                                                                 
     2     -1.3605826     23  3.100                                                                 
     3     -1.3605826     23  3.100                                                                 
  local pseudopotential read in
  partial core-charges read in
  partial kinetic energy density read in
  atomic valenz-charges read in
  non local Contribution for L=            0  read in
    real space projection operators read in
  non local Contribution for L=            0  read in
    real space projection operators read in
  non local Contribution for L=            1  read in
    real space projection operators read in
  non local Contribution for L=            1  read in
    real space projection operators read in
  non local Contribution for L=            2  read in
    real space projection operators read in
    PAW grid and wavefunctions read in
 
   number of l-projection  operators is LMAX  =            5
   number of lm-projection operators is LMMAX =           13
 
 Optimization of the real space projectors (new method)

 maximal supplied QI-value         = 34.20
 optimisation between [QCUT,QGAM] = [ 11.29, 22.57] = [ 35.68,142.71] Ry 
 Optimized for a Real-space Cutoff    1.16 Angstroem

   l    n(q)    QCUT    max X(q) W(low)/X(q) W(high)/X(q)  e(spline) 
   0      8    11.287    19.460    0.40E-03    0.73E-03    0.16E-06
   0      8    11.287    12.209    0.38E-03    0.70E-03    0.15E-06
   1      7    11.287     4.655    0.22E-03    0.25E-04    0.22E-06
 Optimization of the real space projectors (new method)

 maximal supplied QI-value         = 25.13
 optimisation between [QCUT,QGAM] = [ 11.31, 22.87] = [ 35.82,146.48] Ry 
 Optimized for a Real-space Cutoff    1.00 Angstroem

   l    n(q)    QCUT    max X(q) W(low)/X(q) W(high)/X(q)  e(spline) 
   0      7    11.310   115.676    0.43E-03    0.13E-02    0.19E-06
   0      7    11.310    87.132    0.43E-03    0.13E-02    0.18E-06
   1      6    11.310     4.429    0.42E-03    0.74E-03    0.11E-06
   1      6    11.310     2.733    0.34E-03    0.55E-03    0.92E-07
 Optimization of the real space projectors (new method)

 maximal supplied QI-value         = 25.13
 optimisation between [QCUT,QGAM] = [ 11.31, 22.87] = [ 35.82,146.48] Ry 
 Optimized for a Real-space Cutoff    1.27 Angstroem

   l    n(q)    QCUT    max X(q) W(low)/X(q) W(high)/X(q)  e(spline) 
   0      9    11.310    79.467    0.75E-04    0.16E-03    0.36E-06
   0      9    11.310    66.151    0.74E-04    0.16E-03    0.36E-06
   1      8    11.310    17.416    0.35E-03    0.12E-03    0.95E-06
   1      8    11.310    12.382    0.37E-03    0.13E-03    0.98E-06
 Optimization of the real space projectors (new method)

 maximal supplied QI-value         = 16.25
 optimisation between [QCUT,QGAM] = [ 11.38, 22.75] = [ 36.24,144.96] Ry 
 Optimized for a Real-space Cutoff    1.31 Angstroem

   l    n(q)    QCUT    max X(q) W(low)/X(q) W(high)/X(q)  e(spline) 
   0      9    11.376   194.483    0.24E-03    0.23E-03    0.67E-07
   0      9    11.376   190.334    0.23E-03    0.22E-03    0.65E-07
   1      8    11.376   116.687    0.25E-03    0.63E-04    0.16E-06
   1      8    11.376    88.696    0.25E-03    0.61E-04    0.16E-06
   2      8    11.376     4.877    0.17E-03    0.14E-03    0.29E-07
 Optimization of the real space projectors (new method)

 maximal supplied QI-value         = 12.09
 optimisation between [QCUT,QGAM] = [ 11.37, 22.86] = [ 36.19,146.31] Ry 
 Optimized for a Real-space Cutoff    1.66 Angstroem

   l    n(q)    QCUT    max X(q) W(low)/X(q) W(high)/X(q)  e(spline) 
   0     11    11.369   135.111    0.12E-03    0.69E-04    0.19E-05
   0     11    11.369   146.850    0.11E-03    0.65E-04    0.18E-05
   1     11    11.369   148.016    0.17E-03    0.32E-03    0.89E-06
   1     11    11.369   122.989    0.17E-03    0.32E-03    0.91E-06
   2     10    11.369     8.916    0.12E-03    0.45E-04    0.33E-06
  PAW_PBE H 15Jun2001                   :
 energy of atom  1       EATOM=  -12.4884
 kinetic energy error for atom=    0.0020 (will be added to EATOM!!)
  PAW_PBE C 08Apr2002                   :
 energy of atom  2       EATOM= -147.1560
 kinetic energy error for atom=    0.0076 (will be added to EATOM!!)
  PAW_PBE N 08Apr2002                   :
 energy of atom  3       EATOM= -264.5486
 kinetic energy error for atom=    0.0138 (will be added to EATOM!!)
  PAW_PBE I 08Apr2002                   :
 energy of atom  4       EATOM= -315.8678
 kinetic energy error for atom=    0.0009 (will be added to EATOM!!)
  PAW_PBE Pb 08Apr2002                  :
 energy of atom  5       EATOM=  -96.9868
 kinetic energy error for atom=    0.0000 (will be added to EATOM!!)
 
 
 POSCAR:  H  C  N  I Pb
  positions in cartesian coordinates
  No initial velocities read in
 exchange correlation table for  LEXCH =        8
   RHO(1)=    0.500       N(1)  =     2000
   RHO(2)=  100.500       N(2)  =     4000
 


--------------------------------------------------------------------------------------------------------


 ion  position               nearest neighbor table
   1  0.408  0.285  0.560- 187 1.02
   2  0.417  0.696  0.571- 188 1.03
   3  0.924  0.293  0.579- 189 1.03
   4  0.925  0.814  0.573- 190 1.03
   5  0.322  0.091  0.563- 194 1.02
   6  0.326  0.571  0.568- 195 1.03
   7  0.795  0.105  0.564- 196 1.02
   8  0.109  0.241  0.562- 183 1.02
   9  0.079  0.684  0.569- 184 1.02
  10  0.582  0.185  0.565- 185 1.02
  11  0.599  0.767  0.559- 186 1.03
  12  0.379  0.017  0.554- 194 1.03
  13  0.256  0.621  0.555- 195 1.02
  14  0.873  0.052  0.556- 196 1.03
  15  0.063  0.290  0.582- 183 1.02
  16  0.993  0.694  0.581- 184 1.03
  17  0.487  0.174  0.570- 185 1.02
  18  0.553  0.698  0.573- 186 1.03
  19  0.306  0.435  0.572- 191 1.03
  20  0.191  0.066  0.568- 192 1.02
  21  0.682  0.031  0.573- 193 1.02
  22  0.458  0.366  0.554- 187 1.03
  23  0.374  0.760  0.554- 188 1.02
  24  0.884  0.244  0.558- 189 1.02
  25  0.970  0.874  0.555- 190 1.03
  26  0.230  0.398  0.559- 191 1.02
  27  0.157  0.980  0.561- 192 1.02
  28  0.686  0.937  0.566- 193 1.02
  29  0.571  0.306  0.555- 146 1.09
  30  0.489  0.815  0.545- 147 1.09
  31  0.999  0.204  0.545- 144 1.09
  32  0.070  0.794  0.550- 145 1.10
  33  0.187  0.514  0.547- 148 1.09
  34  0.276  0.936  0.552- 149 1.10
  35  0.806  0.942  0.555- 150 1.10
  36  0.455  0.299  0.673- 205 1.03
  37  0.441  0.815  0.671- 206 1.03
  38  0.956  0.284  0.676- 207 1.02
  39  0.913  0.740  0.662- 208 1.02
  40  0.296  0.041  0.675- 209 1.02
  41  0.301  0.561  0.673- 210 1.03
  42  0.797  0.051  0.675- 211 1.03
  43  0.833  0.467  0.665- 212 1.02
  44  0.091  0.170  0.647- 197 1.03
  45  0.109  0.700  0.655- 198 1.02
  46  0.577  0.165  0.646- 199 1.02
  47  0.573  0.675  0.652- 200 1.01
  48  0.185  0.412  0.651- 201 1.01
  49  0.165  0.931  0.643- 202 1.02
  50  0.634  0.487  0.655- 203 1.03
  51  0.673  0.918  0.649- 204 1.02
  52  0.063  0.188  0.674- 197 1.03
  53  0.024  0.655  0.659- 198 1.03
  54  0.549  0.190  0.672- 199 1.03
  55  0.544  0.714  0.676- 200 1.03
  56  0.211  0.448  0.676- 201 1.02
  57  0.183  0.952  0.670- 202 1.02
  58  0.697  0.433  0.669- 203 1.03
  59  0.698  0.945  0.675- 204 1.02
  60  0.435  0.337  0.648- 205 1.02
  61  0.416  0.830  0.644- 206 1.02
  62  0.926  0.318  0.652- 207 1.01
  63  0.930  0.833  0.658- 208 1.02
  64  0.343  0.062  0.652- 209 1.02
  65  0.321  0.587  0.647- 210 1.02
  66  0.824  0.081  0.650- 211 1.02
  67  0.851  0.541  0.648- 212 1.02
  68  0.006  0.251  0.632- 151 1.09
  69  0.055  0.816  0.652- 152 1.09
  70  0.509  0.256  0.629- 153 1.09
  71  0.495  0.742  0.630- 154 1.09
  72  0.263  0.997  0.630- 156 1.09
  73  0.251  0.495  0.631- 155 1.09
  74  0.749  1.000  0.632- 158 1.09
  75  0.727  0.559  0.640- 157 1.09
  76  0.449  0.301  0.769- 221 1.02
  77  0.449  0.801  0.769- 222 1.02
  78  0.949  0.301  0.769- 223 1.02
  79  0.949  0.801  0.769- 224 1.02
  80  0.301  0.051  0.769- 225 1.02
  81  0.301  0.551  0.769- 226 1.02
  82  0.801  0.051  0.769- 227 1.02
  83  0.801  0.551  0.769- 228 1.02
  84  0.079  0.171  0.743- 213 1.02
  85  0.079  0.671  0.743- 214 1.02
  86  0.579  0.171  0.743- 215 1.02
  87  0.579  0.671  0.743- 216 1.02
  88  0.171  0.421  0.743- 217 1.02
  89  0.171  0.921  0.743- 218 1.02
  90  0.671  0.421  0.743- 219 1.02
  91  0.671  0.921  0.743- 220 1.02
  92  0.051  0.199  0.769- 213 1.02
  93  0.051  0.699  0.769- 214 1.02
  94  0.551  0.199  0.769- 215 1.02
  95  0.551  0.699  0.769- 216 1.02
  96  0.199  0.449  0.769- 217 1.02
  97  0.199  0.949  0.769- 218 1.02
  98  0.699  0.449  0.769- 219 1.02
  99  0.699  0.949  0.769- 220 1.02
 100  0.421  0.329  0.743- 221 1.02
 101  0.421  0.829  0.743- 222 1.02
 102  0.921  0.329  0.743- 223 1.02
 103  0.921  0.829  0.743- 224 1.02
 104  0.329  0.079  0.743- 225 1.02
 105  0.329  0.579  0.743- 226 1.02
 106  0.829  0.079  0.743- 227 1.02
 107  0.829  0.579  0.743- 228 1.02
 108  0.000  0.250  0.726- 161 1.09
 109  0.000  0.750  0.726- 162 1.09
 110  0.500  0.250  0.726- 159 1.09
 111  0.500  0.750  0.726- 160 1.09
 112  0.250  0.000  0.726- 163 1.09
 113  0.250  0.500  0.726- 164 1.09
 114  0.750  0.000  0.726- 165 1.09
 115  0.750  0.500  0.726- 166 1.09
 116  0.799  0.507  0.514- 173 1.10
 117  0.878  0.500  0.531- 173 1.10
 118  0.757  0.618  0.532- 174 1.10
 119  0.754  0.619  0.560- 174 1.09
 120  0.687  0.440  0.549- 175 1.09
 121  0.667  0.531  0.557- 175 1.10
 122  0.795  0.421  0.566- 176 1.09
 123  0.863  0.491  0.568- 176 1.10
 124  0.859  0.373  0.538- 177 1.10
 125  0.764  0.375  0.531- 177 1.10
 126  0.787  0.383  0.494- 178 1.10
 127  0.880  0.410  0.497- 178 1.11
 128  0.895  0.615  0.533- 179 1.10
 129  0.895  0.605  0.561- 179 1.10
 130  0.860  0.687  0.549- 179 1.10
 131  0.601  0.503  0.524- 180 1.10
 132  0.682  0.478  0.510- 180 1.09
 133  0.667  0.572  0.518- 180 1.10
 134  0.703  0.497  0.587- 181 1.10
 135  0.773  0.567  0.590- 181 1.09
 136  0.785  0.478  0.601- 181 1.10
 137  0.823  0.258  0.512- 182 1.11
 138  0.849  0.275  0.485- 182 1.10
 139  0.925  0.158  0.499- 168 1.09
 140  0.975  0.385  0.516- 169 1.09
 141  0.057  0.125  0.504- 170 1.09
 142  0.105  0.351  0.521- 171 1.09
 143  0.149  0.222  0.515- 172 1.09
 144  0.997  0.239  0.559-  31 1.09 183 1.31 189 1.32
 145  0.023  0.776  0.560-  32 1.10 184 1.31 190 1.32
 146  0.521  0.275  0.558-  29 1.09 185 1.31 187 1.31
 147  0.487  0.766  0.555-  30 1.09 188 1.31 186 1.31
 148  0.240  0.510  0.556-  33 1.09 191 1.31 195 1.32
 149  0.268  0.994  0.557-  34 1.10 194 1.31 192 1.32
 150  0.779  0.993  0.560-  35 1.10 196 1.31 193 1.31
 151  0.008  0.244  0.649-  68 1.09 197 1.31 207 1.31
 152  0.020  0.769  0.656-  69 1.09 208 1.31 198 1.32
 153  0.506  0.251  0.647-  70 1.09 205 1.31 199 1.31
 154  0.494  0.751  0.648-  71 1.09 206 1.31 200 1.31
 155  0.253  0.499  0.649-  73 1.09 210 1.31 201 1.32
 156  0.253  0.997  0.647-  72 1.09 202 1.31 209 1.31
 157  0.742  0.515  0.651-  75 1.09 203 1.31 212 1.32
 158  0.749  0.999  0.649-  74 1.09 211 1.31 204 1.32
 159  0.500  0.250  0.743- 110 1.09 221 1.31 215 1.31
 160  0.500  0.750  0.743- 111 1.09 222 1.31 216 1.31
 161  1.000  0.250  0.743- 108 1.09 223 1.31 213 1.31
 162  1.000  0.750  0.743- 109 1.09 224 1.31 214 1.31
 163  0.250  0.000  0.743- 112 1.09 225 1.31 218 1.31
 164  0.250  0.500  0.743- 113 1.09 226 1.31 217 1.31
 165  0.750  0.000  0.743- 114 1.09 227 1.31 220 1.31
 166  0.750  0.500  0.743- 115 1.09 228 1.31 219 1.31
 167  0.940  0.275  0.506- 169 1.40 168 1.42 182 1.51
 168  0.965  0.201  0.504- 139 1.09 170 1.39 167 1.42
 169  0.991  0.328  0.513- 140 1.09 167 1.40 171 1.40
 170  0.039  0.182  0.506- 141 1.09 168 1.39 172 1.40
 171  0.066  0.309  0.516- 142 1.09 172 1.39 169 1.40
 172  0.090  0.237  0.512- 143 1.09 171 1.39 170 1.40
 173  0.821  0.481  0.528- 117 1.10 116 1.10 229 1.51 177 1.52
 174  0.785  0.598  0.547- 119 1.09 118 1.10 179 1.51 229 1.52
 175  0.694  0.498  0.544- 120 1.09 121 1.10 180 1.51 229 1.52
 176  0.803  0.481  0.568- 122 1.09 123 1.10 181 1.51 229 1.52
 177  0.819  0.397  0.527- 124 1.10 125 1.10 173 1.52 178 1.53
 178  0.837  0.374  0.504- 126 1.10 127 1.11 182 1.52 177 1.53
 179  0.864  0.627  0.547- 128 1.10 129 1.10 130 1.10 174 1.51
 180  0.661  0.514  0.523- 132 1.09 133 1.10 131 1.10 175 1.51
 181  0.763  0.508  0.587- 135 1.09 136 1.10 134 1.10 176 1.51
 182  0.860  0.293  0.502- 138 1.10 137 1.11 167 1.51 178 1.52
 183  0.059  0.257  0.568-   8 1.02  15 1.02 144 1.31
 184  0.030  0.713  0.570-   9 1.02  16 1.03 145 1.31
 185  0.529  0.205  0.563-  17 1.02  10 1.02 146 1.31
 186  0.550  0.741  0.563-  18 1.03  11 1.03 147 1.31
 187  0.457  0.310  0.557-   1 1.02  22 1.03 146 1.31
 188  0.422  0.737  0.559-  23 1.02   2 1.03 147 1.31
 189  0.931  0.260  0.566-  24 1.02   3 1.03 144 1.32
 190  0.966  0.821  0.562-   4 1.03  25 1.03 145 1.32
 191  0.261  0.444  0.562-  26 1.02  19 1.03 148 1.31
 192  0.201  0.015  0.562-  27 1.02  20 1.02 149 1.32
 193  0.710  0.988  0.566-  28 1.02  21 1.02 150 1.31
 194  0.327  0.037  0.557-   5 1.02  12 1.03 149 1.31
 195  0.277  0.571  0.559-  13 1.02   6 1.03 148 1.32
 196  0.818  0.055  0.560-   7 1.02  14 1.03 150 1.31
 197  0.056  0.198  0.657-  44 1.03  52 1.03 151 1.31
 198  0.052  0.703  0.657-  45 1.02  53 1.03 152 1.32
 199  0.546  0.199  0.656-  46 1.02  54 1.03 153 1.31
 200  0.539  0.711  0.659-  47 1.01  55 1.03 154 1.31
 201  0.215  0.450  0.659-  48 1.01  56 1.02 155 1.32
 202  0.197  0.958  0.654-  49 1.02  57 1.02 156 1.31
 203  0.689  0.475  0.659-  58 1.03  50 1.03 157 1.31
 204  0.704  0.951  0.659-  51 1.02  59 1.02 158 1.32
 205  0.463  0.298  0.657-  60 1.02  36 1.03 153 1.31
 206  0.448  0.801  0.655-  61 1.02  37 1.03 154 1.31
 207  0.960  0.285  0.660-  62 1.01  38 1.02 151 1.31
 208  0.949  0.781  0.658-  63 1.02  39 1.02 152 1.31
 209  0.299  0.036  0.659-  64 1.02  40 1.02 156 1.31
 210  0.294  0.552  0.657-  65 1.02  41 1.03 155 1.31
 211  0.792  0.047  0.659-  66 1.02  42 1.03 158 1.31
 212  0.813  0.507  0.655-  67 1.02  43 1.02 157 1.32
 213  0.046  0.204  0.753-  92 1.02  84 1.02 161 1.31
 214  0.046  0.704  0.753-  93 1.02  85 1.02 162 1.31
 215  0.546  0.204  0.753-  94 1.02  86 1.02 159 1.31
 216  0.546  0.704  0.753-  95 1.02  87 1.02 160 1.31
 217  0.204  0.454  0.753-  96 1.02  88 1.02 164 1.31
 218  0.204  0.954  0.753-  97 1.02  89 1.02 163 1.31
 219  0.704  0.454  0.753-  98 1.02  90 1.02 166 1.31
 220  0.704  0.954  0.753-  99 1.02  91 1.02 165 1.31
 221  0.454  0.296  0.753-  76 1.02 100 1.02 159 1.31
 222  0.454  0.796  0.753-  77 1.02 101 1.02 160 1.31
 223  0.954  0.296  0.753-  78 1.02 102 1.02 161 1.31
 224  0.954  0.796  0.753-  79 1.02 103 1.02 162 1.31
 225  0.296  0.046  0.753-  80 1.02 104 1.02 163 1.31
 226  0.296  0.546  0.753-  81 1.02 105 1.02 164 1.31
 227  0.796  0.046  0.753-  82 1.02 106 1.02 165 1.31
 228  0.796  0.546  0.753-  83 1.02 107 1.02 166 1.31
 229  0.776  0.514  0.547- 173 1.51 176 1.52 175 1.52 174 1.52
 230  0.514  0.984  0.553- 304 3.16
 231  0.475  0.511  0.553- 305 3.15
 232  0.006  0.013  0.551- 302 3.28
 233  0.030  0.486  0.554- 303 3.12
 234  0.259  0.239  0.554- 306 3.25
 235  0.230  0.765  0.551- 307 3.28
 236  0.734  0.232  0.554- 308 3.24
 237  0.735  0.795  0.554- 309 3.21
 238  0.996  0.986  0.654- 302 3.17 310 3.17
 239  0.011  0.505  0.655- 311 3.12 303 3.21
 240  0.497  0.003  0.655- 312 3.13 304 3.20
 241  0.495  0.505  0.654- 313 3.19 305 3.19
 242  0.263  0.243  0.655- 306 3.10 314 3.12
 243  0.246  0.756  0.654- 307 3.17 315 3.20
 244  0.746  0.270  0.655- 308 3.11 316 3.12
 245  0.750  0.733  0.654- 317 3.17 309 3.17
 246  0.135  0.117  0.608- 302 3.20 306 3.22
 247  0.147  0.609  0.606- 303 3.14 307 3.17
 248  0.637  0.114  0.608- 308 3.20 304 3.27
 249  0.619  0.631  0.607- 305 3.20 309 3.31
 250  0.368  0.384  0.608- 306 3.19 305 3.20
 251  0.364  0.885  0.605- 304 3.17 307 3.21
 252  0.888  0.367  0.611- 308 3.30 303 3.32
 253  0.862  0.891  0.607- 309 3.12 302 3.22
 254  0.127  0.368  0.612- 306 3.22 303 3.23
 255  0.116  0.873  0.606- 307 3.14 302 3.23
 256  0.612  0.365  0.602- 305 3.17 308 3.19
 257  0.617  0.864  0.613- 309 3.16 304 3.17
 258  0.395  0.137  0.604- 306 3.20 304 3.24
 259  0.379  0.634  0.607- 305 3.27 307 3.30
 260  0.882  0.136  0.612- 302 3.16 308 3.23
 261  0.902  0.646  0.610- 303 3.30 309 3.38
 262  0.000  0.000  0.755- 310 3.13 318 3.27
 263  0.000  0.500  0.755- 311 3.13 319 3.27
 264  0.500  0.000  0.755- 312 3.13 320 3.27
 265  0.500  0.500  0.755- 313 3.13 321 3.27
 266  0.250  0.250  0.755- 314 3.13 322 3.27
 267  0.250  0.750  0.755- 315 3.13 323 3.27
 268  0.750  0.250  0.755- 316 3.13 324 3.27
 269  0.750  0.750  0.755- 317 3.13 325 3.27
 270  0.136  0.114  0.705- 310 3.20 314 3.20
 271  0.136  0.614  0.705- 311 3.20 315 3.20
 272  0.636  0.114  0.705- 312 3.20 316 3.20
 273  0.636  0.614  0.705- 313 3.20 317 3.20
 274  0.364  0.386  0.705- 313 3.20 314 3.20
 275  0.364  0.886  0.705- 312 3.20 315 3.20
 276  0.864  0.386  0.705- 311 3.20 316 3.20
 277  0.864  0.886  0.705- 310 3.20 317 3.20
 278  0.114  0.364  0.705- 314 3.21 311 3.21
 279  0.114  0.864  0.705- 315 3.21 310 3.21
 280  0.614  0.364  0.705- 316 3.21 313 3.21
 281  0.614  0.864  0.705- 317 3.21 312 3.21
 282  0.386  0.136  0.705- 314 3.21 312 3.21
 283  0.386  0.636  0.705- 315 3.21 313 3.21
 284  0.886  0.136  0.705- 316 3.21 310 3.21
 285  0.886  0.636  0.705- 317 3.21 311 3.21
 286  0.135  0.115  0.801- 318 3.22 322 3.22
 287  0.135  0.615  0.801- 319 3.22 323 3.22
 288  0.635  0.115  0.801- 320 3.22 324 3.22
 289  0.635  0.615  0.801- 321 3.22 325 3.22
 290  0.365  0.385  0.801- 321 3.22 322 3.22
 291  0.365  0.885  0.801- 320 3.22 323 3.22
 292  0.865  0.385  0.801- 319 3.22 324 3.22
 293  0.865  0.885  0.801- 318 3.22 325 3.22
 294  0.115  0.365  0.801- 319 3.23 322 3.23
 295  0.115  0.865  0.801- 318 3.23 323 3.23
 296  0.615  0.365  0.801- 321 3.23 324 3.23
 297  0.615  0.865  0.801- 320 3.23 325 3.23
 298  0.385  0.135  0.801- 320 3.23 322 3.23
 299  0.385  0.635  0.801- 321 3.23 323 3.23
 300  0.885  0.135  0.801- 318 3.23 324 3.23
 301  0.885  0.635  0.801- 319 3.23 325 3.23
 302  0.996  0.007  0.604- 260 3.16 238 3.17 246 3.20 253 3.22 255 3.23 232 3.28
 303  0.011  0.501  0.604- 233 3.12 247 3.14 239 3.21 254 3.23 261 3.30 252 3.32
 304  0.502  0.994  0.604- 230 3.16 251 3.17 257 3.17 240 3.20 258 3.24 248 3.27
 305  0.500  0.500  0.603- 231 3.15 256 3.17 241 3.19 250 3.20 249 3.20 259 3.27
 306  0.256  0.247  0.605- 242 3.10 250 3.19 258 3.20 254 3.22 246 3.22 234 3.25
 307  0.243  0.755  0.603- 255 3.14 243 3.17 247 3.17 251 3.21 235 3.28 259 3.30
 308  0.747  0.252  0.606- 244 3.11 256 3.19 248 3.20 260 3.23 236 3.24 252 3.30
 309  0.752  0.757  0.604- 253 3.12 257 3.16 245 3.17 237 3.21 249 3.31 261 3.38
 310  0.000  0.000  0.705- 262 3.13 238 3.17 270 3.20 277 3.20 279 3.21 284 3.21
 311  0.000  0.500  0.705- 239 3.12 263 3.13 271 3.20 276 3.20 278 3.21 285 3.21
 312  0.500  0.000  0.705- 240 3.13 264 3.13 272 3.20 275 3.20 281 3.21 282 3.21
 313  0.500  0.500  0.705- 265 3.13 241 3.19 273 3.20 274 3.20 280 3.21 283 3.21
 314  0.250  0.250  0.705- 242 3.12 266 3.13 270 3.20 274 3.20 282 3.21 278 3.21
 315  0.250  0.750  0.705- 267 3.13 243 3.20 271 3.20 275 3.20 283 3.21 279 3.21
 316  0.750  0.250  0.705- 244 3.12 268 3.13 272 3.20 276 3.20 284 3.21 280 3.21
 317  0.750  0.750  0.705- 269 3.13 245 3.17 273 3.20 277 3.20 285 3.21 281 3.21
 318  0.000  0.000  0.807- 286 3.22 293 3.22 300 3.23 295 3.23 262 3.27
 319  0.000  0.500  0.807- 287 3.22 292 3.22 301 3.23 294 3.23 263 3.27
 320  0.500  0.000  0.807- 288 3.22 291 3.22 298 3.23 297 3.23 264 3.27
 321  0.500  0.500  0.807- 289 3.22 290 3.22 299 3.23 296 3.23 265 3.27
 322  0.250  0.250  0.807- 290 3.22 286 3.22 294 3.23 298 3.23 266 3.27
 323  0.250  0.750  0.807- 291 3.22 287 3.22 299 3.23 295 3.23 267 3.27
 324  0.750  0.250  0.807- 292 3.22 288 3.22 296 3.23 300 3.23 268 3.27
 325  0.750  0.750  0.807- 293 3.22 289 3.22 297 3.23 301 3.23 269 3.27
 

IMPORTANT INFORMATION: All symmetrisations will be switched off!
NOSYMM: (Re-)initialisation of all symmetry stuff for point group C_1.


----------------------------------------------------------------------------------------

                                     Primitive cell                                     

  volume of cell :   20385.2105

  direct lattice vectors                    reciprocal lattice vectors
    18.060800552  0.000000000  0.000000000     0.055368531  0.000015077 -0.000000000
    -0.004918649 18.062799454  0.000000000     0.000000000  0.055362404  0.000000000
     0.000000000  0.000000000 62.487499237     0.000000000 -0.000000000  0.016003201

  length of vectors
    18.060800552 18.062800123 62.487499237     0.055368533  0.055362404  0.016003201

  position of ions in fractional coordinates (direct lattice)
     0.407514017  0.284857255  0.559863933
     0.416634088  0.695713323  0.570716811
     0.924364656  0.292895810  0.579016323
     0.925114681  0.813692957  0.572781861
     0.322446227  0.090640502  0.562648425
     0.325630433  0.570591373  0.567835681
     0.795454506  0.104986457  0.564157455
     0.108604574  0.241328611  0.561833138
     0.079007796  0.684289009  0.568800962
     0.581818097  0.184991020  0.565009005
     0.598905680  0.767380977  0.559302663
     0.378905435  0.016840748  0.554250200
     0.256055096  0.621347283  0.554928986
     0.873231154  0.052376935  0.555884011
     0.062531518  0.289966145  0.581539716
     0.992594280  0.693655004  0.580894384
     0.487289224  0.173680670  0.569644820
     0.552949566  0.697873910  0.573412419
     0.306153140  0.435479993  0.571616222
     0.190774886  0.066129387  0.568489376
     0.682112082  0.030987094  0.573469620
     0.457820263  0.365673933  0.553767621
     0.374185389  0.759572461  0.553768842
     0.883722058  0.244327969  0.557780325
     0.970384145  0.873533346  0.555361751
     0.230059772  0.397768811  0.558736510
     0.157459681  0.979766864  0.561279743
     0.685509667  0.937123387  0.566143570
     0.570880089  0.305720293  0.554759457
     0.489104375  0.814591416  0.544774306
     0.999196892  0.204095658  0.544571323
     0.069595720  0.793827980  0.549701072
     0.187097261  0.513759451  0.547132382
     0.275907423  0.936488436  0.551752508
     0.805699276  0.942256842  0.554930268
     0.455169607  0.298890277  0.673024139
     0.441438267  0.815353551  0.670702325
     0.955949592  0.284423389  0.676319354
     0.912605496  0.739924852  0.662319301
     0.295731418  0.040652756  0.675210001
     0.300814357  0.561404626  0.672962482
     0.797260737  0.051205225  0.675364024
     0.832784311  0.467056979  0.664912654
     0.090706152  0.170196114  0.647236694
     0.108717022  0.700419974  0.655181398
     0.576604315  0.165169152  0.646221171
     0.572947036  0.674515520  0.651859384
     0.184978635  0.411813475  0.651284195
     0.164580217  0.930875452  0.643424591
     0.634205476  0.487181510  0.654891484
     0.672507205  0.917887079  0.649177451
     0.062960090  0.188118664  0.673520882
     0.024247600  0.654718019  0.659431516
     0.548736775  0.189817100  0.671873763
     0.544061550  0.714096691  0.675693008
     0.211413819  0.447971137  0.675835615
     0.182882775  0.952412424  0.670047653
     0.696969745  0.432967720  0.669362091
     0.697534653  0.945197912  0.674800984
     0.434946556  0.337355146  0.648254170
     0.416334641  0.829597896  0.644032440
     0.925606149  0.318157531  0.651792415
     0.930023779  0.833465380  0.657508097
     0.342519323  0.062380096  0.651961760
     0.321035046  0.587072915  0.646723652
     0.824011709  0.080711835  0.649883769
     0.850983237  0.541216263  0.647850159
     0.006484142  0.250609444  0.631775899
     0.054817610  0.816376559  0.651878858
     0.508989603  0.256166640  0.629265326
     0.495463324  0.741797111  0.630494942
     0.262880206  0.996590524  0.629952964
     0.250875419  0.495444509  0.631209196
     0.749415603  0.999635596  0.631835481
     0.726661843  0.559494247  0.639547046
     0.448745018  0.301283966  0.768889017
     0.448745007  0.801283913  0.768889017
     0.948744965  0.301283966  0.768889017
     0.948745007  0.801283913  0.768889017
     0.301275995  0.051294496  0.768872961
     0.301276011  0.551294499  0.768872961
     0.801275943  0.051294496  0.768872961
     0.801275984  0.551294499  0.768872961
     0.078771004  0.171180501  0.743441971
     0.078771006  0.671180448  0.743441971
     0.578771004  0.171180501  0.743441971
     0.578770992  0.671180448  0.743441971
     0.171199499  0.421174482  0.743421032
     0.171199501  0.921174508  0.743421032
     0.671199512  0.421174482  0.743421032
     0.671199501  0.921174508  0.743421032
     0.051256000  0.198714991  0.768889017
     0.051256002  0.698714925  0.768889017
     0.551256027  0.198714991  0.768889017
     0.551256016  0.698714925  0.768889017
     0.198723491  0.448703970  0.768872046
     0.198723493  0.948703970  0.768872046
     0.698723518  0.448703970  0.768872046
     0.698723507  0.948703970  0.768872046
     0.421231519  0.328817467  0.743441971
     0.421231508  0.828817440  0.743441971
     0.921231466  0.328817467  0.743441971
     0.921231508  0.828817440  0.743441971
     0.328800503  0.078824997  0.743421032
     0.328800492  0.578824964  0.743421032
     0.828800477  0.078824997  0.743421032
     0.828800519  0.578824964  0.743421032
     0.000003500  0.250001478  0.725821992
     0.000003500  0.750001452  0.725821992
     0.500003506  0.250001478  0.725821992
     0.500003495  0.750001452  0.725821992
     0.250000502  0.000000000  0.725803983
     0.250000517  0.500000000  0.725803983
     0.750000502  0.000000000  0.725803983
     0.750000490  0.500000000  0.725803983
     0.799451026  0.507228322  0.513799299
     0.878125152  0.499704280  0.530762226
     0.756986917  0.618039877  0.532106061
     0.754026268  0.618593883  0.560303352
     0.686822343  0.439802382  0.548741469
     0.666885990  0.531498265  0.556632818
     0.795347455  0.420768177  0.565903227
     0.862882808  0.490517321  0.568095254
     0.858590972  0.372960676  0.538076494
     0.764147386  0.375065799  0.531263364
     0.787139383  0.383447355  0.493865869
     0.880461786  0.410021257  0.497073694
     0.895472233  0.615094135  0.532581193
     0.895102038  0.605245568  0.560951980
     0.860290733  0.687308985  0.548965207
     0.601368663  0.503163374  0.524066368
     0.682170060  0.478095342  0.509827802
     0.667134408  0.572131271  0.517829219
     0.703372274  0.496733881  0.586807493
     0.773052812  0.566830699  0.590239576
     0.785128519  0.477874700  0.600973962
     0.823033760  0.258214927  0.511568506
     0.849037615  0.275117478  0.484905947
     0.925199594  0.158367660  0.498937318
     0.974633382  0.384655631  0.515741582
     0.056760094  0.125170471  0.504196884
     0.104866712  0.351440992  0.521070346
     0.148518359  0.222353724  0.514929286
     0.996545205  0.239001051  0.558841756
     0.023388616  0.776423059  0.559914297
     0.520533052  0.274634484  0.558318458
     0.486678346  0.765650057  0.555045159
     0.239916478  0.509645296  0.555639638
     0.268312946  0.994048650  0.556893673
     0.779462841  0.993479605  0.560498520
     0.007827569  0.244366749  0.649154619
     0.020249276  0.768731754  0.655656408
     0.505770038  0.251414978  0.646604060
     0.494086756  0.751372925  0.647695892
     0.253271791  0.499473343  0.648628330
     0.252943963  0.997311019  0.647155257
     0.742092437  0.515378862  0.650616520
     0.748791263  0.999280365  0.649318592
     0.499988984  0.249994984  0.743277021
     0.499989025  0.749994958  0.743277021
     0.999988984  0.249994984  0.743277021
     0.999989025  0.749994958  0.743277021
     0.250000502  0.000001000  0.743255960
     0.250000517  0.500001003  0.743255960
     0.750000502  0.000001000  0.743255960
     0.750000491  0.500001003  0.743255960
     0.939501303  0.274604944  0.506458354
     0.964862047  0.201095336  0.503516603
     0.991295550  0.327686698  0.512783837
     0.038923756  0.182419389  0.506498584
     0.066006661  0.309099505  0.515695797
     0.090422268  0.236920715  0.512446673
     0.820825695  0.481455493  0.528461290
     0.785370392  0.598208373  0.546544985
     0.694051729  0.497969242  0.544320968
     0.802954569  0.480571765  0.567520127
     0.818767781  0.397305327  0.526740547
     0.836865749  0.373556630  0.503759877
     0.864091270  0.626825045  0.547204540
     0.661018490  0.513963989  0.522538718
     0.763086668  0.508070340  0.587142521
     0.859706478  0.292806820  0.501509732
     0.059108025  0.256899789  0.568250498
     0.030489582  0.712626433  0.569802810
     0.529125641  0.204737823  0.563423360
     0.549723690  0.740523420  0.562579381
     0.457203737  0.309670881  0.556653208
     0.422101686  0.736629747  0.559459860
     0.930913280  0.260059309  0.565621066
     0.965849221  0.821001163  0.561541575
     0.261004238  0.443541780  0.561952058
     0.200978900  0.015205318  0.562244292
     0.709797283  0.988084853  0.566399725
     0.326556731  0.037461884  0.557290420
     0.277437410  0.570912806  0.559135455
     0.818426581  0.054955644  0.560311227
     0.056075613  0.198141529  0.657421898
     0.052429702  0.703499083  0.656987668
     0.545835997  0.199453644  0.655700484
     0.538983321  0.710972334  0.659319555
     0.214708691  0.450139222  0.659485604
     0.196690210  0.958255064  0.654265749
     0.688561966  0.475130276  0.658654993
     0.704461847  0.951025016  0.658613054
     0.462998549  0.298396011  0.656768202
     0.447554885  0.801154823  0.654896795
     0.960459439  0.284695086  0.660062379
     0.949119633  0.780533413  0.658294875
     0.298976080  0.036156794  0.658961940
     0.293776565  0.552278649  0.656818506
     0.791925948  0.046768469  0.659037455
     0.813036118  0.507250603  0.654890996
     0.045862501  0.204119496  0.752725994
     0.045862500  0.704119456  0.752725994
     0.545862507  0.204119496  0.752725994
     0.545862496  0.704119456  0.752725994
     0.204119002  0.454101003  0.752704994
     0.204118991  0.954100951  0.752704994
     0.704118976  0.454101003  0.752704994
     0.704118964  0.954100951  0.752704994
     0.454140018  0.295888490  0.752726971
     0.454140007  0.795888516  0.752726971
     0.954140018  0.295888490  0.752726971
     0.954140060  0.795888516  0.752726971
     0.295882492  0.045900498  0.752704994
     0.295882481  0.545900528  0.752704994
     0.795882439  0.045900498  0.752704994
     0.795882481  0.545900528  0.752704994
     0.776311270  0.514299043  0.546627826
     0.514258487  0.983902373  0.553262393
     0.475140334  0.511210747  0.553087309
     0.005949278  0.012606385  0.551497208
     0.030277079  0.486107340  0.554153989
     0.259373773  0.238804142  0.553619886
     0.229916349  0.764769709  0.550603291
     0.734001188  0.231705200  0.554417958
     0.734712118  0.794699301  0.554026523
     0.995541726  0.986029215  0.654281316
     0.010716843  0.504683420  0.654943863
     0.496962658  0.002802227  0.654785506
     0.494949694  0.504632365  0.653864484
     0.262548320  0.242867321  0.655064493
     0.245850608  0.755548748  0.653632810
     0.745776187  0.270170042  0.655225597
     0.749874689  0.733164001  0.654378442
     0.134806716  0.116630257  0.608287681
     0.146795559  0.608610049  0.606375250
     0.636503245  0.113835649  0.608122364
     0.619382303  0.631035556  0.606668949
     0.367659250  0.384044207  0.607840264
     0.364425808  0.884893405  0.605066516
     0.887549592  0.367315941  0.611032065
     0.861727473  0.890537585  0.606957336
     0.126942991  0.368119258  0.611902112
     0.115540775  0.873287097  0.605918066
     0.611899683  0.364870193  0.602472186
     0.616633784  0.864328014  0.612681809
     0.395109672  0.137404068  0.603929204
     0.379493327  0.634391378  0.606979497
     0.881953922  0.136104558  0.612070236
     0.901806956  0.646456445  0.609625473
     0.000000000  0.000000000  0.754927972
     0.000000000  0.500000000  0.754927972
     0.500000000  0.000000000  0.754927972
     0.499999989  0.500000000  0.754927972
     0.250000496  0.250000000  0.754939022
     0.250000511  0.749999974  0.754939022
     0.750000470  0.250000000  0.754939022
     0.750000458  0.749999974  0.754939022
     0.135790500  0.114209997  0.704782994
     0.135790502  0.614209984  0.704782994
     0.635790447  0.114209997  0.704782994
     0.635790488  0.614209984  0.704782994
     0.364209516  0.385789989  0.704782994
     0.364209505  0.885789963  0.704782994
     0.864209542  0.385789989  0.704782994
     0.864209531  0.885789963  0.704782994
     0.114217990  0.364218986  0.704780979
     0.114217992  0.864218986  0.704780979
     0.614218004  0.364218986  0.704780979
     0.614217992  0.864218986  0.704780979
     0.385782012  0.135781489  0.704782017
     0.385782001  0.635781489  0.704782017
     0.885781985  0.135781489  0.704782017
     0.885782027  0.635781489  0.704782017
     0.134667000  0.115332001  0.801256025
     0.134666989  0.615331988  0.801256025
     0.634666987  0.115332001  0.801256025
     0.634666976  0.615331988  0.801256025
     0.365333002  0.384667985  0.801256025
     0.365332990  0.884667959  0.801256025
     0.865332949  0.384667985  0.801256025
     0.865332938  0.884667959  0.801256025
     0.115328503  0.365337004  0.801264999
     0.115328505  0.865336978  0.801264999
     0.615328503  0.365337004  0.801264999
     0.615328492  0.865336978  0.801264999
     0.384671513  0.134662996  0.801264999
     0.384671501  0.634662970  0.801264999
     0.884671486  0.134662996  0.801264999
     0.884671528  0.634662970  0.801264999
     0.996486202  0.006627441  0.603913698
     0.010706596  0.501239373  0.603619633
     0.502002941  0.993589935  0.603607789
     0.500285649  0.500167844  0.602821255
     0.255945587  0.247257476  0.605499831
     0.242838518  0.755196218  0.602871558
     0.747213833  0.251809588  0.605758427
     0.752066738  0.757261453  0.604066744
     0.000000500  0.000000500  0.704828963
     0.000000500  0.500000475  0.704828963
     0.500000475  0.000000500  0.704828963
     0.500000464  0.500000475  0.704828963
     0.249999994  0.249999472  0.704824995
     0.250000010  0.749999498  0.704824995
     0.749999994  0.249999472  0.704824995
     0.749999983  0.749999498  0.704824995
     0.000000000  0.000000000  0.807317968
     0.000000000  0.500000000  0.807317968
     0.500000000  0.000000000  0.807317968
     0.499999989  0.500000000  0.807317968
     0.249999994  0.250000000  0.807317968
     0.250000010  0.749999974  0.807317968
     0.749999994  0.250000000  0.807317968
     0.749999983  0.749999974  0.807317968

  ion indices of the primitive-cell ions
   primitive index   ion index
                 1           1
                 2           2
                 3           3
                 4           4
                 5           5
                 6           6
                 7           7
                 8           8
                 9           9
                10          10
                11          11
                12          12
                13          13
                14          14
                15          15
                16          16
                17          17
                18          18
                19          19
                20          20
                21          21
                22          22
                23          23
                24          24
                25          25
                26          26
                27          27
                28          28
                29          29
                30          30
                31          31
                32          32
                33          33
                34          34
                35          35
                36          36
                37          37
                38          38
                39          39
                40          40
                41          41
                42          42
                43          43
                44          44
                45          45
                46          46
                47          47
                48          48
                49          49
                50          50
                51          51
                52          52
                53          53
                54          54
                55          55
                56          56
                57          57
                58          58
                59          59
                60          60
                61          61
                62          62
                63          63
                64          64
                65          65
                66          66
                67          67
                68          68
                69          69
                70          70
                71          71
                72          72
                73          73
                74          74
                75          75
                76          76
                77          77
                78          78
                79          79
                80          80
                81          81
                82          82
                83          83
                84          84
                85          85
                86          86
                87          87
                88          88
                89          89
                90          90
                91          91
                92          92
                93          93
                94          94
                95          95
                96          96
                97          97
                98          98
                99          99
               100         100
               101         101
               102         102
               103         103
               104         104
               105         105
               106         106
               107         107
               108         108
               109         109
               110         110
               111         111
               112         112
               113         113
               114         114
               115         115
               116         116
               117         117
               118         118
               119         119
               120         120
               121         121
               122         122
               123         123
               124         124
               125         125
               126         126
               127         127
               128         128
               129         129
               130         130
               131         131
               132         132
               133         133
               134         134
               135         135
               136         136
               137         137
               138         138
               139         139
               140         140
               141         141
               142         142
               143         143
               144         144
               145         145
               146         146
               147         147
               148         148
               149         149
               150         150
               151         151
               152         152
               153         153
               154         154
               155         155
               156         156
               157         157
               158         158
               159         159
               160         160
               161         161
               162         162
               163         163
               164         164
               165         165
               166         166
               167         167
               168         168
               169         169
               170         170
               171         171
               172         172
               173         173
               174         174
               175         175
               176         176
               177         177
               178         178
               179         179
               180         180
               181         181
               182         182
               183         183
               184         184
               185         185
               186         186
               187         187
               188         188
               189         189
               190         190
               191         191
               192         192
               193         193
               194         194
               195         195
               196         196
               197         197
               198         198
               199         199
               200         200
               201         201
               202         202
               203         203
               204         204
               205         205
               206         206
               207         207
               208         208
               209         209
               210         210
               211         211
               212         212
               213         213
               214         214
               215         215
               216         216
               217         217
               218         218
               219         219
               220         220
               221         221
               222         222
               223         223
               224         224
               225         225
               226         226
               227         227
               228         228
               229         229
               230         230
               231         231
               232         232
               233         233
               234         234
               235         235
               236         236
               237         237
               238         238
               239         239
               240         240
               241         241
               242         242
               243         243
               244         244
               245         245
               246         246
               247         247
               248         248
               249         249
               250         250
               251         251
               252         252
               253         253
               254         254
               255         255
               256         256
               257         257
               258         258
               259         259
               260         260
               261         261
               262         262
               263         263
               264         264
               265         265
               266         266
               267         267
               268         268
               269         269
               270         270
               271         271
               272         272
               273         273
               274         274
               275         275
               276         276
               277         277
               278         278
               279         279
               280         280
               281         281
               282         282
               283         283
               284         284
               285         285
               286         286
               287         287
               288         288
               289         289
               290         290
               291         291
               292         292
               293         293
               294         294
               295         295
               296         296
               297         297
               298         298
               299         299
               300         300
               301         301
               302         302
               303         303
               304         304
               305         305
               306         306
               307         307
               308         308
               309         309
               310         310
               311         311
               312         312
               313         313
               314         314
               315         315
               316         316
               317         317
               318         318
               319         319
               320         320
               321         321
               322         322
               323         323
               324         324
               325         325

----------------------------------------------------------------------------------------

 
 
 KPOINTS: Automatic Mesh                          

Automatic generation of k-mesh.
 Grid dimensions read from file:
 generate k-points for:    3    3    1

 Generating k-lattice:

  Cartesian coordinates                     Fractional coordinates (reciprocal lattice)
     0.018456177  0.000005026 -0.000000000     0.333333333  0.000000000  0.000000000
     0.000000000  0.018454135  0.000000000     0.000000000  0.333333333  0.000000000
     0.000000000 -0.000000000  0.016003201     0.000000000  0.000000000  1.000000000

  Length of vectors
     0.018456178  0.018454135  0.016003201

  Shift w.r.t. Gamma in fractional coordinates (k-lattice)
     0.000000000  0.000000000  0.000000000

 
 Subroutine IBZKPT returns following result:
 ===========================================
 
 Found      5 irreducible k-points:
 
 Following reciprocal coordinates:
            Coordinates               Weight
  0.000000  0.000000  0.000000      1.000000
  0.333333  0.000000  0.000000      2.000000
  0.000000  0.333333  0.000000      2.000000
  0.333333  0.333333  0.000000      2.000000
 -0.333333  0.333333  0.000000      2.000000
 
 Following cartesian coordinates:
            Coordinates               Weight
  0.000000  0.000000  0.000000      1.000000
  0.018456  0.000005  0.000000      2.000000
  0.000000  0.018454  0.000000      2.000000
  0.018456  0.018459  0.000000      2.000000
 -0.018456  0.018449  0.000000      2.000000
 


--------------------------------------------------------------------------------------------------------




 Dimension of arrays:
   k-points           NKPTS =      5   k-points in BZ     NKDIM =      5   number of bands    NBANDS=    732
   number of dos      NEDOS =    301   number of ions     NIONS =    325
   non local maximal  LDIM  =      5   non local SUM 2l+1 LMDIM =     13
   total plane-waves  NPLWV = ******
   max r-space proj   IRMAX =   3336   max aug-charges    IRDMAX=  19845
   dimension x,y,z NGX =   100 NGY =  100 NGZ =  350
   dimension x,y,z NGXF=   200 NGYF=  200 NGZF=  700
   support grid    NGXF=   200 NGYF=  200 NGZF=  700
   ions per type =             143  39  47  72  24
   NGX,Y,Z   is equivalent  to a cutoff of   9.20,  9.20,  9.31 a.u.
   NGXF,Y,Z  is equivalent  to a cutoff of  18.41, 18.41, 18.62 a.u.

 SYSTEM =  PSC                                     
 POSCAR =   H  C  N  I Pb                          

 Startparameter for this run:
   NWRITE =      2    write-flag & timer
   PREC   = normal    normal or accurate (medium, high low for compatibility)
   ISTART =      0    job   : 0-new  1-cont  2-samecut
   ICHARG =      1    charge: 1-file 2-atom 10-const
   ISPIN  =      1    spin polarized calculation?
   LNONCOLLINEAR =      F non collinear calculations
   LSORBIT =      F    spin-orbit coupling
   INIWAV =      1    electr: 0-lowe 1-rand  2-diag
   LASPH  =      F    aspherical Exc in radial PAW
 Electronic Relaxation 1
   ENCUT  =  500.0 eV  36.75 Ry    6.06 a.u.  32.93 32.93113.93*2*pi/ulx,y,z
   ENINI  =  500.0     initial cutoff
   ENAUG  =  644.9 eV  augmentation charge cutoff
   NELM   =    600;   NELMIN=  2; NELMDL=  0     # of ELM steps 
   EDIFF  = 0.1E-03   stopping-criterion for ELM
   LREAL  =      T    real-space projection
   NLSPLINE    = F    spline interpolate recip. space projectors
   LCOMPAT=      F    compatible to vasp.4.4
   GGA_COMPAT  = F    GGA compatible to vasp.4.4-vasp.4.6
   LMAXPAW     = -100 max onsite density
   LMAXMIX     =    2 max onsite mixed and CHGCAR
   VOSKOWN=      0    Vosko Wilk Nusair interpolation
   ROPT   =   -0.00050  -0.00050  -0.00050  -0.00050
   ROPT   =   -0.00050
 Ionic relaxation
   EDIFFG = 0.1E-02   stopping-criterion for IOM
   NSW    =      0    number of steps for IOM
   NBLOCK =      1;   KBLOCK =      1    inner block; outer block 
   IBRION =     -1    ionic relax: 0-MD 1-quasi-New 2-CG
   NFREE  =      0    steps in history (QN), initial steepest desc. (CG)
   ISIF   =      2    stress and relaxation
   IWAVPR =     10    prediction:  0-non 1-charg 2-wave 3-comb
   ISYM   =      0    0-nonsym 1-usesym 2-fastsym
   LCORR  =      T    Harris-Foulkes like correction to forces

   POTIM  = 0.5000    time-step for ionic-motion
   TEIN   =    0.0    initial temperature
   TEBEG  =    0.0;   TEEND  =   0.0 temperature during run
   SMASS  =  -3.00    Nose mass-parameter (am)
   estimated Nose-frequenzy (Omega)   =  0.10E-29 period in steps = 0.13E+47 mass=  -0.745E-26a.u.
   SCALEE = 1.0000    scale energy and forces
   NPACO  =    256;   APACO  = 16.0  distance and # of slots for P.C.
   PSTRESS=    0.0 pullay stress

  Mass of Ions in am
   POMASS =   1.00 12.01 14.00126.90207.20
  Ionic Valenz
   ZVAL   =   1.00  4.00  5.00  7.00  4.00
  Atomic Wigner-Seitz radii
   RWIGS  =  -1.00 -1.00 -1.00 -1.00 -1.00
  virtual crystal weights 
   VCA    =   1.00  1.00  1.00  1.00  1.00
   NELECT =    1134.0000    total number of electrons
   NUPDOWN=      -1.0000    fix difference up-down

 DOS related values:
   EMIN   =  10.00;   EMAX   =-10.00  energy-range for DOS
   EFERMI =   0.00
   ISMEAR =     0;   SIGMA  =   0.05  broadening in eV -4-tet -1-fermi 0-gaus

 Electronic relaxation 2 (details)
   IALGO  =     38    algorithm
   LDIAG  =      T    sub-space diagonalisation (order eigenvalues)
   LSUBROT=      F    optimize rotation matrix (better conditioning)
   TURBO    =      0    0=normal 1=particle mesh
   IRESTART =      0    0=no restart 2=restart with 2 vectors
   NREBOOT  =      0    no. of reboots
   NMIN     =      0    reboot dimension
   EREF     =   0.00    reference energy to select bands
   IMIX   =      4    mixing-type and parameters
     AMIX     =   0.40;   BMIX     =  0.01
     AMIX_MAG =   1.60;   BMIX_MAG =  0.01
     AMIN     =   0.01
     WC   =   100.;   INIMIX=   1;  MIXPRE=   1;  MAXMIX= -45

 Intra band minimization:
   WEIMIN = 0.0000     energy-eigenvalue tresh-hold
   EBREAK =  0.34E-07  absolut break condition
   DEPER  =   0.30     relativ break condition  

   TIME   =   0.40     timestep for ELM

  volume/ion in A,a.u.               =      62.72       423.28
  Fermi-wavevector in a.u.,A,eV,Ry     =   0.624944  1.180972  5.313816  0.390554
  Thomas-Fermi vector in A             =   1.685677
 
 Write flags
   LWAVE        =      F    write WAVECAR
   LDOWNSAMPLE  =      F    k-point downsampling of WAVECAR
   LCHARG       =      T    write CHGCAR
   LVTOT        =      T    write LOCPOT, total local potential
   LVHAR        =      F    write LOCPOT, Hartree potential only
   LELF         =      F    write electronic localiz. function (ELF)
   LORBIT       =      0    0 simple, 1 ext, 2 COOP (PROOUT), +10 PAW based schemes


 Dipole corrections
   LMONO  =      F    monopole corrections only (constant potential shift)
   LDIPOL =      T    correct potential (dipole corrections)
   IDIPOL =      3    1-x, 2-y, 3-z, 4-all directions 
   EPSILON=  1.0000000 bulk dielectric constant

 Exchange correlation treatment:
   GGA     =    --    GGA type
   LEXCH   =     8    internal setting for exchange type
   VOSKOWN=      0    Vosko Wilk Nusair interpolation
   LHFCALC =     F    Hartree Fock is set to
   LHFONE  =     F    Hartree Fock one center treatment
   AEXX    =    0.0000 exact exchange contribution

 Linear response parameters
   LEPSILON=     F    determine dielectric tensor
   LRPA    =     F    only Hartree local field effects (RPA)
   LNABLA  =     F    use nabla operator in PAW spheres
   LVEL    =     F    velocity operator in full k-point grid
   LINTERFAST=   F  fast interpolation
   KINTER  =     0    interpolate to denser k-point grid
   CSHIFT  =0.1000    complex shift for real part using Kramers Kronig
   OMEGAMAX=  -1.0    maximum frequency
   DEG_THRESHOLD= 0.2000000E-02 threshold for treating states as degnerate
   RTIME   =   -0.100 relaxation time in fs
  (WPLASMAI=    0.000 imaginary part of plasma frequency in eV, 0.658/RTIME)
   DFIELD  = 0.0000000 0.0000000 0.0000000 field for delta impulse in time
 
 Orbital magnetization related:
   ORBITALMAG=     F  switch on orbital magnetization
   LCHIMAG   =     F  perturbation theory with respect to B field
   DQ        =  0.001000  dq finite difference perturbation B field
   LLRAUG    =     F  two centre corrections for induced B field



--------------------------------------------------------------------------------------------------------


 Static calculation
 charge density and potential will be updated during run
 non-spin polarized calculation
 Variant of blocked Davidson
 Davidson routine will perform the subspace rotation
 perform sub-space diagonalisation
    after iterative eigenvector-optimisation
 modified Broyden-mixing scheme, WC =      100.0
 initial mixing is a Kerker type mixing with AMIX =  0.4000 and BMIX =      0.0100
 Hartree-type preconditioning will be used
 using additional bands           165
 real space projection scheme for non local part
[...]
     13.54561      0.00000     45.35368         0.005336     -0.008864      0.011462
     13.54315      9.03140     45.35368        -0.001902      0.010969     -0.008662
     14.43623      9.16196     32.10603         0.020682      0.022220     -0.006993
     15.85719      9.02606     33.16600         0.047873      0.037149      0.038918
     13.66875     11.16353     33.24998         0.031825     -0.028042      0.062320
     13.61528     11.17354     35.01196        -0.080857     -0.002178      0.045315
     12.40240      7.94406     34.28948        -0.056670     -0.097875      0.036731
     12.04188      9.60035     34.78259        -0.079907     -0.010505     -0.016537
     14.36254      7.60025     35.36188        -0.051305     -0.119344     -0.074996
     15.58194      8.86012     35.49885         0.022048      0.049682      0.054900
     15.50501      6.73671     33.62305        -0.002322      0.037635     -0.067954
     13.79927      6.77474     33.19732         0.112714     -0.013742     -0.069341
     14.21448      6.92613     30.86044         0.102935     -0.005989      0.019272
     15.89983      7.40613     31.06089        -0.107822     -0.125889      0.025538
     16.16992     11.11032     33.27967         0.003657      0.002704     -0.004545
     16.16328     10.93243     35.05249         0.001860      0.031216     -0.041161
     15.53416     12.41472     34.30346        -0.002591     -0.063167     -0.017136
     10.85872      9.08854     32.74760        -0.015675      0.044740     -0.037267
     12.31819      8.63574     31.85786         0.094802     -0.052537     -0.056935
     12.04617     10.33429     32.35785        -0.012589     -0.009254     -0.066860
     12.70102      8.97240     36.66813         0.143463      0.047968     -0.019007
     13.95916     10.23855     36.88260        -0.056335      0.017853     -0.020166
     14.17770      8.63175     37.55336         0.039870     -0.015885     -0.046391
     14.86338      4.66408     31.96664         0.031542      0.014997     -0.057090
     15.33295      4.96939     30.30056        -0.002419     -0.033219      0.013141
     16.70907      2.86056     31.17735        -0.033113     -0.038667     -0.043674
     17.60077      6.94796     32.22740        -0.004642      0.062176      0.014478
      1.02452      2.26093     31.50600        -0.018338      0.056960      0.021773
      1.89225      6.34801     32.56038        -0.023535      0.043740     -0.025562
      2.68127      4.01633     32.17664        -0.071841      0.044506     -0.020857
     17.99723      4.31703     34.92062        -0.033286      0.074694      0.060730
      0.41860     14.02437     34.98764        -0.003296      0.029918      0.198320
      9.39989      4.96067     34.88792         0.162388      0.117723     -0.092265
      8.78603     13.82978     34.68338         0.444661      0.076723      0.100836
      4.33058      9.20562     34.72053         0.032563      0.167234      0.014143
      4.84106     17.95530     34.79889        -0.015479     -0.043717      0.016259
     14.07284     17.94502     35.02415         0.002045      0.031268     -0.064595
      0.14017      4.41395     40.56405         0.014894     -0.003817      0.232285
      0.36194     13.88545     40.97033         0.057203     -0.485530      0.072193
      9.13338      4.54126     40.40467         0.137800     -0.132076      0.316315
      8.91991     13.57190     40.47290        -0.016898      0.019204      0.076210
      4.57183      9.02189     40.53116        -0.344764     -0.468351      0.103046
      4.56347     18.01423     40.43911        -0.038693     -0.023137      0.188189
     13.40025      9.30919     40.65540         0.140680     -0.022319      0.130499
     13.51885     18.04980     40.57430        -0.380986     -0.395119      0.091272
      9.02897      4.51561     46.44552         0.009222      0.002788      0.025576
      9.02651     13.54701     46.44552         0.026117     -0.011265      0.043392
     18.05937      4.51561     46.44552         0.016874      0.000455      0.037157
     18.05691     13.54701     46.44552         0.014384     -0.002738     -0.012749
      4.51521      0.00002     46.44421         0.001897     -0.000582      0.054545
      4.51275      9.03142     46.44421        -0.005882     -0.004036      0.029212
     13.54561      0.00002     46.44421        -0.008994     -0.011678      0.033821
     13.54315      9.03142     46.44421         0.009980      0.017047      0.019962
     16.96679      4.96013     31.64732         0.244020     -0.372335     -0.159995
     17.42519      3.63234     31.46349        -0.222528      0.299539      0.119957
     17.90198      5.91894     32.04258         0.213194      0.009923      0.020308
      0.70210      3.29500     31.64983         0.174221      0.002357     -0.011404
      1.19061      5.58320     32.22454        -0.051532      0.066208      0.056288
      1.63193      4.27945     32.02151        -0.031277     -0.228635     -0.065713
     14.82240      8.69643     33.02222        -0.072046     -0.022309     -0.086884
     14.18148     10.80532     34.15223         0.050342      0.016788     -0.135082
     12.53268      8.99472     34.01326         0.036186      0.024685     -0.076596
     14.49964      8.68047     35.46291         0.099936     -0.033274      0.071620
     14.78565      7.17645     32.91470        -0.038743      0.054115      0.118983
     15.11263      6.74748     31.47869        -0.061695      0.316158     -0.114868
     15.60310     11.32222     34.19344         0.051861      0.020743      0.047321
     11.93600      9.28363     32.65214        -0.123820      0.007792      0.081327
     13.77946      9.17717     36.68907        -0.110269      0.066121      0.063517
     15.52555      5.28891     31.33809        -0.132657     -0.193593     -0.036095
      1.06627      4.64033     35.50855        -0.098114     -0.048128     -0.087635
      0.54716     12.87203     35.60555        -0.133816      0.115607     -0.095383
      9.55543      3.69814     35.20692         0.214798     -0.012247     -0.005572
      9.92481     13.37593     35.15418         0.068782      0.083473     -0.022764
      8.25594      5.59352     34.78387        -0.054597      0.010424      0.006525
      7.61987     13.30560     34.95925        -0.195615      0.026360     -0.103666
     16.81176      4.69740     35.34425         0.098944      0.014045     -0.112483
     17.43997     14.82958     35.08933         0.069197     -0.130699     -0.021999
      4.71176      8.01161     35.11498         0.034582      0.031962     -0.004345
      3.62977      0.27465     35.13324         0.394387     -0.236940     -0.196172
     12.81465     17.84758     35.39290         0.219702      0.087800      0.019841
      5.89769      0.67667     34.82368        -0.076817     -0.178222     -0.073823
      5.00793     10.31228     34.93898         0.006684     -0.329104      0.029317
     14.78117      0.99265     35.01245        -0.076743     -0.297937     -0.075592
      1.01180      3.57899     41.08065         0.114808     -0.099902     -0.044869
      0.94346     12.70716     41.05352        -0.126722      0.108056     -0.078867
      9.85725      3.60269     40.97308         0.032147     -0.058855      0.093279
      9.73097     12.84215     41.19923         0.109076     -0.004006      0.553280
      3.87560      8.13077     41.20961         0.251570      0.313165      0.150155
      3.54767     17.30877     40.88343         0.115085      0.113297      0.089105
     12.43364      8.58218     41.15770        -0.113538     -0.048708     -0.001177
     12.71847     17.17817     41.15508         0.222406      0.231902      0.079517
      8.36066      5.38987     41.03980        -0.093254      0.079819      0.238452
      8.07926     14.47110     40.92286        -0.059426      0.104388      0.091984
     17.34527      5.14239     41.24565         0.149021     -0.104631      0.092889
     17.13802     14.09862     41.13520         0.104442      0.157271     -0.010803
      5.39957      0.65309     41.17688        -0.102703     -0.018353     -0.001665
      5.30312      9.97570     41.04295         0.155509      0.227050      0.449808
     14.30259      0.84477     41.18160         0.107102      0.132457      0.403490
     14.68159      9.16237     40.92250        -0.101955     -0.027340     -0.106645
      0.82731      3.68697     47.03596         0.018045     -0.023875     -0.094377
      0.82485     12.71837     47.03596         0.026148     -0.020538     -0.053784
      9.85771      3.68697     47.03596         0.025001     -0.024653     -0.081443
      9.85525     12.71837     47.03596         0.007106     -0.012438     -0.080060
      3.68432      8.20234     47.03465        -0.008487     -0.016176     -0.065692
      3.68186     17.23373     47.03465        -0.012059     -0.010076     -0.071107
     12.71472      8.20234     47.03465        -0.019286     -0.026810     -0.051840
     12.71226     17.23373     47.03465        -0.012433     -0.005834     -0.073471
      8.20068      5.34457     47.03603        -0.021067      0.018784     -0.081810
      8.19822     14.37597     47.03603        -0.029389      0.025909     -0.086224
     17.23108      5.34457     47.03603        -0.029752      0.021147     -0.106252
     17.22862     14.37597     47.03603        -0.023071      0.030381     -0.056472
      5.34365      0.82909     47.03465         0.006001      0.009213     -0.071601
      5.34119      9.86049     47.03465         0.019312      0.013969     -0.058024
     14.37405      0.82909     47.03465         0.017992      0.022050     -0.065905
     14.37159      9.86049     47.03465         0.005721      0.001336     -0.057089
     14.01827      9.28968     34.15741         0.013520      0.061713     -0.055919
      9.28308     17.77203     34.57198        -0.013307     -0.015265     -0.010217
      8.57890      9.23390     34.56104        -0.053189     -0.039922      0.005901
      0.10739      0.22771     34.46168         0.002764      0.001646     -0.005488
      0.54444      8.78046     34.62770        -0.039574     -0.014195     -0.025394
      4.68332      4.31347     34.59432        -0.020524     -0.002033      0.036122
      4.14871     13.81388     34.40582        -0.020414      0.013175      0.014206
     13.25551      4.18524     34.64419        -0.020644      0.009006      0.001451
     13.26558     14.35449     34.61973         0.021557     -0.001461     -0.034833
     17.97543     17.81045     40.88440        -0.000415     -0.004083      0.000483
      0.19107      9.11600     40.92580        -0.021990     -0.000956      0.013251
      8.97553      0.05062     40.91591         0.002901      0.002952     -0.023863
      8.93671      9.11507     40.85836        -0.008287      0.009635      0.049964
      4.74064      4.38686     40.93334        -0.002102     -0.015455     -0.002820
      4.43654     13.64733     40.84388        -0.004792     -0.015585     -0.009605
     13.46799      4.88003     40.94341        -0.007814     -0.009165      0.003235
     13.53973     13.24299     40.89047         0.013969      0.015519      0.005487
      2.43414      2.10667     38.01038         0.020803      0.021698      0.010971
      2.64825     10.99320     37.89087         0.001104      0.002263     -0.025355
     11.49520      2.05619     38.00005         0.031906      0.006667     -0.005885
     11.18344     11.39827     37.90923        -0.056919      0.029893      0.012824
      6.63833      6.93691     37.98242         0.007479      0.004777     -0.012946
      6.57747     15.98365     37.80909        -0.000808     -0.014019     -0.013544
     16.02805      6.63475     38.18187         0.067448     -0.003702     -0.013420
     15.55911     16.08560     37.92725         0.011983      0.016592     -0.020078
      2.29088      6.64926     38.23623        -0.031598     -0.018148     -0.047042
      2.08246     15.77401     37.86230        -0.016883     -0.011193     -0.031169
     11.04960      6.59058     37.64698         0.004465      0.002269     -0.011916
     11.13265     15.61218     38.28495         0.037337     -0.018886     -0.048833
      7.13532      2.48190     37.73803        -0.009690      0.004555      0.000983
      6.85083     11.45888     37.92863        -0.000120      0.000289      0.004497
     15.92812      2.45843     38.24674        -0.012765     -0.031814      0.016967
     16.28418     11.67681     38.09397         0.007046     -0.007457     -0.018198
      0.00000      0.00000     47.17356         0.001473      0.006175      0.377783
     -0.00246      9.03140     47.17356        -0.000392     -0.009620      0.453099
      9.03040      0.00000     47.17356         0.001342     -0.001729      0.454763
      9.02794      9.03140     47.17356        -0.004353     -0.000149      0.382558
      4.51398      4.51570     47.17425        -0.002169     -0.004430      0.416189
      4.51152     13.54710     47.17425         0.003647      0.004207      0.346476
     13.54438      4.51570     47.17425         0.005222      0.002036      0.404474
     13.54192     13.54710     47.17425        -0.004702      0.000269      0.415445
      2.45192      2.06295     44.04013         0.009942     -0.027821     -0.036330
      2.44946     11.09435     44.04013         0.081310     -0.021200      0.002499
     11.48232      2.06295     44.04013         0.007337      0.026895     -0.083067
     11.47986     11.09435     44.04013        -0.093172      0.026946      0.008738
      6.57602      6.96845     44.04013         0.012155     -0.020774     -0.060270
      6.57356     15.99985     44.04013         0.031415     -0.018325     -0.064701
     15.60642      6.96845     44.04013         0.005706     -0.003753     -0.090729
     15.60396     15.99985     44.04013        -0.046830      0.048214     -0.032744
      2.06108      6.57881     44.04000         0.026204     -0.053511     -0.041541
      2.05862     15.61021     44.04000         0.060196      0.083898     -0.052043
     11.09148      6.57881     44.04000        -0.021633      0.001433     -0.026977
     11.08902     15.61021     44.04000        -0.028368     -0.006910     -0.048068
      6.96686      2.45259     44.04007         0.014832     -0.011387      0.000341
      6.96440     11.48399     44.04007        -0.033216      0.004535     -0.062271
     15.99726      2.45259     44.04007         0.008221      0.023045     -0.063131
     15.99481     11.48399     44.04007         0.016658     -0.018049     -0.066190
      2.43163      2.08322     50.06849         0.006807     -0.012601      0.022707
      2.42917     11.11462     50.06849         0.019222     -0.004310      0.028101
     11.46203      2.08322     50.06849         0.014171     -0.006916      0.024303
     11.45957     11.11462     50.06849         0.004348     -0.015265      0.026710
      6.59631      6.94818     50.06849        -0.010347      0.009439      0.025340
      6.59385     15.97958     50.06849        -0.015508      0.005133      0.024956
     15.62671      6.94818     50.06849        -0.014199      0.002019      0.023471
     15.62425     15.97958     50.06849        -0.005039      0.018349      0.027846
      2.08113      6.59901     50.06905        -0.005508     -0.017086      0.025421
      2.07867     15.63041     50.06905        -0.008844     -0.008792      0.025429
     11.11153      6.59901     50.06905        -0.011245     -0.011119      0.025978
     11.10907     15.63041     50.06905        -0.010941     -0.009120      0.025957
      6.94681      2.43239     50.06905         0.006956      0.011271      0.024763
      6.94435     11.46379     50.06905         0.007658      0.012439      0.025977
     15.97721      2.43239     50.06905         0.012496      0.008310      0.023678
     15.97475     11.46379     50.06905         0.008696      0.009816      0.028553
     17.99731      0.11971     37.73706        -0.011891      0.009147      0.022010
      0.19090      9.05379     37.71868        -0.022263     -0.026996     -0.001067
      9.06169     17.94702     37.71794        -0.013097     -0.025984     -0.003941
      9.03310      9.03443     37.66879        -0.011770      0.034672     -0.013888
      4.62137      4.46616     37.83617         0.005659     -0.003770     -0.012314
      4.38214     13.64096     37.67194         0.024743      0.013118      0.024851
     13.49404      4.54839     37.85233         0.002877      0.015947     -0.005827
     13.57920     13.67826     37.74662        -0.013274     -0.008047      0.031609
      0.00001      0.00001     44.04300        -0.053523     -0.118653      0.110303
     -0.00245      9.03141     44.04300         0.045998      0.141685      0.167109
      9.03041      0.00001     44.04300        -0.021070      0.006847      0.085043
      9.02795      9.03141     44.04300         0.053247      0.027444      0.121906
      4.51397      4.51569     44.04275         0.035138      0.036161      0.161254
      4.51151     13.54709     44.04275        -0.091108     -0.036549      0.118619
     13.54437      4.51569     44.04275        -0.067470     -0.023774      0.172781
     13.54191     13.54709     44.04275         0.079579     -0.064044      0.102241
      0.00000      0.00000     50.44728        -0.004500     -0.005645     -0.621280
     -0.00246      9.03140     50.44728        -0.003320      0.004912     -0.645533
      9.03040      0.00000     50.44728         0.003258     -0.002609     -0.640606
      9.02794      9.03140     50.44728         0.004108      0.001085     -0.625616
      4.51397      4.51570     50.44728         0.000879      0.003379     -0.630135
      4.51151     13.54710     50.44728        -0.002031     -0.004506     -0.616689
     13.54437      4.51570     50.44728        -0.001335      0.003306     -0.625074
     13.54191     13.54710     50.44728         0.002081     -0.004230     -0.638575
 -----------------------------------------------------------------------------------
    total drift:                                0.030003      0.168625      0.798491


--------------------------------------------------------------------------------------------------------



  FREE ENERGIE OF THE ION-ELECTRON SYSTEM (eV)
  ---------------------------------------------------
  free  energy   TOTEN  =     -1576.44326705 eV

  energy  without entropy=    -1576.44326705  energy(sigma->0) =    -1576.44326705
 


--------------------------------------------------------------------------------------------------------


    POTLOK:  cpu time    0.5014: real time    0.5017


--------------------------------------------------------------------------------------------------------


     LOOP+:  cpu time  265.0322: real time  265.6654
 vacuum level on the upper side and lower side of the slab         2.360         1.537
    4ORBIT:  cpu time    0.0000: real time    0.0000

 total amount of memory used by VASP MPI-rank0  8653574. kBytes
=======================================================================

   base      :      30000. kBytes
   nonlr-proj:      53612. kBytes
   fftplans  :     249280. kBytes
   grid      :     701440. kBytes
   one-center:       2636. kBytes
   wavefun   :    7616606. kBytes
 
  
  
 General timing and accounting informations for this job:
 ========================================================
  
                  Total CPU time used (sec):      478.213
                            User time (sec):      390.052
                          System time (sec):       88.161
                         Elapsed time (sec):      480.111
  
                   Maximum memory used (kb):    10307544.
                   Average memory used (kb):          N/A
  
                          Minor page faults:      3542724
                          Major page faults:           11
                 Voluntary context switches:        10983
