<?xml version="1.0" encoding="ISO-8859-1"?>
<modeling>
 <generator>
  <i name="program" type="string">vasp </i>
  <i name="version" type="string">6.2.1  </i>
  <i name="subversion" type="string">16May21 (build Nov 15 2021 14:57:28) complex                          parallel </i>
  <i name="platform" type="string">LinuxPGI </i>
  <i name="date" type="string">2023 07 30 </i>
  <i name="time" type="string">14:42:32 </i>
 </generator>
 <incar>
  <i type="string" name="SYSTEM">PSC</i>
  <i type="int" name="ISTART">     1</i>
  <i type="string" name="PREC">Normal</i>
  <i name="BMIX">      0.01000000</i>
  <i name="AMIN">      0.01000000</i>
  <i type="int" name="ICHARG">     1</i>
  <i type="int" name="NELM">   600</i>
  <i type="int" name="ISYM">     0</i>
  <i name="ENCUT">    500.00000000</i>
  <i type="string" name="LREAL">Auto</i>
  <i type="int" name="ISMEAR">     0</i>
  <i name="SIGMA">      0.05000000</i>
  <i type="logical" name="LWAVE"> F  </i>
  <i type="logical" name="LVTOT"> T  </i>
  <i type="logical" name="GGA_COMPAT"> F  </i>
  <i type="logical" name="LDIPOL"> T  </i>
  <i type="int" name="IDIPOL">     3</i>
  <i type="int" name="IVDW">    12</i>
 </incar>
 <primitive_cell>
  <structure name="primitive_cell" >
   <crystal>
    <varray name="basis" >
     <v>      18.06080055       0.00000000       0.00000000 </v>
     <v>      -0.00491865      18.06279945       0.00000000 </v>
     <v>       0.00000000       0.00000000      62.48749924 </v>
    </varray>
    <i name="volume">  20385.21054034 </i>
    <varray name="rec_basis" >
     <v>       0.05536853       0.00001508      -0.00000000 </v>
     <v>       0.00000000       0.05536240       0.00000000 </v>
     <v>       0.00000000      -0.00000000       0.01600320 </v>
    </varray>
   </crystal>
   <varray name="positions" >
    <v>       0.40751402       0.28485725       0.55986393 </v>
    <v>       0.41663409       0.69571332       0.57071681 </v>
    <v>       0.92436466       0.29289581       0.57901632 </v>
    <v>       0.92511468       0.81369296       0.57278186 </v>
    <v>       0.32244623       0.09064050       0.56264843 </v>
    <v>       0.32563043       0.57059137       0.56783568 </v>
    <v>       0.79545451       0.10498646       0.56415746 </v>
    <v>       0.10860457       0.24132861       0.56183314 </v>
    <v>       0.07900780       0.68428901       0.56880096 </v>
    <v>       0.58181810       0.18499102       0.56500900 </v>
    <v>       0.59890568       0.76738098       0.55930266 </v>
    <v>       0.37890544       0.01684075       0.55425020 </v>
    <v>       0.25605510       0.62134728       0.55492899 </v>
    <v>       0.87323115       0.05237693       0.55588401 </v>
    <v>       0.06253152       0.28996615       0.58153972 </v>
    <v>       0.99259428       0.69365500       0.58089438 </v>
    <v>       0.48728922       0.17368067       0.56964482 </v>
    <v>       0.55294957       0.69787391       0.57341242 </v>
    <v>       0.30615314       0.43547999       0.57161622 </v>
    <v>       0.19077489       0.06612939       0.56848938 </v>
    <v>       0.68211208       0.03098709       0.57346962 </v>
    <v>       0.45782026       0.36567393       0.55376762 </v>
    <v>       0.37418539       0.75957246       0.55376884 </v>
    <v>       0.88372206       0.24432797       0.55778033 </v>
    <v>       0.97038414       0.87353335       0.55536175 </v>
    <v>       0.23005977       0.39776881       0.55873651 </v>
    <v>       0.15745968       0.97976686       0.56127974 </v>
    <v>       0.68550967       0.93712339       0.56614357 </v>
    <v>       0.57088009       0.30572029       0.55475946 </v>
    <v>       0.48910437       0.81459142       0.54477431 </v>
    <v>       0.99919689       0.20409566       0.54457132 </v>
    <v>       0.06959572       0.79382798       0.54970107 </v>
    <v>       0.18709726       0.51375945       0.54713238 </v>
    <v>       0.27590742       0.93648844       0.55175251 </v>
    <v>       0.80569928       0.94225684       0.55493027 </v>
    <v>       0.45516961       0.29889028       0.67302414 </v>
    <v>       0.44143827       0.81535355       0.67070232 </v>
    <v>       0.95594959       0.28442339       0.67631935 </v>
    <v>       0.91260550       0.73992485       0.66231930 </v>
    <v>       0.29573142       0.04065276       0.67521000 </v>
    <v>       0.30081436       0.56140463       0.67296248 </v>
    <v>       0.79726074       0.05120523       0.67536402 </v>
    <v>       0.83278431       0.46705698       0.66491265 </v>
    <v>       0.09070615       0.17019611       0.64723669 </v>
    <v>       0.10871702       0.70041997       0.65518140 </v>
    <v>       0.57660432       0.16516915       0.64622117 </v>
    <v>       0.57294704       0.67451552       0.65185938 </v>
    <v>       0.18497864       0.41181348       0.65128420 </v>
    <v>       0.16458022       0.93087545       0.64342459 </v>
    <v>       0.63420548       0.48718151       0.65489148 </v>
    <v>       0.67250721       0.91788708       0.64917745 </v>
    <v>       0.06296009       0.18811866       0.67352088 </v>
    <v>       0.02424760       0.65471802       0.65943152 </v>
    <v>       0.54873678       0.18981710       0.67187376 </v>
    <v>       0.54406155       0.71409669       0.67569301 </v>
    <v>       0.21141382       0.44797114       0.67583561 </v>
    <v>       0.18288278       0.95241242       0.67004765 </v>
    <v>       0.69696975       0.43296772       0.66936209 </v>
    <v>       0.69753465       0.94519791       0.67480098 </v>
    <v>       0.43494656       0.33735515       0.64825417 </v>
    <v>       0.41633464       0.82959790       0.64403244 </v>
    <v>       0.92560615       0.31815753       0.65179241 </v>
    <v>       0.93002378       0.83346538       0.65750810 </v>
    <v>       0.34251932       0.06238010       0.65196176 </v>
    <v>       0.32103505       0.58707292       0.64672365 </v>
    <v>       0.82401171       0.08071183       0.64988377 </v>
    <v>       0.85098324       0.54121626       0.64785016 </v>
    <v>       0.00648414       0.25060944       0.63177590 </v>
    <v>       0.05481761       0.81637656       0.65187886 </v>
    <v>       0.50898960       0.25616664       0.62926533 </v>
    <v>       0.49546332       0.74179711       0.63049494 </v>
    <v>       0.26288021       0.99659052       0.62995296 </v>
    <v>       0.25087542       0.49544451       0.63120920 </v>
    <v>       0.74941560       0.99963560       0.63183548 </v>
    <v>       0.72666184       0.55949425       0.63954705 </v>
    <v>       0.44874502       0.30128397       0.76888902 </v>
    <v>       0.44874501       0.80128391       0.76888902 </v>
    <v>       0.94874497       0.30128397       0.76888902 </v>
    <v>       0.94874501       0.80128391       0.76888902 </v>
    <v>       0.30127600       0.05129450       0.76887296 </v>
    <v>       0.30127601       0.55129450       0.76887296 </v>
    <v>       0.80127594       0.05129450       0.76887296 </v>
    <v>       0.80127598       0.55129450       0.76887296 </v>
    <v>       0.07877100       0.17118050       0.74344197 </v>
    <v>       0.07877101       0.67118045       0.74344197 </v>
    <v>       0.57877100       0.17118050       0.74344197 </v>
    <v>       0.57877099       0.67118045       0.74344197 </v>
    <v>       0.17119950       0.42117448       0.74342103 </v>
    <v>       0.17119950       0.92117451       0.74342103 </v>
    <v>       0.67119951       0.42117448       0.74342103 </v>
    <v>       0.67119950       0.92117451       0.74342103 </v>
    <v>       0.05125600       0.19871499       0.76888902 </v>
    <v>       0.05125600       0.69871493       0.76888902 </v>
    <v>       0.55125603       0.19871499       0.76888902 </v>
    <v>       0.55125602       0.69871493       0.76888902 </v>
    <v>       0.19872349       0.44870397       0.76887205 </v>
    <v>       0.19872349       0.94870397       0.76887205 </v>
    <v>       0.69872352       0.44870397       0.76887205 </v>
    <v>       0.69872351       0.94870397       0.76887205 </v>
    <v>       0.42123152       0.32881747       0.74344197 </v>
    <v>       0.42123151       0.82881744       0.74344197 </v>
    <v>       0.92123147       0.32881747       0.74344197 </v>
    <v>       0.92123151       0.82881744       0.74344197 </v>
    <v>       0.32880050       0.07882500       0.74342103 </v>
    <v>       0.32880049       0.57882496       0.74342103 </v>
    <v>       0.82880048       0.07882500       0.74342103 </v>
    <v>       0.82880052       0.57882496       0.74342103 </v>
    <v>       0.00000350       0.25000148       0.72582199 </v>
    <v>       0.00000350       0.75000145       0.72582199 </v>
    <v>       0.50000351       0.25000148       0.72582199 </v>
    <v>       0.50000350       0.75000145       0.72582199 </v>
    <v>       0.25000050       0.00000000       0.72580398 </v>
    <v>       0.25000052       0.50000000       0.72580398 </v>
    <v>       0.75000050       0.00000000       0.72580398 </v>
    <v>       0.75000049       0.50000000       0.72580398 </v>
    <v>       0.79945103       0.50722832       0.51379930 </v>
    <v>       0.87812515       0.49970428       0.53076223 </v>
    <v>       0.75698692       0.61803988       0.53210606 </v>
    <v>       0.75402627       0.61859388       0.56030335 </v>
    <v>       0.68682234       0.43980238       0.54874147 </v>
    <v>       0.66688599       0.53149826       0.55663282 </v>
    <v>       0.79534746       0.42076818       0.56590323 </v>
    <v>       0.86288281       0.49051732       0.56809525 </v>
    <v>       0.85859097       0.37296068       0.53807649 </v>
    <v>       0.76414739       0.37506580       0.53126336 </v>
    <v>       0.78713938       0.38344736       0.49386587 </v>
    <v>       0.88046179       0.41002126       0.49707369 </v>
    <v>       0.89547223       0.61509413       0.53258119 </v>
    <v>       0.89510204       0.60524557       0.56095198 </v>
    <v>       0.86029073       0.68730898       0.54896521 </v>
    <v>       0.60136866       0.50316337       0.52406637 </v>
    <v>       0.68217006       0.47809534       0.50982780 </v>
    <v>       0.66713441       0.57213127       0.51782922 </v>
    <v>       0.70337227       0.49673388       0.58680749 </v>
    <v>       0.77305281       0.56683070       0.59023958 </v>
    <v>       0.78512852       0.47787470       0.60097396 </v>
    <v>       0.82303376       0.25821493       0.51156851 </v>
    <v>       0.84903762       0.27511748       0.48490595 </v>
    <v>       0.92519959       0.15836766       0.49893732 </v>
    <v>       0.97463338       0.38465563       0.51574158 </v>
    <v>       0.05676009       0.12517047       0.50419688 </v>
    <v>       0.10486671       0.35144099       0.52107035 </v>
    <v>       0.14851836       0.22235372       0.51492929 </v>
    <v>       0.99654520       0.23900105       0.55884176 </v>
    <v>       0.02338862       0.77642306       0.55991430 </v>
    <v>       0.52053305       0.27463448       0.55831846 </v>
    <v>       0.48667835       0.76565006       0.55504516 </v>
    <v>       0.23991648       0.50964530       0.55563964 </v>
    <v>       0.26831295       0.99404865       0.55689367 </v>
    <v>       0.77946284       0.99347960       0.56049852 </v>
    <v>       0.00782757       0.24436675       0.64915462 </v>
    <v>       0.02024928       0.76873175       0.65565641 </v>
    <v>       0.50577004       0.25141498       0.64660406 </v>
    <v>       0.49408676       0.75137293       0.64769589 </v>
    <v>       0.25327179       0.49947334       0.64862833 </v>
    <v>       0.25294396       0.99731102       0.64715526 </v>
    <v>       0.74209244       0.51537886       0.65061652 </v>
    <v>       0.74879126       0.99928037       0.64931859 </v>
    <v>       0.49998898       0.24999498       0.74327702 </v>
    <v>       0.49998903       0.74999496       0.74327702 </v>
    <v>       0.99998898       0.24999498       0.74327702 </v>
    <v>       0.99998903       0.74999496       0.74327702 </v>
    <v>       0.25000050       0.00000100       0.74325596 </v>
    <v>       0.25000052       0.50000100       0.74325596 </v>
    <v>       0.75000050       0.00000100       0.74325596 </v>
    <v>       0.75000049       0.50000100       0.74325596 </v>
    <v>       0.93950130       0.27460494       0.50645835 </v>
    <v>       0.96486205       0.20109534       0.50351660 </v>
    <v>       0.99129555       0.32768670       0.51278384 </v>
    <v>       0.03892376       0.18241939       0.50649858 </v>
    <v>       0.06600666       0.30909950       0.51569580 </v>
    <v>       0.09042227       0.23692072       0.51244667 </v>
    <v>       0.82082569       0.48145549       0.52846129 </v>
    <v>       0.78537039       0.59820837       0.54654498 </v>
    <v>       0.69405173       0.49796924       0.54432097 </v>
    <v>       0.80295457       0.48057177       0.56752013 </v>
    <v>       0.81876778       0.39730533       0.52674055 </v>
    <v>       0.83686575       0.37355663       0.50375988 </v>
    <v>       0.86409127       0.62682504       0.54720454 </v>
    <v>       0.66101849       0.51396399       0.52253872 </v>
    <v>       0.76308667       0.50807034       0.58714252 </v>
    <v>       0.85970648       0.29280682       0.50150973 </v>
    <v>       0.05910802       0.25689979       0.56825050 </v>
    <v>       0.03048958       0.71262643       0.56980281 </v>
    <v>       0.52912564       0.20473782       0.56342336 </v>
    <v>       0.54972369       0.74052342       0.56257938 </v>
    <v>       0.45720374       0.30967088       0.55665321 </v>
    <v>       0.42210169       0.73662975       0.55945986 </v>
    <v>       0.93091328       0.26005931       0.56562107 </v>
    <v>       0.96584922       0.82100116       0.56154158 </v>
    <v>       0.26100424       0.44354178       0.56195206 </v>
    <v>       0.20097890       0.01520532       0.56224429 </v>
    <v>       0.70979728       0.98808485       0.56639972 </v>
    <v>       0.32655673       0.03746188       0.55729042 </v>
    <v>       0.27743741       0.57091281       0.55913545 </v>
    <v>       0.81842658       0.05495564       0.56031123 </v>
    <v>       0.05607561       0.19814153       0.65742190 </v>
    <v>       0.05242970       0.70349908       0.65698767 </v>
    <v>       0.54583600       0.19945364       0.65570048 </v>
    <v>       0.53898332       0.71097233       0.65931956 </v>
    <v>       0.21470869       0.45013922       0.65948560 </v>
    <v>       0.19669021       0.95825506       0.65426575 </v>
    <v>       0.68856197       0.47513028       0.65865499 </v>
    <v>       0.70446185       0.95102502       0.65861305 </v>
    <v>       0.46299855       0.29839601       0.65676820 </v>
    <v>       0.44755489       0.80115482       0.65489680 </v>
    <v>       0.96045944       0.28469509       0.66006238 </v>
    <v>       0.94911963       0.78053341       0.65829488 </v>
    <v>       0.29897608       0.03615679       0.65896194 </v>
    <v>       0.29377656       0.55227865       0.65681851 </v>
    <v>       0.79192595       0.04676847       0.65903746 </v>
    <v>       0.81303612       0.50725060       0.65489100 </v>
    <v>       0.04586250       0.20411950       0.75272599 </v>
    <v>       0.04586250       0.70411946       0.75272599 </v>
    <v>       0.54586251       0.20411950       0.75272599 </v>
    <v>       0.54586250       0.70411946       0.75272599 </v>
    <v>       0.20411900       0.45410100       0.75270499 </v>
    <v>       0.20411899       0.95410095       0.75270499 </v>
    <v>       0.70411898       0.45410100       0.75270499 </v>
    <v>       0.70411896       0.95410095       0.75270499 </v>
    <v>       0.45414002       0.29588849       0.75272697 </v>
    <v>       0.45414001       0.79588852       0.75272697 </v>
    <v>       0.95414002       0.29588849       0.75272697 </v>
    <v>       0.95414006       0.79588852       0.75272697 </v>
    <v>       0.29588249       0.04590050       0.75270499 </v>
    <v>       0.29588248       0.54590053       0.75270499 </v>
    <v>       0.79588244       0.04590050       0.75270499 </v>
    <v>       0.79588248       0.54590053       0.75270499 </v>
    <v>       0.77631127       0.51429904       0.54662783 </v>
    <v>       0.51425849       0.98390237       0.55326239 </v>
    <v>       0.47514033       0.51121075       0.55308731 </v>
    <v>       0.00594928       0.01260638       0.55149721 </v>
    <v>       0.03027708       0.48610734       0.55415399 </v>
    <v>       0.25937377       0.23880414       0.55361989 </v>
    <v>       0.22991635       0.76476971       0.55060329 </v>
    <v>       0.73400119       0.23170520       0.55441796 </v>
    <v>       0.73471212       0.79469930       0.55402652 </v>
    <v>       0.99554173       0.98602921       0.65428132 </v>
    <v>       0.01071684       0.50468342       0.65494386 </v>
    <v>       0.49696266       0.00280223       0.65478551 </v>
    <v>       0.49494969       0.50463236       0.65386448 </v>
    <v>       0.26254832       0.24286732       0.65506449 </v>
    <v>       0.24585061       0.75554875       0.65363281 </v>
    <v>       0.74577619       0.27017004       0.65522560 </v>
    <v>       0.74987469       0.73316400       0.65437844 </v>
    <v>       0.13480672       0.11663026       0.60828768 </v>
    <v>       0.14679556       0.60861005       0.60637525 </v>
    <v>       0.63650325       0.11383565       0.60812236 </v>
    <v>       0.61938230       0.63103556       0.60666895 </v>
    <v>       0.36765925       0.38404421       0.60784026 </v>
    <v>       0.36442581       0.88489341       0.60506652 </v>
    <v>       0.88754959       0.36731594       0.61103206 </v>
    <v>       0.86172747       0.89053759       0.60695734 </v>
    <v>       0.12694299       0.36811926       0.61190211 </v>
    <v>       0.11554078       0.87328710       0.60591807 </v>
    <v>       0.61189968       0.36487019       0.60247219 </v>
    <v>       0.61663378       0.86432801       0.61268181 </v>
    <v>       0.39510967       0.13740407       0.60392920 </v>
    <v>       0.37949333       0.63439138       0.60697950 </v>
    <v>       0.88195392       0.13610456       0.61207024 </v>
    <v>       0.90180696       0.64645645       0.60962547 </v>
    <v>       0.00000000       0.00000000       0.75492797 </v>
    <v>       0.00000000       0.50000000       0.75492797 </v>
    <v>       0.50000000       0.00000000       0.75492797 </v>
    <v>       0.49999999       0.50000000       0.75492797 </v>
    <v>       0.25000050       0.25000000       0.75493902 </v>
    <v>       0.25000051       0.74999997       0.75493902 </v>
    <v>       0.75000047       0.25000000       0.75493902 </v>
    <v>       0.75000046       0.74999997       0.75493902 </v>
    <v>       0.13579050       0.11421000       0.70478299 </v>
    <v>       0.13579050       0.61420998       0.70478299 </v>
    <v>       0.63579045       0.11421000       0.70478299 </v>
    <v>       0.63579049       0.61420998       0.70478299 </v>
    <v>       0.36420952       0.38578999       0.70478299 </v>
    <v>       0.36420950       0.88578996       0.70478299 </v>
    <v>       0.86420954       0.38578999       0.70478299 </v>
    <v>       0.86420953       0.88578996       0.70478299 </v>
    <v>       0.11421799       0.36421899       0.70478098 </v>
    <v>       0.11421799       0.86421899       0.70478098 </v>
    <v>       0.61421800       0.36421899       0.70478098 </v>
    <v>       0.61421799       0.86421899       0.70478098 </v>
    <v>       0.38578201       0.13578149       0.70478202 </v>
    <v>       0.38578200       0.63578149       0.70478202 </v>
    <v>       0.88578199       0.13578149       0.70478202 </v>
    <v>       0.88578203       0.63578149       0.70478202 </v>
    <v>       0.13466700       0.11533200       0.80125603 </v>
    <v>       0.13466699       0.61533199       0.80125603 </v>
    <v>       0.63466699       0.11533200       0.80125603 </v>
    <v>       0.63466698       0.61533199       0.80125603 </v>
    <v>       0.36533300       0.38466799       0.80125603 </v>
    <v>       0.36533299       0.88466796       0.80125603 </v>
    <v>       0.86533295       0.38466799       0.80125603 </v>
    <v>       0.86533294       0.88466796       0.80125603 </v>
    <v>       0.11532850       0.36533700       0.80126500 </v>
    <v>       0.11532850       0.86533698       0.80126500 </v>
    <v>       0.61532850       0.36533700       0.80126500 </v>
    <v>       0.61532849       0.86533698       0.80126500 </v>
    <v>       0.38467151       0.13466300       0.80126500 </v>
    <v>       0.38467150       0.63466297       0.80126500 </v>
    <v>       0.88467149       0.13466300       0.80126500 </v>
    <v>       0.88467153       0.63466297       0.80126500 </v>
    <v>       0.99648620       0.00662744       0.60391370 </v>
    <v>       0.01070660       0.50123937       0.60361963 </v>
    <v>       0.50200294       0.99358994       0.60360779 </v>
    <v>       0.50028565       0.50016784       0.60282126 </v>
    <v>       0.25594559       0.24725748       0.60549983 </v>
    <v>       0.24283852       0.75519622       0.60287156 </v>
    <v>       0.74721383       0.25180959       0.60575843 </v>
    <v>       0.75206674       0.75726145       0.60406674 </v>
    <v>       0.00000050       0.00000050       0.70482896 </v>
    <v>       0.00000050       0.50000048       0.70482896 </v>
    <v>       0.50000048       0.00000050       0.70482896 </v>
    <v>       0.50000046       0.50000048       0.70482896 </v>
    <v>       0.24999999       0.24999947       0.70482499 </v>
    <v>       0.25000001       0.74999950       0.70482499 </v>
    <v>       0.74999999       0.24999947       0.70482499 </v>
    <v>       0.74999998       0.74999950       0.70482499 </v>
    <v>       0.00000000       0.00000000       0.80731797 </v>
    <v>       0.00000000       0.50000000       0.80731797 </v>
    <v>       0.50000000       0.00000000       0.80731797 </v>
    <v>       0.49999999       0.50000000       0.80731797 </v>
    <v>       0.24999999       0.25000000       0.80731797 </v>
    <v>       0.25000001       0.74999997       0.80731797 </v>
    <v>       0.74999999       0.25000000       0.80731797 </v>
    <v>       0.74999998       0.74999997       0.80731797 </v>
   </varray>
  </structure>
  <varray name="primitive_index" >
   <v type="int" >        1 </v>
   <v type="int" >        2 </v>
   <v type="int" >        3 </v>
   <v type="int" >        4 </v>
   <v type="int" >        5 </v>
   <v type="int" >        6 </v>
   <v type="int" >        7 </v>
   <v type="int" >        8 </v>
   <v type="int" >        9 </v>
   <v type="int" >       10 </v>
   <v type="int" >       11 </v>
   <v type="int" >       12 </v>
   <v type="int" >       13 </v>
   <v type="int" >       14 </v>
   <v type="int" >       15 </v>
   <v type="int" >       16 </v>
   <v type="int" >       17 </v>
   <v type="int" >       18 </v>
   <v type="int" >       19 </v>
   <v type="int" >       20 </v>
   <v type="int" >       21 </v>
   <v type="int" >       22 </v>
   <v type="int" >       23 </v>
   <v type="int" >       24 </v>
   <v type="int" >       25 </v>
   <v type="int" >       26 </v>
   <v type="int" >       27 </v>
   <v type="int" >       28 </v>
   <v type="int" >       29 </v>
   <v type="int" >       30 </v>
   <v type="int" >       31 </v>
   <v type="int" >       32 </v>
   <v type="int" >       33 </v>
   <v type="int" >       34 </v>
   <v type="int" >       35 </v>
   <v type="int" >       36 </v>
   <v type="int" >       37 </v>
   <v type="int" >       38 </v>
   <v type="int" >       39 </v>
   <v type="int" >       40 </v>
   <v type="int" >       41 </v>
   <v type="int" >       42 </v>
   <v type="int" >       43 </v>
   <v type="int" >       44 </v>
   <v type="int" >       45 </v>
   <v type="int" >       46 </v>
   <v type="int" >       47 </v>
   <v type="int" >       48 </v>
   <v type="int" >       49 </v>
   <v type="int" >       50 </v>
   <v type="int" >       51 </v>
   <v type="int" >       52 </v>
   <v type="int" >       53 </v>
   <v type="int" >       54 </v>
   <v type="int" >       55 </v>
   <v type="int" >       56 </v>
   <v type="int" >       57 </v>
   <v type="int" >       58 </v>
   <v type="int" >       59 </v>
   <v type="int" >       60 </v>
   <v type="int" >       61 </v>
   <v type="int" >       62 </v>
   <v type="int" >       63 </v>
   <v type="int" >       64 </v>
   <v type="int" >       65 </v>
   <v type="int" >       66 </v>
   <v type="int" >       67 </v>
   <v type="int" >       68 </v>
   <v type="int" >       69 </v>
   <v type="int" >       70 </v>
   <v type="int" >       71 </v>
   <v type="int" >       72 </v>
   <v type="int" >       73 </v>
   <v type="int" >       74 </v>
   <v type="int" >       75 </v>
   <v type="int" >       76 </v>
   <v type="int" >       77 </v>
   <v type="int" >       78 </v>
   <v type="int" >       79 </v>
   <v type="int" >       80 </v>
   <v type="int" >       81 </v>
   <v type="int" >       82 </v>
   <v type="int" >       83 </v>
   <v type="int" >       84 </v>
   <v type="int" >       85 </v>
   <v type="int" >       86 </v>
   <v type="int" >       87 </v>
   <v type="int" >       88 </v>
   <v type="int" >       89 </v>
   <v type="int" >       90 </v>
   <v type="int" >       91 </v>
   <v type="int" >       92 </v>
   <v type="int" >       93 </v>
   <v type="int" >       94 </v>
   <v type="int" >       95 </v>
   <v type="int" >       96 </v>
   <v type="int" >       97 </v>
   <v type="int" >       98 </v>
   <v type="int" >       99 </v>
   <v type="int" >      100 </v>
   <v type="int" >      101 </v>
   <v type="int" >      102 </v>
   <v type="int" >      103 </v>
   <v type="int" >      104 </v>
   <v type="int" >      105 </v>
   <v type="int" >      106 </v>
   <v type="int" >      107 </v>
   <v type="int" >      108 </v>
   <v type="int" >      109 </v>
   <v type="int" >      110 </v>
   <v type="int" >      111 </v>
   <v type="int" >      112 </v>
   <v type="int" >      113 </v>
   <v type="int" >      114 </v>
   <v type="int" >      115 </v>
   <v type="int" >      116 </v>
   <v type="int" >      117 </v>
   <v type="int" >      118 </v>
   <v type="int" >      119 </v>
   <v type="int" >      120 </v>
   <v type="int" >      121 </v>
   <v type="int" >      122 </v>
   <v type="int" >      123 </v>
   <v type="int" >      124 </v>
   <v type="int" >      125 </v>
   <v type="int" >      126 </v>
   <v type="int" >      127 </v>
   <v type="int" >      128 </v>
   <v type="int" >      129 </v>
   <v type="int" >      130 </v>
   <v type="int" >      131 </v>
   <v type="int" >      132 </v>
   <v type="int" >      133 </v>
   <v type="int" >      134 </v>
   <v type="int" >      135 </v>
   <v type="int" >      136 </v>
   <v type="int" >      137 </v>
   <v type="int" >      138 </v>
   <v type="int" >      139 </v>
   <v type="int" >      140 </v>
   <v type="int" >      141 </v>
   <v type="int" >      142 </v>
   <v type="int" >      143 </v>
   <v type="int" >      144 </v>
   <v type="int" >      145 </v>
   <v type="int" >      146 </v>
   <v type="int" >      147 </v>
   <v type="int" >      148 </v>
   <v type="int" >      149 </v>
   <v type="int" >      150 </v>
   <v type="int" >      151 </v>
   <v type="int" >      152 </v>
   <v type="int" >      153 </v>
   <v type="int" >      154 </v>
   <v type="int" >      155 </v>
   <v type="int" >      156 </v>
   <v type="int" >      157 </v>
   <v type="int" >      158 </v>
   <v type="int" >      159 </v>
   <v type="int" >      160 </v>
   <v type="int" >      161 </v>
   <v type="int" >      162 </v>
   <v type="int" >      163 </v>
   <v type="int" >      164 </v>
   <v type="int" >      165 </v>
   <v type="int" >      166 </v>
   <v type="int" >      167 </v>
   <v type="int" >      168 </v>
   <v type="int" >      169 </v>
   <v type="int" >      170 </v>
   <v type="int" >      171 </v>
   <v type="int" >      172 </v>
   <v type="int" >      173 </v>
   <v type="int" >      174 </v>
   <v type="int" >      175 </v>
   <v type="int" >      176 </v>
   <v type="int" >      177 </v>
   <v type="int" >      178 </v>
   <v type="int" >      179 </v>
   <v type="int" >      180 </v>
   <v type="int" >      181 </v>
   <v type="int" >      182 </v>
   <v type="int" >      183 </v>
   <v type="int" >      184 </v>
   <v type="int" >      185 </v>
   <v type="int" >      186 </v>
   <v type="int" >      187 </v>
   <v type="int" >      188 </v>
   <v type="int" >      189 </v>
   <v type="int" >      190 </v>
   <v type="int" >      191 </v>
   <v type="int" >      192 </v>
   <v type="int" >      193 </v>
   <v type="int" >      194 </v>
   <v type="int" >      195 </v>
   <v type="int" >      196 </v>
   <v type="int" >      197 </v>
   <v type="int" >      198 </v>
   <v type="int" >      199 </v>
   <v type="int" >      200 </v>
   <v type="int" >      201 </v>
   <v type="int" >      202 </v>
   <v type="int" >      203 </v>
   <v type="int" >      204 </v>
   <v type="int" >      205 </v>
   <v type="int" >      206 </v>
   <v type="int" >      207 </v>
   <v type="int" >      208 </v>
   <v type="int" >      209 </v>
   <v type="int" >      210 </v>
   <v type="int" >      211 </v>
   <v type="int" >      212 </v>
   <v type="int" >      213 </v>
   <v type="int" >      214 </v>
   <v type="int" >      215 </v>
   <v type="int" >      216 </v>
   <v type="int" >      217 </v>
   <v type="int" >      218 </v>
   <v type="int" >      219 </v>
   <v type="int" >      220 </v>
   <v type="int" >      221 </v>
   <v type="int" >      222 </v>
   <v type="int" >      223 </v>
   <v type="int" >      224 </v>
   <v type="int" >      225 </v>
   <v type="int" >      226 </v>
   <v type="int" >      227 </v>
   <v type="int" >      228 </v>
   <v type="int" >      229 </v>
   <v type="int" >      230 </v>
   <v type="int" >      231 </v>
   <v type="int" >      232 </v>
   <v type="int" >      233 </v>
   <v type="int" >      234 </v>
   <v type="int" >      235 </v>
   <v type="int" >      236 </v>
   <v type="int" >      237 </v>
   <v type="int" >      238 </v>
   <v type="int" >      239 </v>
   <v type="int" >      240 </v>
   <v type="int" >      241 </v>
   <v type="int" >      242 </v>
   <v type="int" >      243 </v>
   <v type="int" >      244 </v>
   <v type="int" >      245 </v>
   <v type="int" >      246 </v>
   <v type="int" >      247 </v>
   <v type="int" >      248 </v>
   <v type="int" >      249 </v>
   <v type="int" >      250 </v>
   <v type="int" >      251 </v>
   <v type="int" >      252 </v>
   <v type="int" >      253 </v>
   <v type="int" >      254 </v>
   <v type="int" >      255 </v>
   <v type="int" >      256 </v>
   <v type="int" >      257 </v>
   <v type="int" >      258 </v>
   <v type="int" >      259 </v>
   <v type="int" >      260 </v>
   <v type="int" >      261 </v>
   <v type="int" >      262 </v>
   <v type="int" >      263 </v>
   <v type="int" >      264 </v>
   <v type="int" >      265 </v>
   <v type="int" >      266 </v>
   <v type="int" >      267 </v>
   <v type="int" >      268 </v>
   <v type="int" >      269 </v>
   <v type="int" >      270 </v>
   <v type="int" >      271 </v>
   <v type="int" >      272 </v>
   <v type="int" >      273 </v>
   <v type="int" >      274 </v>
   <v type="int" >      275 </v>
   <v type="int" >      276 </v>
   <v type="int" >      277 </v>
   <v type="int" >      278 </v>
   <v type="int" >      279 </v>
   <v type="int" >      280 </v>
   <v type="int" >      281 </v>
   <v type="int" >      282 </v>
   <v type="int" >      283 </v>
   <v type="int" >      284 </v>
   <v type="int" >      285 </v>
   <v type="int" >      286 </v>
   <v type="int" >      287 </v>
   <v type="int" >      288 </v>
   <v type="int" >      289 </v>
   <v type="int" >      290 </v>
   <v type="int" >      291 </v>
   <v type="int" >      292 </v>
   <v type="int" >      293 </v>
   <v type="int" >      294 </v>
   <v type="int" >      295 </v>
   <v type="int" >      296 </v>
   <v type="int" >      297 </v>
   <v type="int" >      298 </v>
   <v type="int" >      299 </v>
   <v type="int" >      300 </v>
   <v type="int" >      301 </v>
   <v type="int" >      302 </v>
   <v type="int" >      303 </v>
   <v type="int" >      304 </v>
   <v type="int" >      305 </v>
   <v type="int" >      306 </v>
   <v type="int" >      307 </v>
   <v type="int" >      308 </v>
   <v type="int" >      309 </v>
   <v type="int" >      310 </v>
   <v type="int" >      311 </v>
   <v type="int" >      312 </v>
   <v type="int" >      313 </v>
   <v type="int" >      314 </v>
   <v type="int" >      315 </v>
   <v type="int" >      316 </v>
   <v type="int" >      317 </v>
   <v type="int" >      318 </v>
   <v type="int" >      319 </v>
   <v type="int" >      320 </v>
   <v type="int" >      321 </v>
   <v type="int" >      322 </v>
   <v type="int" >      323 </v>
   <v type="int" >      324 </v>
   <v type="int" >      325 </v>
  </varray>
 </primitive_cell>
 <kpoints>
  <generation param="Gamma">
   <v type="int" name="divisions">       3        3        1 </v>
   <v name="usershift">      0.00000000       0.00000000       0.00000000 </v>
   <v name="genvec1">      0.33333333       0.00000000       0.00000000 </v>
   <v name="genvec2">      0.00000000       0.33333333       0.00000000 </v>
   <v name="genvec3">      0.00000000       0.00000000       1.00000000 </v>
   <v name="shift">      0.00000000       0.00000000       0.00000000 </v>
  </generation>
  <varray name="kpointlist" >
   <v>       0.00000000       0.00000000       0.00000000 </v>
   <v>       0.33333333       0.00000000       0.00000000 </v>
   <v>       0.00000000       0.33333333       0.00000000 </v>
   <v>       0.33333333       0.33333333       0.00000000 </v>
   <v>      -0.33333333       0.33333333       0.00000000 </v>
  </varray>
  <varray name="weights" >
   <v>       0.11111111 </v>
   <v>       0.22222222 </v>
   <v>       0.22222222 </v>
   <v>       0.22222222 </v>
   <v>       0.22222222 </v>
  </varray>
 </kpoints>
 <parameters>
  <separator name="general" >
   <i type="string" name="SYSTEM">PSC</i>
   <i type="logical" name="LCOMPAT"> F  </i>
  </separator>
  <separator name="electronic" >
   <i type="string" name="PREC">normal</i>
   <i name="ENMAX">    500.00000000</i>
   <i name="ENAUG">    644.87300000</i>
   <i name="EDIFF">      0.00010000</i>
   <i type="int" name="IALGO">    38</i>
   <i type="int" name="IWAVPR">    10</i>
   <i type="int" name="NBANDS">   732</i>
   <i type="int" name="NBANDSLOW">    -1</i>
   <i type="int" name="NBANDSHIGH">    -1</i>
   <i name="NELECT">   1134.00000000</i>
   <i type="int" name="TURBO">     0</i>
   <i type="int" name="IRESTART">     0</i>
   <i type="int" name="NREBOOT">     0</i>
   <i type="int" name="NMIN">     0</i>
   <i name="EREF">      0.00000000</i>
   <separator name="electronic smearing" >
    <i type="int" name="ISMEAR">     0</i>
    <i name="SIGMA">      0.05000000</i>
    <i name="KSPACING">      0.50000000</i>
    <i type="logical" name="KGAMMA"> T  </i>
    <i type="logical" name="KBLOWUP"> T  </i>
   </separator>
   <separator name="electronic projectors" >
    <i type="logical" name="LREAL"> T  </i>
    <v name="ROPT">     -0.00050000     -0.00050000     -0.00050000     -0.00050000     -0.00050000</v>
    <i type="int" name="LMAXPAW">  -100</i>
    <i type="int" name="LMAXMIX">     2</i>
    <i type="logical" name="NLSPLINE"> F  </i>
   </separator>
   <separator name="electronic startup" >
    <i type="int" name="ISTART">     0</i>
    <i type="int" name="ICHARG">     1</i>
    <i type="int" name="INIWAV">     1</i>
   </separator>
   <separator name="electronic spin" >
    <i type="int" name="ISPIN">     1</i>
    <i type="logical" name="LNONCOLLINEAR"> F  </i>
    <v name="MAGMOM">      1.00000000      1.00000000      1.00000000      1.00000000      1.00000000      1.00000000      1.00000000      1.00000000      1.00000000      1.00000000      1.00000000      1.00000000      1.00000000      1.00000000      1.00000000      1.00000000      1.00000000      1.00000000      1.00000000      1.00000000
      1.00000000      1.00000000      1.00000000      1.00000000      1.00000000      1.00000000      1.00000000      1.00000000      1.00000000      1.00000000      1.00000000      1.00000000      1.00000000      1.00000000      1.00000000      1.00000000      1.00000000      1.00000000      1.00000000      1.00000000
      1.00000000      1.00000000      1.00000000      1.00000000      1.00000000      1.00000000      1.00000000      1.00000000      1.00000000      1.00000000      1.00000000      1.00000000      1.00000000      1.00000000      1.00000000      1.00000000      1.00000000      1.00000000      1.00000000      1.00000000
      1.00000000      1.00000000      1.00000000      1.00000000      1.00000000      1.00000000      1.00000000      1.00000000      1.00000000      1.00000000      1.00000000      1.00000000      1.00000000      1.00000000      1.00000000      1.00000000      1.00000000      1.00000000      1.00000000      1.00000000
      1.00000000      1.00000000      1.00000000      1.00000000      1.00000000      1.00000000      1.00000000      1.00000000      1.00000000      1.00000000      1.00000000      1.00000000      1.00000000      1.00000000      1.00000000      1.00000000      1.00000000      1.00000000      1.00000000      1.00000000
      1.00000000      1.00000000      1.00000000      1.00000000      1.00000000      1.00000000      1.00000000      1.00000000      1.00000000      1.00000000      1.00000000      1.00000000      1.00000000      1.00000000      1.00000000      1.00000000      1.00000000      1.00000000      1.00000000      1.00000000
      1.00000000      1.00000000      1.00000000      1.00000000      1.00000000      1.00000000      1.00000000      1.00000000      1.00000000      1.00000000      1.00000000      1.00000000      1.00000000      1.00000000      1.00000000      1.00000000      1.00000000      1.00000000      1.00000000      1.00000000
      1.00000000      1.00000000      1.00000000      1.00000000      1.00000000      1.00000000      1.00000000      1.00000000      1.00000000      1.00000000      1.00000000      1.00000000      1.00000000      1.00000000      1.00000000      1.00000000      1.00000000      1.00000000      1.00000000      1.00000000
      1.00000000      1.00000000      1.00000000      1.00000000      1.00000000      1.00000000      1.00000000      1.00000000      1.00000000      1.00000000      1.00000000      1.00000000      1.00000000      1.00000000      1.00000000      1.00000000      1.00000000      1.00000000      1.00000000      1.00000000
      1.00000000      1.00000000      1.00000000      1.00000000      1.00000000      1.00000000      1.00000000      1.00000000      1.00000000      1.00000000      1.00000000      1.00000000      1.00000000      1.00000000      1.00000000      1.00000000      1.00000000      1.00000000      1.00000000      1.00000000
      1.00000000      1.00000000      1.00000000      1.00000000      1.00000000      1.00000000      1.00000000      1.00000000      1.00000000      1.00000000      1.00000000      1.00000000      1.00000000      1.00000000      1.00000000      1.00000000      1.00000000      1.00000000      1.00000000      1.00000000
      1.00000000      1.00000000      1.00000000      1.00000000      1.00000000      1.00000000      1.00000000      1.00000000      1.00000000      1.00000000      1.00000000      1.00000000      1.00000000      1.00000000      1.00000000      1.00000000      1.00000000      1.00000000      1.00000000      1.00000000
      1.00000000      1.00000000      1.00000000      1.00000000      1.00000000      1.00000000      1.00000000      1.00000000      1.00000000      1.00000000      1.00000000      1.00000000      1.00000000      1.00000000      1.00000000      1.00000000      1.00000000      1.00000000      1.00000000      1.00000000
      1.00000000      1.00000000      1.00000000      1.00000000      1.00000000      1.00000000      1.00000000      1.00000000      1.00000000      1.00000000      1.00000000      1.00000000      1.00000000      1.00000000      1.00000000      1.00000000      1.00000000      1.00000000      1.00000000      1.00000000
      1.00000000      1.00000000      1.00000000      1.00000000      1.00000000      1.00000000      1.00000000      1.00000000      1.00000000      1.00000000      1.00000000      1.00000000      1.00000000      1.00000000      1.00000000      1.00000000      1.00000000      1.00000000      1.00000000      1.00000000
      1.00000000      1.00000000      1.00000000      1.00000000      1.00000000      1.00000000      1.00000000      1.00000000      1.00000000      1.00000000      1.00000000      1.00000000      1.00000000      1.00000000      1.00000000      1.00000000      1.00000000      1.00000000      1.00000000      1.00000000
      1.00000000      1.00000000      1.00000000      1.00000000      1.00000000</v>
    <i name="NUPDOWN">     -1.00000000</i>
    <i type="logical" name="LSORBIT"> F  </i>
    <v name="SAXIS">      0.00000000      0.00000000      1.00000000</v>
    <i type="logical" name="LSPIRAL"> F  </i>
    <v name="QSPIRAL">      0.00000000      0.00000000      0.00000000</v>
    <i type="logical" name="LZEROZ"> F  </i>
   </separator>
   <separator name="electronic exchange-correlation" >
    <i type="logical" name="LASPH"> F  </i>
    <i type="logical" name="LMETAGGA"> F  </i>
   </separator>
   <separator name="electronic convergence" >
    <i type="int" name="NELM">   600</i>
    <i type="int" name="NELMDL">     0</i>
    <i type="int" name="NELMIN">     2</i>
    <i name="ENINI">    500.00000000</i>
    <separator name="electronic convergence detail" >
     <i type="logical" name="LDIAG"> T  </i>
     <i type="logical" name="LSUBROT"> F  </i>
     <i name="WEIMIN">      0.00000000</i>
     <i name="EBREAK">      0.00000003</i>
     <i name="DEPER">      0.30000000</i>
     <i type="int" name="NRMM">     4</i>
     <i name="TIME">      0.40000000</i>
    </separator>
   </separator>
   <separator name="electronic mixer" >
    <i name="AMIX">      0.40000000</i>
    <i name="BMIX">      0.01000000</i>
    <i name="AMIN">      0.01000000</i>
    <i name="AMIX_MAG">      1.60000000</i>
    <i name="BMIX_MAG">      0.01000000</i>
    <separator name="electronic mixer details" >
     <i type="int" name="IMIX">     4</i>
     <i type="logical" name="MIXFIRST"> F  </i>
     <i type="int" name="MAXMIX">   -45</i>
     <i name="WC">    100.00000000</i>
     <i type="int" name="INIMIX">     1</i>
     <i type="int" name="MIXPRE">     1</i>
     <i type="int" name="MREMOVE">     5</i>
    </separator>
   </separator>
   <separator name="electronic dipolcorrection" >
    <i type="logical" name="LDIPOL"> T  </i>
    <i type="logical" name="LMONO"> F  </i>
    <i type="int" name="IDIPOL">     3</i>
    <i name="EPSILON">      1.00000000</i>
    <v name="DIPOL">   -100.00000000   -100.00000000   -100.00000000</v>
    <i name="EFIELD">      0.00000000</i>
   </separator>
  </separator>
  <separator name="grids" >
   <i type="int" name="NGX">   100</i>
   <i type="int" name="NGY">   100</i>
   <i type="int" name="NGZ">   350</i>
   <i type="int" name="NGXF">   200</i>
   <i type="int" name="NGYF">   200</i>
   <i type="int" name="NGZF">   700</i>
   <i type="logical" name="ADDGRID"> F  </i>
  </separator>
  <separator name="ionic" >
   <i type="int" name="NSW">     0</i>
   <i type="int" name="IBRION">    -1</i>
   <i type="int" name="MDALGO">     0</i>
   <i type="int" name="ISIF">     2</i>
   <i name="PSTRESS">      0.00000000</i>
   <i name="EDIFFG">      0.00100000</i>
   <i type="int" name="NFREE">     0</i>
   <i name="POTIM">      0.50000000</i>
   <i name="SMASS">     -3.00000000</i>
   <i name="SCALEE">      1.00000000</i>
  </separator>
  <separator name="ionic md" >
   <i name="TEBEG">      0.00010000</i>
   <i name="TEEND">      0.00010000</i>
   <i type="int" name="NBLOCK">     1</i>
   <i type="int" name="KBLOCK">     1</i>
   <i type="int" name="NPACO">   256</i>
   <i name="APACO">     16.00000000</i>
  </separator>
  <separator name="symmetry" >
   <i type="int" name="ISYM">     0</i>
   <i name="SYMPREC">      0.00001000</i>
  </separator>
  <separator name="dos" >
   <i type="int" name="LORBIT">     0</i>
   <v name="RWIGS">     -1.00000000     -1.00000000     -1.00000000     -1.00000000     -1.00000000</v>
   <i type="int" name="NEDOS">   301</i>
   <i name="EMIN">     10.00000000</i>
   <i name="EMAX">    -10.00000000</i>
   <i name="EFERMI">      0.00000000</i>
  </separator>
  <separator name="writing" >
   <i type="int" name="NWRITE">     2</i>
   <i type="logical" name="LWAVE"> F  </i>
   <i type="logical" name="LDOWNSAMPLE"> F  </i>
   <i type="logical" name="LCHARG"> T  </i>
   <i type="logical" name="LPARD"> F  </i>
   <i type="logical" name="LVTOT"> T  </i>
   <i type="logical" name="LVHAR"> F  </i>
   <i type="logical" name="LELF"> F  </i>
   <i type="logical" name="LOPTICS"> F  </i>
   <v name="STM">      0.00000000      0.00000000      0.00000000      0.00000000      0.00000000      0.00000000      0.00000000</v>
  </separator>
  <separator name="performance" >
   <i type="int" name="NPAR">     4</i>
   <i type="int" name="NSIM">     4</i>
   <i type="int" name="NBLK">    -1</i>
   <i type="logical" name="LPLANE"> T  </i>
   <i type="logical" name="LSCALAPACK"> T  </i>
   <i type="logical" name="LSCAAWARE"> F  </i>
   <i type="logical" name="LSCALU"> F  </i>
   <i type="logical" name="LASYNC"> F  </i>
   <i type="logical" name="LORBITALREAL"> F  </i>
  </separator>
  <separator name="miscellaneous" >
   <i type="int" name="IDIOT">     3</i>
   <i type="int" name="PHON_NSTRUCT">    -1</i>
   <i type="logical" name="LMUSIC"> F  </i>
   <v name="POMASS">      1.00000000     12.01100000     14.00100000    126.90400000    207.20000000</v>
   <v name="DARWINR">      0.00000000      0.00000000      0.00000000      0.00000000      0.00000000</v>
   <v name="DARWINV">      1.00000000      1.00000000      1.00000000      1.00000000      1.00000000</v>
   <i type="logical" name="LCORR"> T  </i>
  </separator>
  <i type="logical" name="GGA_COMPAT"> F  </i>
  <i type="logical" name="LBERRY"> F  </i>
  <i type="int" name="ICORELEVEL">     0</i>
  <i type="logical" name="LDAU"> F  </i>
  <i type="int" name="I_CONSTRAINED_M">     0</i>
  <separator name="electronic exchange-correlation" >
   <i type="string" name="GGA">--</i>
   <i type="int" name="VOSKOWN">     0</i>
   <i type="logical" name="LHFCALC"> F  </i>
   <i type="string" name="PRECFOCK"></i>
   <i type="logical" name="LSYMGRAD"> F  </i>
   <i type="logical" name="LHFONE"> F  </i>
   <i type="logical" name="LRHFCALC"> F  </i>
   <i type="logical" name="LTHOMAS"> F  </i>
   <i type="logical" name="LMODELHF"> F  </i>
   <i type="logical" name="LFOCKACE"> F  </i>
   <i name="ENCUT4O">     -1.00000000</i>
   <i type="int" name="EXXOEP">     0</i>
   <i type="int" name="FOURORBIT">     0</i>
   <i name="AEXX">      0.00000000</i>
   <i name="HFALPHA">      0.00000000</i>
   <i name="MCALPHA">      0.00000000</i>
   <i name="ALDAX">      1.00000000</i>
   <i name="AGGAX">      1.00000000</i>
   <i name="ALDAC">      1.00000000</i>
   <i name="AGGAC">      1.00000000</i>
   <i type="int" name="NKREDX">     1</i>
   <i type="int" name="NKREDY">     1</i>
   <i type="int" name="NKREDZ">     1</i>
   <i type="logical" name="SHIFTRED"> F  </i>
   <i type="logical" name="ODDONLY"> F  </i>
   <i type="logical" name="EVENONLY"> F  </i>
   <i type="int" name="LMAXFOCK">     0</i>
   <i type="int" name="NMAXFOCKAE">     0</i>
   <i type="logical" name="LFOCKAEDFT"> F  </i>
   <i name="HFSCREEN">      0.00000000</i>
   <i name="HFSCREENC">      0.00000000</i>
   <i type="int" name="NBANDSGWLOW">     0</i>
  </separator>
  <separator name="vdW DFT" >
   <i type="logical" name="LUSE_VDW"> F  </i>
   <i name="Zab_VDW">     -0.84910000</i>
   <i name="PARAM1">      0.12340000</i>
   <i name="PARAM2">      1.00000000</i>
   <i name="PARAM3">      0.00000000</i>
  </separator>
  <separator name="model GW" >
   <i type="int" name="MODEL_GW">     0</i>
   <i name="MODEL_EPS0">     37.63423484</i>
   <i name="MODEL_ALPHA">      1.00000000</i>
  </separator>
  <separator name="linear response parameters" >
   <i type="logical" name="LEPSILON"> F  </i>
   <i type="logical" name="LRPA"> F  </i>
   <i type="logical" name="LNABLA"> F  </i>
   <i type="logical" name="LVEL"> F  </i>
   <i type="int" name="KINTER">     0</i>
   <i name="CSHIFT">      0.10000000</i>
   <i name="OMEGAMAX">     -1.00000000</i>
   <i name="DEG_THRESHOLD">      0.00200000</i>
   <i name="RTIME">     -0.10000000</i>
   <i name="WPLASMAI">      0.00000000</i>
   <v name="DFIELD">      0.00000000      0.00000000      0.00000000</v>
   <v name="WPLASMA">      0.00000000      0.00000000      0.00000000      0.00000000      0.00000000      0.00000000      0.00000000      0.00000000      0.00000000</v>
  </separator>
  <separator name="orbital magnetization" >
   <i type="logical" name="NUCIND"> F  </i>
   <v name="MAGPOS">      0.00000000      0.00000000      0.00000000</v>
   <i type="logical" name="LNICSALL"> T  </i>
   <i type="logical" name="ORBITALMAG"> F  </i>
   <i type="logical" name="LMAGBLOCH"> F  </i>
   <i type="logical" name="LCHIMAG"> F  </i>
   <i type="logical" name="LGAUGE"> T  </i>
   <i type="int" name="MAGATOM">     0</i>
   <v name="MAGDIPOL">      0.00000000      0.00000000      0.00000000</v>
   <v name="AVECCONST">      0.00000000      0.00000000      0.00000000</v>
  </separator>
  <separator name="response functions" >
   <i type="logical" name="LFINITE_TEMPERATURE"> F  </i>
   <i type="logical" name="LADDER"> F  </i>
   <i type="logical" name="LRPAFORCE"> F  </i>
   <i type="logical" name="LFXC"> F  </i>
   <i type="logical" name="LHARTREE"> T  </i>
   <i type="int" name="IBSE">     0</i>
   <v type="int" name="KPOINT">    -1     0     0     0</v>
   <i type="logical" name="LTCTC"> F  </i>
   <i type="logical" name="LTCTE"> F  </i>
   <i type="logical" name="LTETE"> F  </i>
   <i type="logical" name="LTRIPLET"> F  </i>
   <i type="logical" name="LFXCEPS"> F  </i>
   <i type="logical" name="LFXHEG"> F  </i>
   <i type="int" name="NATURALO">     2</i>
   <i type="logical" name="LHOLEGF"> F  </i>
   <i type="logical" name="L2ORDER"> F  </i>
   <i type="logical" name="LDMP1"> F  </i>
   <i type="logical" name="LMP2LT"> F  </i>
   <i type="logical" name="LSMP2LT"> F  </i>
   <i type="logical" name="LGWLF"> F  </i>
   <i name="ENCUTGW">     -2.00000000</i>
   <i name="ENCUTGWSOFT">     -2.00000000</i>
   <i name="ENCUTLF">     -1.00000000</i>
   <i type="logical" name="LESF_SPLINES"> F  </i>
   <i type="int" name="LMAXMP2">    -1</i>
   <i name="SCISSOR">      0.00000000</i>
   <i type="int" name="NOMEGA">     0</i>
   <i type="int" name="NOMEGAR">     0</i>
   <i type="int" name="NBANDSGW">    -1</i>
   <i type="int" name="NBANDSO">    -1</i>
   <i type="int" name="NBANDSV">    -1</i>
   <i type="int" name="NELM">   600</i>
   <i type="int" name="NELMHF">     1</i>
   <i type="int" name="DIM">     3</i>
   <i type="int" name="IESPILON">     4</i>
   <i type="int" name="ANTIRES">     0</i>
   <i name="OMEGAMAX">    -30.00000000</i>
   <i name="OMEGAMIN">    -30.00000000</i>
   <i name="OMEGATL">   -200.00000000</i>
   <i type="int" name="OMEGAGRID">     0</i>
   <i name="CSHIFT">     -0.10000000</i>
   <i type="logical" name="LSELFENERGY"> F  </i>
   <i type="logical" name="LSPECTRAL"> F  </i>
   <i type="logical" name="LSPECTRALGW"> F  </i>
   <i type="logical" name="LSINGLES"> F  </i>
   <i type="logical" name="LFERMIGW"> F  </i>
   <i type="logical" name="ODDONLYGW"> F  </i>
   <i type="logical" name="EVENONLYGW"> F  </i>
   <i type="int" name="NKREDLFX">     1</i>
   <i type="int" name="NKREDLFY">     1</i>
   <i type="int" name="NKREDLFZ">     1</i>
   <i type="int" name="MAXMEM">  2800</i>
   <i type="int" name="TELESCOPE">     0</i>
   <i type="int" name="NTAUPAR">    -1</i>
   <i type="int" name="NOMEGAPAR">    -1</i>
   <i name="DAMP_NEWTON">      0.80000001</i>
   <i name="LAMBDA">      1.00000000</i>
  </separator>
  <separator name="External order field" >
   <i name="OFIELD_KAPPA">      0.00000000</i>
   <v name="OFIELD_K">      0.00000000      0.00000000      0.00000000</v>
   <i name="OFIELD_Q6_NEAR">      0.00000000</i>
   <i name="OFIELD_Q6_FAR">      0.00000000</i>
   <i name="OFIELD_A">      0.00000000</i>
  </separator>
 </parameters>
 <atominfo>
  <atoms>     325 </atoms>
  <types>       5 </types>
  <array name="atoms" >
   <dimension dim="1">ion</dimension>
   <field type="string">element</field>
   <field type="int">atomtype</field>
   <set>
    <rc><c>H </c><c>   1</c></rc>
    <rc><c>H </c><c>   1</c></rc>
    <rc><c>H </c><c>   1</c></rc>
    <rc><c>H </c><c>   1</c></rc>
    <rc><c>H </c><c>   1</c></rc>
    <rc><c>H </c><c>   1</c></rc>
    <rc><c>H </c><c>   1</c></rc>
    <rc><c>H </c><c>   1</c></rc>
    <rc><c>H </c><c>   1</c></rc>
    <rc><c>H </c><c>   1</c></rc>
    <rc><c>H </c><c>   1</c></rc>
    <rc><c>H </c><c>   1</c></rc>
    <rc><c>H </c><c>   1</c></rc>
    <rc><c>H </c><c>   1</c></rc>
    <rc><c>H </c><c>   1</c></rc>
    <rc><c>H </c><c>   1</c></rc>
    <rc><c>H </c><c>   1</c></rc>
    <rc><c>H </c><c>   1</c></rc>
    <rc><c>H </c><c>   1</c></rc>
    <rc><c>H </c><c>   1</c></rc>
    <rc><c>H </c><c>   1</c></rc>
    <rc><c>H </c><c>   1</c></rc>
    <rc><c>H </c><c>   1</c></rc>
    <rc><c>H </c><c>   1</c></rc>
    <rc><c>H </c><c>   1</c></rc>
    <rc><c>H </c><c>   1</c></rc>
    <rc><c>H </c><c>   1</c></rc>
    <rc><c>H </c><c>   1</c></rc>
    <rc><c>H </c><c>   1</c></rc>
    <rc><c>H </c><c>   1</c></rc>
    <rc><c>H </c><c>   1</c></rc>
    <rc><c>H </c><c>   1</c></rc>
    <rc><c>H </c><c>   1</c></rc>
    <rc><c>H </c><c>   1</c></rc>
    <rc><c>H </c><c>   1</c></rc>
    <rc><c>H </c><c>   1</c></rc>
    <rc><c>H </c><c>   1</c></rc>
    <rc><c>H </c><c>   1</c></rc>
    <rc><c>H </c><c>   1</c></rc>
    <rc><c>H </c><c>   1</c></rc>
    <rc><c>H </c><c>   1</c></rc>
    <rc><c>H </c><c>   1</c></rc>
    <rc><c>H </c><c>   1</c></rc>
    <rc><c>H </c><c>   1</c></rc>
    <rc><c>H </c><c>   1</c></rc>
    <rc><c>H </c><c>   1</c></rc>
    <rc><c>H </c><c>   1</c></rc>
    <rc><c>H </c><c>   1</c></rc>
    <rc><c>H </c><c>   1</c></rc>
    <rc><c>H </c><c>   1</c></rc>
    <rc><c>H </c><c>   1</c></rc>
    <rc><c>H </c><c>   1</c></rc>
    <rc><c>H </c><c>   1</c></rc>
    <rc><c>H </c><c>   1</c></rc>
    <rc><c>H </c><c>   1</c></rc>
    <rc><c>H </c><c>   1</c></rc>
    <rc><c>H </c><c>   1</c></rc>
    <rc><c>H </c><c>   1</c></rc>
    <rc><c>H </c><c>   1</c></rc>
    <rc><c>H </c><c>   1</c></rc>
    <rc><c>H </c><c>   1</c></rc>
    <rc><c>H </c><c>   1</c></rc>
    <rc><c>H </c><c>   1</c></rc>
    <rc><c>H </c><c>   1</c></rc>
    <rc><c>H </c><c>   1</c></rc>
    <rc><c>H </c><c>   1</c></rc>
    <rc><c>H </c><c>   1</c></rc>
    <rc><c>H </c><c>   1</c></rc>
    <rc><c>H </c><c>   1</c></rc>
    <rc><c>H </c><c>   1</c></rc>
    <rc><c>H </c><c>   1</c></rc>
    <rc><c>H </c><c>   1</c></rc>
    <rc><c>H </c><c>   1</c></rc>
    <rc><c>H </c><c>   1</c></rc>
    <rc><c>H </c><c>   1</c></rc>
    <rc><c>H </c><c>   1</c></rc>
    <rc><c>H </c><c>   1</c></rc>
    <rc><c>H </c><c>   1</c></rc>
    <rc><c>H </c><c>   1</c></rc>
    <rc><c>H </c><c>   1</c></rc>
    <rc><c>H </c><c>   1</c></rc>
    <rc><c>H </c><c>   1</c></rc>
    <rc><c>H </c><c>   1</c></rc>
    <rc><c>H </c><c>   1</c></rc>
    <rc><c>H </c><c>   1</c></rc>
    <rc><c>H </c><c>   1</c></rc>
    <rc><c>H </c><c>   1</c></rc>
    <rc><c>H </c><c>   1</c></rc>
    <rc><c>H </c><c>   1</c></rc>
    <rc><c>H </c><c>   1</c></rc>
    <rc><c>H </c><c>   1</c></rc>
    <rc><c>H </c><c>   1</c></rc>
    <rc><c>H </c><c>   1</c></rc>
    <rc><c>H </c><c>   1</c></rc>
    <rc><c>H </c><c>   1</c></rc>
    <rc><c>H </c><c>   1</c></rc>
    <rc><c>H </c><c>   1</c></rc>
    <rc><c>H </c><c>   1</c></rc>
    <rc><c>H </c><c>   1</c></rc>
    <rc><c>H </c><c>   1</c></rc>
    <rc><c>H </c><c>   1</c></rc>
    <rc><c>H </c><c>   1</c></rc>
    <rc><c>H </c><c>   1</c></rc>
    <rc><c>H </c><c>   1</c></rc>
    <rc><c>H </c><c>   1</c></rc>
    <rc><c>H </c><c>   1</c></rc>
    <rc><c>H </c><c>   1</c></rc>
    <rc><c>H </c><c>   1</c></rc>
    <rc><c>H </c><c>   1</c></rc>
    <rc><c>H </c><c>   1</c></rc>
    <rc><c>H </c><c>   1</c></rc>
    <rc><c>H </c><c>   1</c></rc>
    <rc><c>H </c><c>   1</c></rc>
    <rc><c>H </c><c>   1</c></rc>
    <rc><c>H </c><c>   1</c></rc>
    <rc><c>H </c><c>   1</c></rc>
    <rc><c>H </c><c>   1</c></rc>
    <rc><c>H </c><c>   1</c></rc>
    <rc><c>H </c><c>   1</c></rc>
    <rc><c>H </c><c>   1</c></rc>
    <rc><c>H </c><c>   1</c></rc>
    <rc><c>H </c><c>   1</c></rc>
    <rc><c>H </c><c>   1</c></rc>
    <rc><c>H </c><c>   1</c></rc>
    <rc><c>H </c><c>   1</c></rc>
    <rc><c>H </c><c>   1</c></rc>
    <rc><c>H </c><c>   1</c></rc>
    <rc><c>H </c><c>   1</c></rc>
    <rc><c>H </c><c>   1</c></rc>
    <rc><c>H </c><c>   1</c></rc>
    <rc><c>H </c><c>   1</c></rc>
    <rc><c>H </c><c>   1</c></rc>
    <rc><c>H </c><c>   1</c></rc>
    <rc><c>H </c><c>   1</c></rc>
    <rc><c>H </c><c>   1</c></rc>
    <rc><c>H </c><c>   1</c></rc>
    <rc><c>H </c><c>   1</c></rc>
    <rc><c>H </c><c>   1</c></rc>
    <rc><c>H </c><c>   1</c></rc>
    <rc><c>H </c><c>   1</c></rc>
    <rc><c>H </c><c>   1</c></rc>
    <rc><c>H </c><c>   1</c></rc>
    <rc><c>H </c><c>   1</c></rc>
    <rc><c>C </c><c>   2</c></rc>
    <rc><c>C </c><c>   2</c></rc>
    <rc><c>C </c><c>   2</c></rc>
    <rc><c>C </c><c>   2</c></rc>
    <rc><c>C </c><c>   2</c></rc>
    <rc><c>C </c><c>   2</c></rc>
    <rc><c>C </c><c>   2</c></rc>
    <rc><c>C </c><c>   2</c></rc>
    <rc><c>C </c><c>   2</c></rc>
    <rc><c>C </c><c>   2</c></rc>
    <rc><c>C </c><c>   2</c></rc>
    <rc><c>C </c><c>   2</c></rc>
    <rc><c>C </c><c>   2</c></rc>
    <rc><c>C </c><c>   2</c></rc>
    <rc><c>C </c><c>   2</c></rc>
    <rc><c>C </c><c>   2</c></rc>
    <rc><c>C </c><c>   2</c></rc>
    <rc><c>C </c><c>   2</c></rc>
    <rc><c>C </c><c>   2</c></rc>
    <rc><c>C </c><c>   2</c></rc>
    <rc><c>C </c><c>   2</c></rc>
    <rc><c>C </c><c>   2</c></rc>
    <rc><c>C </c><c>   2</c></rc>
    <rc><c>C </c><c>   2</c></rc>
    <rc><c>C </c><c>   2</c></rc>
    <rc><c>C </c><c>   2</c></rc>
    <rc><c>C </c><c>   2</c></rc>
    <rc><c>C </c><c>   2</c></rc>
    <rc><c>C </c><c>   2</c></rc>
    <rc><c>C </c><c>   2</c></rc>
    <rc><c>C </c><c>   2</c></rc>
    <rc><c>C </c><c>   2</c></rc>
    <rc><c>C </c><c>   2</c></rc>
    <rc><c>C </c><c>   2</c></rc>
    <rc><c>C </c><c>   2</c></rc>
    <rc><c>C </c><c>   2</c></rc>
    <rc><c>C </c><c>   2</c></rc>
    <rc><c>C </c><c>   2</c></rc>
    <rc><c>C </c><c>   2</c></rc>
    <rc><c>N </c><c>   3</c></rc>
    <rc><c>N </c><c>   3</c></rc>
    <rc><c>N </c><c>   3</c></rc>
    <rc><c>N </c><c>   3</c></rc>
    <rc><c>N </c><c>   3</c></rc>
    <rc><c>N </c><c>   3</c></rc>
    <rc><c>N </c><c>   3</c></rc>
    <rc><c>N </c><c>   3</c></rc>
    <rc><c>N </c><c>   3</c></rc>
    <rc><c>N </c><c>   3</c></rc>
    <rc><c>N </c><c>   3</c></rc>
    <rc><c>N </c><c>   3</c></rc>
    <rc><c>N </c><c>   3</c></rc>
    <rc><c>N </c><c>   3</c></rc>
    <rc><c>N </c><c>   3</c></rc>
    <rc><c>N </c><c>   3</c></rc>
    <rc><c>N </c><c>   3</c></rc>
    <rc><c>N </c><c>   3</c></rc>
    <rc><c>N </c><c>   3</c></rc>
    <rc><c>N </c><c>   3</c></rc>
    <rc><c>N </c><c>   3</c></rc>
    <rc><c>N </c><c>   3</c></rc>
    <rc><c>N </c><c>   3</c></rc>
    <rc><c>N </c><c>   3</c></rc>
    <rc><c>N </c><c>   3</c></rc>
    <rc><c>N </c><c>   3</c></rc>
    <rc><c>N </c><c>   3</c></rc>
    <rc><c>N </c><c>   3</c></rc>
    <rc><c>N </c><c>   3</c></rc>
    <rc><c>N </c><c>   3</c></rc>
    <rc><c>N </c><c>   3</c></rc>
    <rc><c>N </c><c>   3</c></rc>
    <rc><c>N </c><c>   3</c></rc>
    <rc><c>N </c><c>   3</c></rc>
    <rc><c>N </c><c>   3</c></rc>
    <rc><c>N </c><c>   3</c></rc>
    <rc><c>N </c><c>   3</c></rc>
    <rc><c>N </c><c>   3</c></rc>
    <rc><c>N </c><c>   3</c></rc>
    <rc><c>N </c><c>   3</c></rc>
    <rc><c>N </c><c>   3</c></rc>
    <rc><c>N </c><c>   3</c></rc>
    <rc><c>N </c><c>   3</c></rc>
    <rc><c>N </c><c>   3</c></rc>
    <rc><c>N </c><c>   3</c></rc>
    <rc><c>N </c><c>   3</c></rc>
    <rc><c>N </c><c>   3</c></rc>
    <rc><c>I </c><c>   4</c></rc>
    <rc><c>I </c><c>   4</c></rc>
    <rc><c>I </c><c>   4</c></rc>
    <rc><c>I </c><c>   4</c></rc>
    <rc><c>I </c><c>   4</c></rc>
    <rc><c>I </c><c>   4</c></rc>
    <rc><c>I </c><c>   4</c></rc>
    <rc><c>I </c><c>   4</c></rc>
    <rc><c>I </c><c>   4</c></rc>
    <rc><c>I </c><c>   4</c></rc>
    <rc><c>I </c><c>   4</c></rc>
    <rc><c>I </c><c>   4</c></rc>
    <rc><c>I </c><c>   4</c></rc>
    <rc><c>I </c><c>   4</c></rc>
    <rc><c>I </c><c>   4</c></rc>
    <rc><c>I </c><c>   4</c></rc>
    <rc><c>I </c><c>   4</c></rc>
    <rc><c>I </c><c>   4</c></rc>
    <rc><c>I </c><c>   4</c></rc>
    <rc><c>I </c><c>   4</c></rc>
    <rc><c>I </c><c>   4</c></rc>
    <rc><c>I </c><c>   4</c></rc>
    <rc><c>I </c><c>   4</c></rc>
    <rc><c>I </c><c>   4</c></rc>
    <rc><c>I </c><c>   4</c></rc>
    <rc><c>I </c><c>   4</c></rc>
    <rc><c>I </c><c>   4</c></rc>
    <rc><c>I </c><c>   4</c></rc>
    <rc><c>I </c><c>   4</c></rc>
    <rc><c>I </c><c>   4</c></rc>
    <rc><c>I </c><c>   4</c></rc>
    <rc><c>I </c><c>   4</c></rc>
    <rc><c>I </c><c>   4</c></rc>
    <rc><c>I </c><c>   4</c></rc>
    <rc><c>I </c><c>   4</c></rc>
    <rc><c>I </c><c>   4</c></rc>
    <rc><c>I </c><c>   4</c></rc>
    <rc><c>I </c><c>   4</c></rc>
    <rc><c>I </c><c>   4</c></rc>
    <rc><c>I </c><c>   4</c></rc>
    <rc><c>I </c><c>   4</c></rc>
    <rc><c>I </c><c>   4</c></rc>
    <rc><c>I </c><c>   4</c></rc>
    <rc><c>I </c><c>   4</c></rc>
    <rc><c>I </c><c>   4</c></rc>
    <rc><c>I </c><c>   4</c></rc>
    <rc><c>I </c><c>   4</c></rc>
    <rc><c>I </c><c>   4</c></rc>
    <rc><c>I </c><c>   4</c></rc>
    <rc><c>I </c><c>   4</c></rc>
    <rc><c>I </c><c>   4</c></rc>
    <rc><c>I </c><c>   4</c></rc>
    <rc><c>I </c><c>   4</c></rc>
    <rc><c>I </c><c>   4</c></rc>
    <rc><c>I </c><c>   4</c></rc>
    <rc><c>I </c><c>   4</c></rc>
    <rc><c>I </c><c>   4</c></rc>
    <rc><c>I </c><c>   4</c></rc>
    <rc><c>I </c><c>   4</c></rc>
    <rc><c>I </c><c>   4</c></rc>
    <rc><c>I </c><c>   4</c></rc>
    <rc><c>I </c><c>   4</c></rc>
    <rc><c>I </c><c>   4</c></rc>
    <rc><c>I </c><c>   4</c></rc>
    <rc><c>I </c><c>   4</c></rc>
    <rc><c>I </c><c>   4</c></rc>
    <rc><c>I </c><c>   4</c></rc>
    <rc><c>I </c><c>   4</c></rc>
    <rc><c>I </c><c>   4</c></rc>
    <rc><c>I </c><c>   4</c></rc>
    <rc><c>I </c><c>   4</c></rc>
    <rc><c>I </c><c>   4</c></rc>
    <rc><c>Pb</c><c>   5</c></rc>
    <rc><c>Pb</c><c>   5</c></rc>
    <rc><c>Pb</c><c>   5</c></rc>
    <rc><c>Pb</c><c>   5</c></rc>
    <rc><c>Pb</c><c>   5</c></rc>
    <rc><c>Pb</c><c>   5</c></rc>
    <rc><c>Pb</c><c>   5</c></rc>
    <rc><c>Pb</c><c>   5</c></rc>
    <rc><c>Pb</c><c>   5</c></rc>
    <rc><c>Pb</c><c>   5</c></rc>
    <rc><c>Pb</c><c>   5</c></rc>
    <rc><c>Pb</c><c>   5</c></rc>
    <rc><c>Pb</c><c>   5</c></rc>
    <rc><c>Pb</c><c>   5</c></rc>
    <rc><c>Pb</c><c>   5</c></rc>
    <rc><c>Pb</c><c>   5</c></rc>
    <rc><c>Pb</c><c>   5</c></rc>
    <rc><c>Pb</c><c>   5</c></rc>
    <rc><c>Pb</c><c>   5</c></rc>
    <rc><c>Pb</c><c>   5</c></rc>
    <rc><c>Pb</c><c>   5</c></rc>
    <rc><c>Pb</c><c>   5</c></rc>
    <rc><c>Pb</c><c>   5</c></rc>
    <rc><c>Pb</c><c>   5</c></rc>
   </set>
  </array>
  <array name="atomtypes" >
   <dimension dim="1">type</dimension>
   <field type="int">atomspertype</field>
   <field type="string">element</field>
   <field>mass</field>
   <field>valence</field>
   <field type="string">pseudopotential</field>
   <set>
    <rc><c> 143</c><c>H </c><c>      1.00000000</c><c>      1.00000000</c><c>  PAW_PBE H 15Jun2001                   </c></rc>
    <rc><c>  39</c><c>C </c><c>     12.01100000</c><c>      4.00000000</c><c>  PAW_PBE C 08Apr2002                   </c></rc>
    <rc><c>  47</c><c>N </c><c>     14.00100000</c><c>      5.00000000</c><c>  PAW_PBE N 08Apr2002                   </c></rc>
    <rc><c>  72</c><c>I </c><c>    126.90400000</c><c>      7.00000000</c><c>  PAW_PBE I 08Apr2002                   </c></rc>
    <rc><c>  24</c><c>Pb</c><c>    207.20000000</c><c>      4.00000000</c><c>  PAW_PBE Pb 08Apr2002                  </c></rc>
   </set>
  </array>
 </atominfo>
 <structure name="initialpos" >
  <crystal>
   <varray name="basis" >
    <v>      18.06080055       0.00000000       0.00000000 </v>
    <v>      -0.00491865      18.06279945       0.00000000 </v>
    <v>       0.00000000       0.00000000      62.48749924 </v>
   </varray>
   <i name="volume">  20385.21054034 </i>
   <varray name="rec_basis" >
    <v>       0.05536853       0.00001508      -0.00000000 </v>
    <v>       0.00000000       0.05536240       0.00000000 </v>
    <v>       0.00000000      -0.00000000       0.01600320 </v>
   </varray>
  </crystal>
  <varray name="positions" >
   <v>       0.40751402       0.28485725       0.55986393 </v>
   <v>       0.41663409       0.69571332       0.57071681 </v>
   <v>       0.92436466       0.29289581       0.57901632 </v>
   <v>       0.92511468       0.81369296       0.57278186 </v>
   <v>       0.32244623       0.09064050       0.56264843 </v>
   <v>       0.32563043       0.57059137       0.56783568 </v>
   <v>       0.79545451       0.10498646       0.56415746 </v>
   <v>       0.10860457       0.24132861       0.56183314 </v>
   <v>       0.07900780       0.68428901       0.56880096 </v>
   <v>       0.58181810       0.18499102       0.56500900 </v>
   <v>       0.59890568       0.76738098       0.55930266 </v>
   <v>       0.37890544       0.01684075       0.55425020 </v>
   <v>       0.25605510       0.62134728       0.55492899 </v>
   <v>       0.87323115       0.05237693       0.55588401 </v>
   <v>       0.06253152       0.28996615       0.58153972 </v>
   <v>       0.99259428       0.69365500       0.58089438 </v>
   <v>       0.48728922       0.17368067       0.56964482 </v>
   <v>       0.55294957       0.69787391       0.57341242 </v>
   <v>       0.30615314       0.43547999       0.57161622 </v>
   <v>       0.19077489       0.06612939       0.56848938 </v>
   <v>       0.68211208       0.03098709       0.57346962 </v>
   <v>       0.45782026       0.36567393       0.55376762 </v>
   <v>       0.37418539       0.75957246       0.55376884 </v>
   <v>       0.88372206       0.24432797       0.55778033 </v>
   <v>       0.97038414       0.87353335       0.55536175 </v>
   <v>       0.23005977       0.39776881       0.55873651 </v>
   <v>       0.15745968       0.97976686       0.56127974 </v>
   <v>       0.68550967       0.93712339       0.56614357 </v>
   <v>       0.57088009       0.30572029       0.55475946 </v>
   <v>       0.48910437       0.81459142       0.54477431 </v>
   <v>       0.99919689       0.20409566       0.54457132 </v>
   <v>       0.06959572       0.79382798       0.54970107 </v>
   <v>       0.18709726       0.51375945       0.54713238 </v>
   <v>       0.27590742       0.93648844       0.55175251 </v>
   <v>       0.80569928       0.94225684       0.55493027 </v>
   <v>       0.45516961       0.29889028       0.67302414 </v>
   <v>       0.44143827       0.81535355       0.67070232 </v>
   <v>       0.95594959       0.28442339       0.67631935 </v>
   <v>       0.91260550       0.73992485       0.66231930 </v>
   <v>       0.29573142       0.04065276       0.67521000 </v>
   <v>       0.30081436       0.56140463       0.67296248 </v>
   <v>       0.79726074       0.05120523       0.67536402 </v>
   <v>       0.83278431       0.46705698       0.66491265 </v>
   <v>       0.09070615       0.17019611       0.64723669 </v>
   <v>       0.10871702       0.70041997       0.65518140 </v>
   <v>       0.57660432       0.16516915       0.64622117 </v>
   <v>       0.57294704       0.67451552       0.65185938 </v>
   <v>       0.18497864       0.41181348       0.65128420 </v>
   <v>       0.16458022       0.93087545       0.64342459 </v>
   <v>       0.63420548       0.48718151       0.65489148 </v>
   <v>       0.67250721       0.91788708       0.64917745 </v>
   <v>       0.06296009       0.18811866       0.67352088 </v>
   <v>       0.02424760       0.65471802       0.65943152 </v>
   <v>       0.54873678       0.18981710       0.67187376 </v>
   <v>       0.54406155       0.71409669       0.67569301 </v>
   <v>       0.21141382       0.44797114       0.67583561 </v>
   <v>       0.18288278       0.95241242       0.67004765 </v>
   <v>       0.69696975       0.43296772       0.66936209 </v>
   <v>       0.69753465       0.94519791       0.67480098 </v>
   <v>       0.43494656       0.33735515       0.64825417 </v>
   <v>       0.41633464       0.82959790       0.64403244 </v>
   <v>       0.92560615       0.31815753       0.65179241 </v>
   <v>       0.93002378       0.83346538       0.65750810 </v>
   <v>       0.34251932       0.06238010       0.65196176 </v>
   <v>       0.32103505       0.58707292       0.64672365 </v>
   <v>       0.82401171       0.08071183       0.64988377 </v>
   <v>       0.85098324       0.54121626       0.64785016 </v>
   <v>       0.00648414       0.25060944       0.63177590 </v>
   <v>       0.05481761       0.81637656       0.65187886 </v>
   <v>       0.50898960       0.25616664       0.62926533 </v>
   <v>       0.49546332       0.74179711       0.63049494 </v>
   <v>       0.26288021       0.99659052       0.62995296 </v>
   <v>       0.25087542       0.49544451       0.63120920 </v>
   <v>       0.74941560       0.99963560       0.63183548 </v>
   <v>       0.72666184       0.55949425       0.63954705 </v>
   <v>       0.44874502       0.30128397       0.76888902 </v>
   <v>       0.44874501       0.80128391       0.76888902 </v>
   <v>       0.94874497       0.30128397       0.76888902 </v>
   <v>       0.94874501       0.80128391       0.76888902 </v>
   <v>       0.30127600       0.05129450       0.76887296 </v>
   <v>       0.30127601       0.55129450       0.76887296 </v>
   <v>       0.80127594       0.05129450       0.76887296 </v>
   <v>       0.80127598       0.55129450       0.76887296 </v>
   <v>       0.07877100       0.17118050       0.74344197 </v>
   <v>       0.07877101       0.67118045       0.74344197 </v>
   <v>       0.57877100       0.17118050       0.74344197 </v>
   <v>       0.57877099       0.67118045       0.74344197 </v>
   <v>       0.17119950       0.42117448       0.74342103 </v>
   <v>       0.17119950       0.92117451       0.74342103 </v>
   <v>       0.67119951       0.42117448       0.74342103 </v>
   <v>       0.67119950       0.92117451       0.74342103 </v>
   <v>       0.05125600       0.19871499       0.76888902 </v>
   <v>       0.05125600       0.69871493       0.76888902 </v>
   <v>       0.55125603       0.19871499       0.76888902 </v>
   <v>       0.55125602       0.69871493       0.76888902 </v>
   <v>       0.19872349       0.44870397       0.76887205 </v>
   <v>       0.19872349       0.94870397       0.76887205 </v>
   <v>       0.69872352       0.44870397       0.76887205 </v>
   <v>       0.69872351       0.94870397       0.76887205 </v>
   <v>       0.42123152       0.32881747       0.74344197 </v>
   <v>       0.42123151       0.82881744       0.74344197 </v>
   <v>       0.92123147       0.32881747       0.74344197 </v>
   <v>       0.92123151       0.82881744       0.74344197 </v>
   <v>       0.32880050       0.07882500       0.74342103 </v>
   <v>       0.32880049       0.57882496       0.74342103 </v>
   <v>       0.82880048       0.07882500       0.74342103 </v>
   <v>       0.82880052       0.57882496       0.74342103 </v>
   <v>       0.00000350       0.25000148       0.72582199 </v>
   <v>       0.00000350       0.75000145       0.72582199 </v>
   <v>       0.50000351       0.25000148       0.72582199 </v>
   <v>       0.50000350       0.75000145       0.72582199 </v>
   <v>       0.25000050       0.00000000       0.72580398 </v>
   <v>       0.25000052       0.50000000       0.72580398 </v>
   <v>       0.75000050       0.00000000       0.72580398 </v>
   <v>       0.75000049       0.50000000       0.72580398 </v>
   <v>       0.79945103       0.50722832       0.51379930 </v>
   <v>       0.87812515       0.49970428       0.53076223 </v>
   <v>       0.75698692       0.61803988       0.53210606 </v>
   <v>       0.75402627       0.61859388       0.56030335 </v>
   <v>       0.68682234       0.43980238       0.54874147 </v>
   <v>       0.66688599       0.53149826       0.55663282 </v>
   <v>       0.79534746       0.42076818       0.56590323 </v>
   <v>       0.86288281       0.49051732       0.56809525 </v>
   <v>       0.85859097       0.37296068       0.53807649 </v>
   <v>       0.76414739       0.37506580       0.53126336 </v>
   <v>       0.78713938       0.38344736       0.49386587 </v>
   <v>       0.88046179       0.41002126       0.49707369 </v>
   <v>       0.89547223       0.61509413       0.53258119 </v>
   <v>       0.89510204       0.60524557       0.56095198 </v>
   <v>       0.86029073       0.68730898       0.54896521 </v>
   <v>       0.60136866       0.50316337       0.52406637 </v>
   <v>       0.68217006       0.47809534       0.50982780 </v>
   <v>       0.66713441       0.57213127       0.51782922 </v>
   <v>       0.70337227       0.49673388       0.58680749 </v>
   <v>       0.77305281       0.56683070       0.59023958 </v>
   <v>       0.78512852       0.47787470       0.60097396 </v>
   <v>       0.82303376       0.25821493       0.51156851 </v>
   <v>       0.84903762       0.27511748       0.48490595 </v>
   <v>       0.92519959       0.15836766       0.49893732 </v>
   <v>       0.97463338       0.38465563       0.51574158 </v>
   <v>       0.05676009       0.12517047       0.50419688 </v>
   <v>       0.10486671       0.35144099       0.52107035 </v>
   <v>       0.14851836       0.22235372       0.51492929 </v>
   <v>       0.99654520       0.23900105       0.55884176 </v>
   <v>       0.02338862       0.77642306       0.55991430 </v>
   <v>       0.52053305       0.27463448       0.55831846 </v>
   <v>       0.48667835       0.76565006       0.55504516 </v>
   <v>       0.23991648       0.50964530       0.55563964 </v>
   <v>       0.26831295       0.99404865       0.55689367 </v>
   <v>       0.77946284       0.99347960       0.56049852 </v>
   <v>       0.00782757       0.24436675       0.64915462 </v>
   <v>       0.02024928       0.76873175       0.65565641 </v>
   <v>       0.50577004       0.25141498       0.64660406 </v>
   <v>       0.49408676       0.75137293       0.64769589 </v>
   <v>       0.25327179       0.49947334       0.64862833 </v>
   <v>       0.25294396       0.99731102       0.64715526 </v>
   <v>       0.74209244       0.51537886       0.65061652 </v>
   <v>       0.74879126       0.99928037       0.64931859 </v>
   <v>       0.49998898       0.24999498       0.74327702 </v>
   <v>       0.49998903       0.74999496       0.74327702 </v>
   <v>       0.99998898       0.24999498       0.74327702 </v>
   <v>       0.99998903       0.74999496       0.74327702 </v>
   <v>       0.25000050       0.00000100       0.74325596 </v>
   <v>       0.25000052       0.50000100       0.74325596 </v>
   <v>       0.75000050       0.00000100       0.74325596 </v>
   <v>       0.75000049       0.50000100       0.74325596 </v>
   <v>       0.93950130       0.27460494       0.50645835 </v>
   <v>       0.96486205       0.20109534       0.50351660 </v>
   <v>       0.99129555       0.32768670       0.51278384 </v>
   <v>       0.03892376       0.18241939       0.50649858 </v>
   <v>       0.06600666       0.30909950       0.51569580 </v>
   <v>       0.09042227       0.23692072       0.51244667 </v>
   <v>       0.82082569       0.48145549       0.52846129 </v>
   <v>       0.78537039       0.59820837       0.54654498 </v>
   <v>       0.69405173       0.49796924       0.54432097 </v>
   <v>       0.80295457       0.48057177       0.56752013 </v>
   <v>       0.81876778       0.39730533       0.52674055 </v>
   <v>       0.83686575       0.37355663       0.50375988 </v>
   <v>       0.86409127       0.62682504       0.54720454 </v>
   <v>       0.66101849       0.51396399       0.52253872 </v>
   <v>       0.76308667       0.50807034       0.58714252 </v>
   <v>       0.85970648       0.29280682       0.50150973 </v>
   <v>       0.05910802       0.25689979       0.56825050 </v>
   <v>       0.03048958       0.71262643       0.56980281 </v>
   <v>       0.52912564       0.20473782       0.56342336 </v>
   <v>       0.54972369       0.74052342       0.56257938 </v>
   <v>       0.45720374       0.30967088       0.55665321 </v>
   <v>       0.42210169       0.73662975       0.55945986 </v>
   <v>       0.93091328       0.26005931       0.56562107 </v>
   <v>       0.96584922       0.82100116       0.56154158 </v>
   <v>       0.26100424       0.44354178       0.56195206 </v>
   <v>       0.20097890       0.01520532       0.56224429 </v>
   <v>       0.70979728       0.98808485       0.56639972 </v>
   <v>       0.32655673       0.03746188       0.55729042 </v>
   <v>       0.27743741       0.57091281       0.55913545 </v>
   <v>       0.81842658       0.05495564       0.56031123 </v>
   <v>       0.05607561       0.19814153       0.65742190 </v>
   <v>       0.05242970       0.70349908       0.65698767 </v>
   <v>       0.54583600       0.19945364       0.65570048 </v>
   <v>       0.53898332       0.71097233       0.65931956 </v>
   <v>       0.21470869       0.45013922       0.65948560 </v>
   <v>       0.19669021       0.95825506       0.65426575 </v>
   <v>       0.68856197       0.47513028       0.65865499 </v>
   <v>       0.70446185       0.95102502       0.65861305 </v>
   <v>       0.46299855       0.29839601       0.65676820 </v>
   <v>       0.44755489       0.80115482       0.65489680 </v>
   <v>       0.96045944       0.28469509       0.66006238 </v>
   <v>       0.94911963       0.78053341       0.65829488 </v>
   <v>       0.29897608       0.03615679       0.65896194 </v>
   <v>       0.29377656       0.55227865       0.65681851 </v>
   <v>       0.79192595       0.04676847       0.65903746 </v>
   <v>       0.81303612       0.50725060       0.65489100 </v>
   <v>       0.04586250       0.20411950       0.75272599 </v>
   <v>       0.04586250       0.70411946       0.75272599 </v>
   <v>       0.54586251       0.20411950       0.75272599 </v>
   <v>       0.54586250       0.70411946       0.75272599 </v>
   <v>       0.20411900       0.45410100       0.75270499 </v>
   <v>       0.20411899       0.95410095       0.75270499 </v>
   <v>       0.70411898       0.45410100       0.75270499 </v>
   <v>       0.70411896       0.95410095       0.75270499 </v>
   <v>       0.45414002       0.29588849       0.75272697 </v>
   <v>       0.45414001       0.79588852       0.75272697 </v>
   <v>       0.95414002       0.29588849       0.75272697 </v>
[...]
   <v>       0.58181810       0.18499102       0.56500900 </v>
   <v>       0.59890568       0.76738098       0.55930266 </v>
   <v>       0.37890544       0.01684075       0.55425020 </v>
   <v>       0.25605510       0.62134728       0.55492899 </v>
   <v>       0.87323115       0.05237693       0.55588401 </v>
   <v>       0.06253152       0.28996615       0.58153972 </v>
   <v>       0.99259428       0.69365500       0.58089438 </v>
   <v>       0.48728922       0.17368067       0.56964482 </v>
   <v>       0.55294957       0.69787391       0.57341242 </v>
   <v>       0.30615314       0.43547999       0.57161622 </v>
   <v>       0.19077489       0.06612939       0.56848938 </v>
   <v>       0.68211208       0.03098709       0.57346962 </v>
   <v>       0.45782026       0.36567393       0.55376762 </v>
   <v>       0.37418539       0.75957246       0.55376884 </v>
   <v>       0.88372206       0.24432797       0.55778033 </v>
   <v>       0.97038414       0.87353335       0.55536175 </v>
   <v>       0.23005977       0.39776881       0.55873651 </v>
   <v>       0.15745968       0.97976686       0.56127974 </v>
   <v>       0.68550967       0.93712339       0.56614357 </v>
   <v>       0.57088009       0.30572029       0.55475946 </v>
   <v>       0.48910437       0.81459142       0.54477431 </v>
   <v>       0.99919689       0.20409566       0.54457132 </v>
   <v>       0.06959572       0.79382798       0.54970107 </v>
   <v>       0.18709726       0.51375945       0.54713238 </v>
   <v>       0.27590742       0.93648844       0.55175251 </v>
   <v>       0.80569928       0.94225684       0.55493027 </v>
   <v>       0.45516961       0.29889028       0.67302414 </v>
   <v>       0.44143827       0.81535355       0.67070232 </v>
   <v>       0.95594959       0.28442339       0.67631935 </v>
   <v>       0.91260550       0.73992485       0.66231930 </v>
   <v>       0.29573142       0.04065276       0.67521000 </v>
   <v>       0.30081436       0.56140463       0.67296248 </v>
   <v>       0.79726074       0.05120523       0.67536402 </v>
   <v>       0.83278431       0.46705698       0.66491265 </v>
   <v>       0.09070615       0.17019611       0.64723669 </v>
   <v>       0.10871702       0.70041997       0.65518140 </v>
   <v>       0.57660432       0.16516915       0.64622117 </v>
   <v>       0.57294704       0.67451552       0.65185938 </v>
   <v>       0.18497864       0.41181348       0.65128420 </v>
   <v>       0.16458022       0.93087545       0.64342459 </v>
   <v>       0.63420548       0.48718151       0.65489148 </v>
   <v>       0.67250721       0.91788708       0.64917745 </v>
   <v>       0.06296009       0.18811866       0.67352088 </v>
   <v>       0.02424760       0.65471802       0.65943152 </v>
   <v>       0.54873678       0.18981710       0.67187376 </v>
   <v>       0.54406155       0.71409669       0.67569301 </v>
   <v>       0.21141382       0.44797114       0.67583561 </v>
   <v>       0.18288278       0.95241242       0.67004765 </v>
   <v>       0.69696975       0.43296772       0.66936209 </v>
   <v>       0.69753465       0.94519791       0.67480098 </v>
   <v>       0.43494656       0.33735515       0.64825417 </v>
   <v>       0.41633464       0.82959790       0.64403244 </v>
   <v>       0.92560615       0.31815753       0.65179241 </v>
   <v>       0.93002378       0.83346538       0.65750810 </v>
   <v>       0.34251932       0.06238010       0.65196176 </v>
   <v>       0.32103505       0.58707292       0.64672365 </v>
   <v>       0.82401171       0.08071183       0.64988377 </v>
   <v>       0.85098324       0.54121626       0.64785016 </v>
   <v>       0.00648414       0.25060944       0.63177590 </v>
   <v>       0.05481761       0.81637656       0.65187886 </v>
   <v>       0.50898960       0.25616664       0.62926533 </v>
   <v>       0.49546332       0.74179711       0.63049494 </v>
   <v>       0.26288021       0.99659052       0.62995296 </v>
   <v>       0.25087542       0.49544451       0.63120920 </v>
   <v>       0.74941560       0.99963560       0.63183548 </v>
   <v>       0.72666184       0.55949425       0.63954705 </v>
   <v>       0.44874502       0.30128397       0.76888902 </v>
   <v>       0.44874501       0.80128391       0.76888902 </v>
   <v>       0.94874497       0.30128397       0.76888902 </v>
   <v>       0.94874501       0.80128391       0.76888902 </v>
   <v>       0.30127600       0.05129450       0.76887296 </v>
   <v>       0.30127601       0.55129450       0.76887296 </v>
   <v>       0.80127594       0.05129450       0.76887296 </v>
   <v>       0.80127598       0.55129450       0.76887296 </v>
   <v>       0.07877100       0.17118050       0.74344197 </v>
   <v>       0.07877101       0.67118045       0.74344197 </v>
   <v>       0.57877100       0.17118050       0.74344197 </v>
   <v>       0.57877099       0.67118045       0.74344197 </v>
   <v>       0.17119950       0.42117448       0.74342103 </v>
   <v>       0.17119950       0.92117451       0.74342103 </v>
   <v>       0.67119951       0.42117448       0.74342103 </v>
   <v>       0.67119950       0.92117451       0.74342103 </v>
   <v>       0.05125600       0.19871499       0.76888902 </v>
   <v>       0.05125600       0.69871493       0.76888902 </v>
   <v>       0.55125603       0.19871499       0.76888902 </v>
   <v>       0.55125602       0.69871493       0.76888902 </v>
   <v>       0.19872349       0.44870397       0.76887205 </v>
   <v>       0.19872349       0.94870397       0.76887205 </v>
   <v>       0.69872352       0.44870397       0.76887205 </v>
   <v>       0.69872351       0.94870397       0.76887205 </v>
   <v>       0.42123152       0.32881747       0.74344197 </v>
   <v>       0.42123151       0.82881744       0.74344197 </v>
   <v>       0.92123147       0.32881747       0.74344197 </v>
   <v>       0.92123151       0.82881744       0.74344197 </v>
   <v>       0.32880050       0.07882500       0.74342103 </v>
   <v>       0.32880049       0.57882496       0.74342103 </v>
   <v>       0.82880048       0.07882500       0.74342103 </v>
   <v>       0.82880052       0.57882496       0.74342103 </v>
   <v>       0.00000350       0.25000148       0.72582199 </v>
   <v>       0.00000350       0.75000145       0.72582199 </v>
   <v>       0.50000351       0.25000148       0.72582199 </v>
   <v>       0.50000350       0.75000145       0.72582199 </v>
   <v>       0.25000050       0.00000000       0.72580398 </v>
   <v>       0.25000052       0.50000000       0.72580398 </v>
   <v>       0.75000050       0.00000000       0.72580398 </v>
   <v>       0.75000049       0.50000000       0.72580398 </v>
   <v>       0.79945103       0.50722832       0.51379930 </v>
   <v>       0.87812515       0.49970428       0.53076223 </v>
   <v>       0.75698692       0.61803988       0.53210606 </v>
   <v>       0.75402627       0.61859388       0.56030335 </v>
   <v>       0.68682234       0.43980238       0.54874147 </v>
   <v>       0.66688599       0.53149826       0.55663282 </v>
   <v>       0.79534746       0.42076818       0.56590323 </v>
   <v>       0.86288281       0.49051732       0.56809525 </v>
   <v>       0.85859097       0.37296068       0.53807649 </v>
   <v>       0.76414739       0.37506580       0.53126336 </v>
   <v>       0.78713938       0.38344736       0.49386587 </v>
   <v>       0.88046179       0.41002126       0.49707369 </v>
   <v>       0.89547223       0.61509413       0.53258119 </v>
   <v>       0.89510204       0.60524557       0.56095198 </v>
   <v>       0.86029073       0.68730898       0.54896521 </v>
   <v>       0.60136866       0.50316337       0.52406637 </v>
   <v>       0.68217006       0.47809534       0.50982780 </v>
   <v>       0.66713441       0.57213127       0.51782922 </v>
   <v>       0.70337227       0.49673388       0.58680749 </v>
   <v>       0.77305281       0.56683070       0.59023958 </v>
   <v>       0.78512852       0.47787470       0.60097396 </v>
   <v>       0.82303376       0.25821493       0.51156851 </v>
   <v>       0.84903762       0.27511748       0.48490595 </v>
   <v>       0.92519959       0.15836766       0.49893732 </v>
   <v>       0.97463338       0.38465563       0.51574158 </v>
   <v>       0.05676009       0.12517047       0.50419688 </v>
   <v>       0.10486671       0.35144099       0.52107035 </v>
   <v>       0.14851836       0.22235372       0.51492929 </v>
   <v>       0.99654520       0.23900105       0.55884176 </v>
   <v>       0.02338862       0.77642306       0.55991430 </v>
   <v>       0.52053305       0.27463448       0.55831846 </v>
   <v>       0.48667835       0.76565006       0.55504516 </v>
   <v>       0.23991648       0.50964530       0.55563964 </v>
   <v>       0.26831295       0.99404865       0.55689367 </v>
   <v>       0.77946284       0.99347960       0.56049852 </v>
   <v>       0.00782757       0.24436675       0.64915462 </v>
   <v>       0.02024928       0.76873175       0.65565641 </v>
   <v>       0.50577004       0.25141498       0.64660406 </v>
   <v>       0.49408676       0.75137293       0.64769589 </v>
   <v>       0.25327179       0.49947334       0.64862833 </v>
   <v>       0.25294396       0.99731102       0.64715526 </v>
   <v>       0.74209244       0.51537886       0.65061652 </v>
   <v>       0.74879126       0.99928037       0.64931859 </v>
   <v>       0.49998898       0.24999498       0.74327702 </v>
   <v>       0.49998903       0.74999496       0.74327702 </v>
   <v>       0.99998898       0.24999498       0.74327702 </v>
   <v>       0.99998903       0.74999496       0.74327702 </v>
   <v>       0.25000050       0.00000100       0.74325596 </v>
   <v>       0.25000052       0.50000100       0.74325596 </v>
   <v>       0.75000050       0.00000100       0.74325596 </v>
   <v>       0.75000049       0.50000100       0.74325596 </v>
   <v>       0.93950130       0.27460494       0.50645835 </v>
   <v>       0.96486205       0.20109534       0.50351660 </v>
   <v>       0.99129555       0.32768670       0.51278384 </v>
   <v>       0.03892376       0.18241939       0.50649858 </v>
   <v>       0.06600666       0.30909950       0.51569580 </v>
   <v>       0.09042227       0.23692072       0.51244667 </v>
   <v>       0.82082569       0.48145549       0.52846129 </v>
   <v>       0.78537039       0.59820837       0.54654498 </v>
   <v>       0.69405173       0.49796924       0.54432097 </v>
   <v>       0.80295457       0.48057177       0.56752013 </v>
   <v>       0.81876778       0.39730533       0.52674055 </v>
   <v>       0.83686575       0.37355663       0.50375988 </v>
   <v>       0.86409127       0.62682504       0.54720454 </v>
   <v>       0.66101849       0.51396399       0.52253872 </v>
   <v>       0.76308667       0.50807034       0.58714252 </v>
   <v>       0.85970648       0.29280682       0.50150973 </v>
   <v>       0.05910802       0.25689979       0.56825050 </v>
   <v>       0.03048958       0.71262643       0.56980281 </v>
   <v>       0.52912564       0.20473782       0.56342336 </v>
   <v>       0.54972369       0.74052342       0.56257938 </v>
   <v>       0.45720374       0.30967088       0.55665321 </v>
   <v>       0.42210169       0.73662975       0.55945986 </v>
   <v>       0.93091328       0.26005931       0.56562107 </v>
   <v>       0.96584922       0.82100116       0.56154158 </v>
   <v>       0.26100424       0.44354178       0.56195206 </v>
   <v>       0.20097890       0.01520532       0.56224429 </v>
   <v>       0.70979728       0.98808485       0.56639972 </v>
   <v>       0.32655673       0.03746188       0.55729042 </v>
   <v>       0.27743741       0.57091281       0.55913545 </v>
   <v>       0.81842658       0.05495564       0.56031123 </v>
   <v>       0.05607561       0.19814153       0.65742190 </v>
   <v>       0.05242970       0.70349908       0.65698767 </v>
   <v>       0.54583600       0.19945364       0.65570048 </v>
   <v>       0.53898332       0.71097233       0.65931956 </v>
   <v>       0.21470869       0.45013922       0.65948560 </v>
   <v>       0.19669021       0.95825506       0.65426575 </v>
   <v>       0.68856197       0.47513028       0.65865499 </v>
   <v>       0.70446185       0.95102502       0.65861305 </v>
   <v>       0.46299855       0.29839601       0.65676820 </v>
   <v>       0.44755489       0.80115482       0.65489680 </v>
   <v>       0.96045944       0.28469509       0.66006238 </v>
   <v>       0.94911963       0.78053341       0.65829488 </v>
   <v>       0.29897608       0.03615679       0.65896194 </v>
   <v>       0.29377656       0.55227865       0.65681851 </v>
   <v>       0.79192595       0.04676847       0.65903746 </v>
   <v>       0.81303612       0.50725060       0.65489100 </v>
   <v>       0.04586250       0.20411950       0.75272599 </v>
   <v>       0.04586250       0.70411946       0.75272599 </v>
   <v>       0.54586251       0.20411950       0.75272599 </v>
   <v>       0.54586250       0.70411946       0.75272599 </v>
   <v>       0.20411900       0.45410100       0.75270499 </v>
   <v>       0.20411899       0.95410095       0.75270499 </v>
   <v>       0.70411898       0.45410100       0.75270499 </v>
   <v>       0.70411896       0.95410095       0.75270499 </v>
   <v>       0.45414002       0.29588849       0.75272697 </v>
   <v>       0.45414001       0.79588852       0.75272697 </v>
   <v>       0.95414002       0.29588849       0.75272697 </v>
   <v>       0.95414006       0.79588852       0.75272697 </v>
   <v>       0.29588249       0.04590050       0.75270499 </v>
   <v>       0.29588248       0.54590053       0.75270499 </v>
   <v>       0.79588244       0.04590050       0.75270499 </v>
   <v>       0.79588248       0.54590053       0.75270499 </v>
   <v>       0.77631127       0.51429904       0.54662783 </v>
   <v>       0.51425849       0.98390237       0.55326239 </v>
   <v>       0.47514033       0.51121075       0.55308731 </v>
   <v>       0.00594928       0.01260638       0.55149721 </v>
   <v>       0.03027708       0.48610734       0.55415399 </v>
   <v>       0.25937377       0.23880414       0.55361989 </v>
   <v>       0.22991635       0.76476971       0.55060329 </v>
   <v>       0.73400119       0.23170520       0.55441796 </v>
   <v>       0.73471212       0.79469930       0.55402652 </v>
   <v>       0.99554173       0.98602921       0.65428132 </v>
   <v>       0.01071684       0.50468342       0.65494386 </v>
   <v>       0.49696266       0.00280223       0.65478551 </v>
   <v>       0.49494969       0.50463236       0.65386448 </v>
   <v>       0.26254832       0.24286732       0.65506449 </v>
   <v>       0.24585061       0.75554875       0.65363281 </v>
   <v>       0.74577619       0.27017004       0.65522560 </v>
   <v>       0.74987469       0.73316400       0.65437844 </v>
   <v>       0.13480672       0.11663026       0.60828768 </v>
   <v>       0.14679556       0.60861005       0.60637525 </v>
   <v>       0.63650325       0.11383565       0.60812236 </v>
   <v>       0.61938230       0.63103556       0.60666895 </v>
   <v>       0.36765925       0.38404421       0.60784026 </v>
   <v>       0.36442581       0.88489341       0.60506652 </v>
   <v>       0.88754959       0.36731594       0.61103206 </v>
   <v>       0.86172747       0.89053759       0.60695734 </v>
   <v>       0.12694299       0.36811926       0.61190211 </v>
   <v>       0.11554078       0.87328710       0.60591807 </v>
   <v>       0.61189968       0.36487019       0.60247219 </v>
   <v>       0.61663378       0.86432801       0.61268181 </v>
   <v>       0.39510967       0.13740407       0.60392920 </v>
   <v>       0.37949333       0.63439138       0.60697950 </v>
   <v>       0.88195392       0.13610456       0.61207024 </v>
   <v>       0.90180696       0.64645645       0.60962547 </v>
   <v>       0.00000000       0.00000000       0.75492797 </v>
   <v>       0.00000000       0.50000000       0.75492797 </v>
   <v>       0.50000000       0.00000000       0.75492797 </v>
   <v>       0.49999999       0.50000000       0.75492797 </v>
   <v>       0.25000050       0.25000000       0.75493902 </v>
   <v>       0.25000051       0.74999997       0.75493902 </v>
   <v>       0.75000047       0.25000000       0.75493902 </v>
   <v>       0.75000046       0.74999997       0.75493902 </v>
   <v>       0.13579050       0.11421000       0.70478299 </v>
   <v>       0.13579050       0.61420998       0.70478299 </v>
   <v>       0.63579045       0.11421000       0.70478299 </v>
   <v>       0.63579049       0.61420998       0.70478299 </v>
   <v>       0.36420952       0.38578999       0.70478299 </v>
   <v>       0.36420950       0.88578996       0.70478299 </v>
   <v>       0.86420954       0.38578999       0.70478299 </v>
   <v>       0.86420953       0.88578996       0.70478299 </v>
   <v>       0.11421799       0.36421899       0.70478098 </v>
   <v>       0.11421799       0.86421899       0.70478098 </v>
   <v>       0.61421800       0.36421899       0.70478098 </v>
   <v>       0.61421799       0.86421899       0.70478098 </v>
   <v>       0.38578201       0.13578149       0.70478202 </v>
   <v>       0.38578200       0.63578149       0.70478202 </v>
   <v>       0.88578199       0.13578149       0.70478202 </v>
   <v>       0.88578203       0.63578149       0.70478202 </v>
   <v>       0.13466700       0.11533200       0.80125603 </v>
   <v>       0.13466699       0.61533199       0.80125603 </v>
   <v>       0.63466699       0.11533200       0.80125603 </v>
   <v>       0.63466698       0.61533199       0.80125603 </v>
   <v>       0.36533300       0.38466799       0.80125603 </v>
   <v>       0.36533299       0.88466796       0.80125603 </v>
   <v>       0.86533295       0.38466799       0.80125603 </v>
   <v>       0.86533294       0.88466796       0.80125603 </v>
   <v>       0.11532850       0.36533700       0.80126500 </v>
   <v>       0.11532850       0.86533698       0.80126500 </v>
   <v>       0.61532850       0.36533700       0.80126500 </v>
   <v>       0.61532849       0.86533698       0.80126500 </v>
   <v>       0.38467151       0.13466300       0.80126500 </v>
   <v>       0.38467150       0.63466297       0.80126500 </v>
   <v>       0.88467149       0.13466300       0.80126500 </v>
   <v>       0.88467153       0.63466297       0.80126500 </v>
   <v>       0.99648620       0.00662744       0.60391370 </v>
   <v>       0.01070660       0.50123937       0.60361963 </v>
   <v>       0.50200294       0.99358994       0.60360779 </v>
   <v>       0.50028565       0.50016784       0.60282126 </v>
   <v>       0.25594559       0.24725748       0.60549983 </v>
   <v>       0.24283852       0.75519622       0.60287156 </v>
   <v>       0.74721383       0.25180959       0.60575843 </v>
   <v>       0.75206674       0.75726145       0.60406674 </v>
   <v>       0.00000050       0.00000050       0.70482896 </v>
   <v>       0.00000050       0.50000048       0.70482896 </v>
   <v>       0.50000048       0.00000050       0.70482896 </v>
   <v>       0.50000046       0.50000048       0.70482896 </v>
   <v>       0.24999999       0.24999947       0.70482499 </v>
   <v>       0.25000001       0.74999950       0.70482499 </v>
   <v>       0.74999999       0.24999947       0.70482499 </v>
   <v>       0.74999998       0.74999950       0.70482499 </v>
   <v>       0.00000000       0.00000000       0.80731797 </v>
   <v>       0.00000000       0.50000000       0.80731797 </v>
   <v>       0.50000000       0.00000000       0.80731797 </v>
   <v>       0.49999999       0.50000000       0.80731797 </v>
   <v>       0.24999999       0.25000000       0.80731797 </v>
   <v>       0.25000001       0.74999997       0.80731797 </v>
   <v>       0.74999999       0.25000000       0.80731797 </v>
   <v>       0.74999998       0.74999997       0.80731797 </v>
  </varray>
 </structure>
</modeling>
