<?xml version="1.0" encoding="ISO-8859-1"?>
<modeling>
 <generator>
  <i name="program" type="string">vasp </i>
  <i name="version" type="string">6.2.1  </i>
  <i name="subversion" type="string">16May21 (build Nov 15 2021 14:57:28) complex                          parallel </i>
  <i name="platform" type="string">LinuxPGI </i>
  <i name="date" type="string">2023 07 30 </i>
  <i name="time" type="string">19:54:13 </i>
 </generator>
 <incar>
  <i type="string" name="SYSTEM">PSC</i>
  <i type="int" name="ISTART">     1</i>
  <i type="string" name="PREC">Normal</i>
  <i name="BMIX">      0.01000000</i>
  <i name="AMIN">      0.01000000</i>
  <i type="int" name="ICHARG">     1</i>
  <i type="int" name="NELM">   600</i>
  <i type="int" name="ISYM">     0</i>
  <i name="ENCUT">    500.00000000</i>
  <i type="string" name="LREAL">Auto</i>
  <i type="int" name="ISMEAR">     0</i>
  <i name="SIGMA">      0.05000000</i>
  <i type="logical" name="LWAVE"> F  </i>
  <i type="logical" name="LVTOT"> T  </i>
  <i type="logical" name="GGA_COMPAT"> F  </i>
  <i type="logical" name="LDIPOL"> T  </i>
  <i type="int" name="IDIPOL">     3</i>
  <i type="int" name="IVDW">    12</i>
 </incar>
 <primitive_cell>
  <structure name="primitive_cell" >
   <crystal>
    <varray name="basis" >
     <v>      18.06080055       0.00000000       0.00000000 </v>
     <v>      -0.00491865      18.06279945       0.00000000 </v>
     <v>       0.00000000       0.00000000      62.48749924 </v>
    </varray>
    <i name="volume">  20385.21054034 </i>
    <varray name="rec_basis" >
     <v>       0.05536853       0.00001508      -0.00000000 </v>
     <v>       0.00000000       0.05536240       0.00000000 </v>
     <v>       0.00000000      -0.00000000       0.01600320 </v>
    </varray>
   </crystal>
   <varray name="positions" >
    <v>       0.46723525       0.32847967       0.57296024 </v>
    <v>       0.45096049       0.83951225       0.57407863 </v>
    <v>       0.91935061       0.24041656       0.58120194 </v>
    <v>       0.94139967       0.81042800       0.57767346 </v>
    <v>       0.31340729       0.06748971       0.57234971 </v>
    <v>       0.32906777       0.57052796       0.57382302 </v>
    <v>       0.79328457       0.08279544       0.57613715 </v>
    <v>       0.10447525       0.24682604       0.55836382 </v>
    <v>       0.09189191       0.67749294       0.57012355 </v>
    <v>       0.56047601       0.16112074       0.55774907 </v>
    <v>       0.49298455       0.64750680       0.56401357 </v>
    <v>       0.36543987       0.00433430       0.55761947 </v>
    <v>       0.27637576       0.63042273       0.55783142 </v>
    <v>       0.86629410       0.02719908       0.56613643 </v>
    <v>       0.05667998       0.23895029       0.58225458 </v>
    <v>       0.01477199       0.69370284       0.58607834 </v>
    <v>       0.57256007       0.24419904       0.57165578 </v>
    <v>       0.45678483       0.70573364       0.58378113 </v>
    <v>       0.28485154       0.43902517       0.57636589 </v>
    <v>       0.17595752       0.05236448       0.57111289 </v>
    <v>       0.66720754       0.02769317       0.57398510 </v>
    <v>       0.38524764       0.29786991       0.56052593 </v>
    <v>       0.49748455       0.86902363       0.55094858 </v>
    <v>       0.87814935       0.23567482       0.55630798 </v>
    <v>       0.98204036       0.86788378       0.55849714 </v>
    <v>       0.20247336       0.41835585       0.56283816 </v>
    <v>       0.14055358       0.98246276       0.55497447 </v>
    <v>       0.66285235       0.93809059       0.56264824 </v>
    <v>       0.43940575       0.18742598       0.54945951 </v>
    <v>       0.52845855       0.74558477       0.54196063 </v>
    <v>       0.99402669       0.24560995       0.53831702 </v>
    <v>       0.07714540       0.78544328       0.55066641 </v>
    <v>       0.18955762       0.53816677       0.54924548 </v>
    <v>       0.26044628       0.94027497       0.54522270 </v>
    <v>       0.78764991       0.93215330       0.55579922 </v>
    <v>       0.46640292       0.31047837       0.67349860 </v>
    <v>       0.44077817       0.80904866       0.67335575 </v>
    <v>       0.95204220       0.27758474       0.67731736 </v>
    <v>       0.92244926       0.76137350       0.67412873 </v>
    <v>       0.30744098       0.05336651       0.67241263 </v>
    <v>       0.29281952       0.54420408       0.67719013 </v>
    <v>       0.79037649       0.05476873       0.67430290 </v>
    <v>       0.84723821       0.48251747       0.66572812 </v>
    <v>       0.09060955       0.17338911       0.64640260 </v>
    <v>       0.09996039       0.69718326       0.65254440 </v>
    <v>       0.57890448       0.16727092       0.64803013 </v>
    <v>       0.57457425       0.67206101       0.65399848 </v>
    <v>       0.18221991       0.40951292       0.64711045 </v>
    <v>       0.17314679       0.92316494       0.64908393 </v>
    <v>       0.64735179       0.48164076       0.65987930 </v>
    <v>       0.67668648       0.91065266       0.64916481 </v>
    <v>       0.05900600       0.18378004       0.67272879 </v>
    <v>       0.03812465       0.67883944       0.67358590 </v>
    <v>       0.57013479       0.21294325       0.67232393 </v>
    <v>       0.53612728       0.70379079       0.67778193 </v>
    <v>       0.20266337       0.43443621       0.67359041 </v>
    <v>       0.20286014       0.95546373       0.67411335 </v>
    <v>       0.72004894       0.43172618       0.67178921 </v>
    <v>       0.69890220       0.94476678       0.67451540 </v>
    <v>       0.41604982       0.32014518       0.64996374 </v>
    <v>       0.42459466       0.83497508       0.64675576 </v>
    <v>       0.92511368       0.32055933       0.65348843 </v>
    <v>       0.91794572       0.82607418       0.65362744 </v>
    <v>       0.33636646       0.07554652       0.64639265 </v>
    <v>       0.31975862       0.58307782       0.65288663 </v>
    <v>       0.82217765       0.08078672       0.64890542 </v>
    <v>       0.85526070       0.55519688       0.64771158 </v>
    <v>       0.00973821       0.25928738       0.63245847 </v>
    <v>       0.02815782       0.79210007       0.63837671 </v>
    <v>       0.48403302       0.23001219       0.63180184 </v>
    <v>       0.50707747       0.75191595       0.63262666 </v>
    <v>       0.25532096       0.99603285       0.62994729 </v>
    <v>       0.25278470       0.50196867       0.63217832 </v>
    <v>       0.75356030       0.99259690       0.63116085 </v>
    <v>       0.72640491       0.56166703       0.64178370 </v>
    <v>       0.44874502       0.30128397       0.76888902 </v>
    <v>       0.44874501       0.80128391       0.76888902 </v>
    <v>       0.94874497       0.30128397       0.76888902 </v>
    <v>       0.94874501       0.80128391       0.76888902 </v>
    <v>       0.30127600       0.05129450       0.76887296 </v>
    <v>       0.30127601       0.55129450       0.76887296 </v>
    <v>       0.80127594       0.05129450       0.76887296 </v>
    <v>       0.80127598       0.55129450       0.76887296 </v>
    <v>       0.07877100       0.17118050       0.74344197 </v>
    <v>       0.07877101       0.67118045       0.74344197 </v>
    <v>       0.57877100       0.17118050       0.74344197 </v>
    <v>       0.57877099       0.67118045       0.74344197 </v>
    <v>       0.17119950       0.42117448       0.74342103 </v>
    <v>       0.17119950       0.92117451       0.74342103 </v>
    <v>       0.67119951       0.42117448       0.74342103 </v>
    <v>       0.67119950       0.92117451       0.74342103 </v>
    <v>       0.05125600       0.19871499       0.76888902 </v>
    <v>       0.05125600       0.69871493       0.76888902 </v>
    <v>       0.55125603       0.19871499       0.76888902 </v>
    <v>       0.55125602       0.69871493       0.76888902 </v>
    <v>       0.19872349       0.44870397       0.76887205 </v>
    <v>       0.19872349       0.94870397       0.76887205 </v>
    <v>       0.69872352       0.44870397       0.76887205 </v>
    <v>       0.69872351       0.94870397       0.76887205 </v>
    <v>       0.42123152       0.32881747       0.74344197 </v>
    <v>       0.42123151       0.82881744       0.74344197 </v>
    <v>       0.92123147       0.32881747       0.74344197 </v>
    <v>       0.92123151       0.82881744       0.74344197 </v>
    <v>       0.32880050       0.07882500       0.74342103 </v>
    <v>       0.32880049       0.57882496       0.74342103 </v>
    <v>       0.82880048       0.07882500       0.74342103 </v>
    <v>       0.82880052       0.57882496       0.74342103 </v>
    <v>       0.00000350       0.25000148       0.72582199 </v>
    <v>       0.00000350       0.75000145       0.72582199 </v>
    <v>       0.50000351       0.25000148       0.72582199 </v>
    <v>       0.50000350       0.75000145       0.72582199 </v>
    <v>       0.25000050       0.00000000       0.72580398 </v>
    <v>       0.25000052       0.50000000       0.72580398 </v>
    <v>       0.75000050       0.00000000       0.72580398 </v>
    <v>       0.75000049       0.50000000       0.72580398 </v>
    <v>       0.71868821       0.43820699       0.54180130 </v>
    <v>       0.73529666       0.49554926       0.51914046 </v>
    <v>       0.65624878       0.55401796       0.55989818 </v>
    <v>       0.70960789       0.63609901       0.55776476 </v>
    <v>       0.84783174       0.50216523       0.57138949 </v>
    <v>       0.78561276       0.57164500       0.58084921 </v>
    <v>       0.86728836       0.56087459       0.53061315 </v>
    <v>       0.79438186       0.62482845       0.52650649 </v>
    <v>       0.86650119       0.46305264       0.51884511 </v>
    <v>       0.86452789       0.42241816       0.54444941 </v>
    <v>       0.87108704       0.32546721       0.51856594 </v>
    <v>       0.78342657       0.32223626       0.53064062 </v>
    <v>       0.63764483       0.55113869       0.52031617 </v>
    <v>       0.68874395       0.63573656       0.51766195 </v>
    <v>       0.60668440       0.63230455       0.53280676 </v>
    <v>       0.75225275       0.45724965       0.59789034 </v>
    <v>       0.75134594       0.40680044       0.57401172 </v>
    <v>       0.67996027       0.47202339       0.57959633 </v>
    <v>       0.82137083       0.68732625       0.56075895 </v>
    <v>       0.90017400       0.68037707       0.54445118 </v>
    <v>       0.89243018       0.62076973       0.56643617 </v>
    <v>       0.81797732       0.38453620       0.48560454 </v>
    <v>       0.78255421       0.29666633       0.49178119 </v>
    <v>       0.66188506       0.31602696       0.52105624 </v>
    <v>       0.72853271       0.46151148       0.46977960 </v>
    <v>       0.53668147       0.37325980       0.52087237 </v>
    <v>       0.60294872       0.51737726       0.46929934 </v>
    <v>       0.50764856       0.47239018       0.49511755 </v>
    <v>       0.99186640       0.24332835       0.55578847 </v>
    <v>       0.03613744       0.77035977       0.56274653 </v>
    <v>       0.47199619       0.22924620       0.55788179 </v>
    <v>       0.49942252       0.75666378       0.55676431 </v>
    <v>       0.23774112       0.52481017       0.55921274 </v>
    <v>       0.25362311       0.98940472       0.55535076 </v>
    <v>       0.76472958       0.98197251       0.56344167 </v>
    <v>       0.00798502       0.24682021       0.64976900 </v>
    <v>       0.00918662       0.76219983       0.65274109 </v>
    <v>       0.49794047       0.24378999       0.64848401 </v>
    <v>       0.49973088       0.75333367       0.65011550 </v>
    <v>       0.25118475       0.49596631       0.64976180 </v>
    <v>       0.25445634       0.99907991       0.64762019 </v>
    <v>       0.74956424       0.51906076       0.65273871 </v>
    <v>       0.74921773       0.99510072       0.64876904 </v>
    <v>       0.49998898       0.24999498       0.74327702 </v>
    <v>       0.49998903       0.74999496       0.74327702 </v>
    <v>       0.99998898       0.24999498       0.74327702 </v>
    <v>       0.99998903       0.74999496       0.74327702 </v>
    <v>       0.25000050       0.00000100       0.74325596 </v>
    <v>       0.25000052       0.50000100       0.74325596 </v>
    <v>       0.75000050       0.00000100       0.74325596 </v>
    <v>       0.75000049       0.50000100       0.74325596 </v>
    <v>       0.70443061       0.38465352       0.49548014 </v>
    <v>       0.64961554       0.35955647       0.50947565 </v>
    <v>       0.68701124       0.44141847       0.48078656 </v>
    <v>       0.57862421       0.39145101       0.50942339 </v>
    <v>       0.61654854       0.47317486       0.48044613 </v>
    <v>       0.56169388       0.44791628       0.49495718 </v>
    <v>       0.75966821       0.47447659       0.53416684 </v>
    <v>       0.69462130       0.58436941       0.54976615 </v>
    <v>       0.78935736       0.52040552       0.57140695 </v>
    <v>       0.82516208       0.59431665       0.53861090 </v>
    <v>       0.83152196       0.43128131       0.52979725 </v>
    <v>       0.81736285       0.35470627       0.51946675 </v>
    <v>       0.65639282       0.60090903       0.52863650 </v>
    <v>       0.73968195       0.46144627       0.58083908 </v>
    <v>       0.86081413       0.64799740       0.55387403 </v>
    <v>       0.78265846       0.35470077       0.49690557 </v>
    <v>       0.05501953       0.24054773       0.56604223 </v>
    <v>       0.04793000       0.70968418       0.57360246 </v>
    <v>       0.54128456       0.21233008       0.56174785 </v>
    <v>       0.48571155       0.70082493       0.56964549 </v>
    <v>       0.44086527       0.29164754       0.56329327 </v>
    <v>       0.48032940       0.82610570       0.56065205 </v>
    <v>       0.92600868       0.24416187       0.56488447 </v>
    <v>       0.97972402       0.81571173       0.56528097 </v>
    <v>       0.24260248       0.45688872       0.56647512 </v>
    <v>       0.18622324       0.00901531       0.56064247 </v>
    <v>       0.69262654       0.98524315       0.56588699 </v>
    <v>       0.31370821       0.02402626       0.56165433 </v>
    <v>       0.28585057       0.57750476       0.56320219 </v>
    <v>       0.81107695       0.03416931       0.56902806 </v>
    <v>       0.05510578       0.19831360       0.65694158 </v>
    <v>       0.05085647       0.70930567       0.66026194 </v>
    <v>       0.55205848       0.20667343       0.65702246 </v>
    <v>       0.53912913       0.70697998       0.66172262 </v>
    <v>       0.20995107       0.44268688       0.65762940 </v>
    <v>       0.20762378       0.95753908       0.65795460 </v>
    <v>       0.70322029       0.47282925       0.66168722 </v>
    <v>       0.70609861       0.94797643       0.65847625 </v>
    <v>       0.45802982       0.29523388       0.65818426 </v>
    <v>       0.45186695       0.80238321       0.65757201 </v>
    <v>       0.95905103       0.28299598       0.66108901 </v>
    <v>       0.94675189       0.78503563       0.66113706 </v>
    <v>       0.30254659       0.04579754       0.65640448 </v>
    <v>       0.29108463       0.54421084       0.66096576 </v>
    <v>       0.78995570       0.04718779       0.65824427 </v>
    <v>       0.82204523       0.51860802       0.65570653 </v>
    <v>       0.04586250       0.20411950       0.75272599 </v>
    <v>       0.04586250       0.70411946       0.75272599 </v>
    <v>       0.54586251       0.20411950       0.75272599 </v>
    <v>       0.54586250       0.70411946       0.75272599 </v>
    <v>       0.20411900       0.45410100       0.75270499 </v>
    <v>       0.20411899       0.95410095       0.75270499 </v>
    <v>       0.70411898       0.45410100       0.75270499 </v>
    <v>       0.70411896       0.95410095       0.75270499 </v>
    <v>       0.45414002       0.29588849       0.75272697 </v>
    <v>       0.45414001       0.79588852       0.75272697 </v>
    <v>       0.95414002       0.29588849       0.75272697 </v>
    <v>       0.95414006       0.79588852       0.75272697 </v>
    <v>       0.29588249       0.04590050       0.75270499 </v>
    <v>       0.29588248       0.54590053       0.75270499 </v>
    <v>       0.79588244       0.04590050       0.75270499 </v>
    <v>       0.79588248       0.54590053       0.75270499 </v>
    <v>       0.76756922       0.54203753       0.54854960 </v>
    <v>       0.50647063       0.01814559       0.55233398 </v>
    <v>       0.48249692       0.51121159       0.55510071 </v>
    <v>       0.99462598       0.00563692       0.55177711 </v>
    <v>       0.03372914       0.50696713       0.55454701 </v>
    <v>       0.24957966       0.24829762       0.55367611 </v>
    <v>       0.23979087       0.76601357       0.55275411 </v>
    <v>       0.73559638       0.21153838       0.55622771 </v>
    <v>       0.70290873       0.79402053       0.55214046 </v>
    <v>       0.00212939       0.99500135       0.65438479 </v>
    <v>       0.01685040       0.49339886       0.65550190 </v>
    <v>       0.50268790       0.00169660       0.65449407 </v>
    <v>       0.50332521       0.49486595       0.65524647 </v>
    <v>       0.25768622       0.24516943       0.65488117 </v>
    <v>       0.25089640       0.75482051       0.65448875 </v>
    <v>       0.74753972       0.26339924       0.65538151 </v>
    <v>       0.74924759       0.74226057       0.65395184 </v>
    <v>       0.13659274       0.11618851       0.60707027 </v>
    <v>       0.14863634       0.61083811       0.61089056 </v>
    <v>       0.64201558       0.11309636       0.61063794 </v>
    <v>       0.62458673       0.62425570       0.61255434 </v>
    <v>       0.36148528       0.39008540       0.60876861 </v>
    <v>       0.37391710       0.88126129       0.60575098 </v>
    <v>       0.88599981       0.37044230       0.61186628 </v>
    <v>       0.86776229       0.88045739       0.60939905 </v>
    <v>       0.11895198       0.36502346       0.60875726 </v>
    <v>       0.12136508       0.87528486       0.60781670 </v>
    <v>       0.59219026       0.34751432       0.60334999 </v>
    <v>       0.61239078       0.86537874       0.61026702 </v>
    <v>       0.38297982       0.13245364       0.60619321 </v>
    <v>       0.38036156       0.63364545       0.61245551 </v>
    <v>       0.88666940       0.14179290       0.61296452 </v>
    <v>       0.90936434       0.64814523       0.61658280 </v>
    <v>       0.00000000       0.00000000       0.75492797 </v>
    <v>       0.00000000       0.50000000       0.75492797 </v>
    <v>       0.50000000       0.00000000       0.75492797 </v>
    <v>       0.49999999       0.50000000       0.75492797 </v>
    <v>       0.25000050       0.25000000       0.75493902 </v>
    <v>       0.25000051       0.74999997       0.75493902 </v>
    <v>       0.75000047       0.25000000       0.75493902 </v>
    <v>       0.75000046       0.74999997       0.75493902 </v>
    <v>       0.13579050       0.11421000       0.70478299 </v>
    <v>       0.13579050       0.61420998       0.70478299 </v>
    <v>       0.63579045       0.11421000       0.70478299 </v>
    <v>       0.63579049       0.61420998       0.70478299 </v>
    <v>       0.36420952       0.38578999       0.70478299 </v>
    <v>       0.36420950       0.88578996       0.70478299 </v>
    <v>       0.86420954       0.38578999       0.70478299 </v>
    <v>       0.86420953       0.88578996       0.70478299 </v>
    <v>       0.11421799       0.36421899       0.70478098 </v>
    <v>       0.11421799       0.86421899       0.70478098 </v>
    <v>       0.61421800       0.36421899       0.70478098 </v>
    <v>       0.61421799       0.86421899       0.70478098 </v>
    <v>       0.38578201       0.13578149       0.70478202 </v>
    <v>       0.38578200       0.63578149       0.70478202 </v>
    <v>       0.88578199       0.13578149       0.70478202 </v>
    <v>       0.88578203       0.63578149       0.70478202 </v>
    <v>       0.13466700       0.11533200       0.80125603 </v>
    <v>       0.13466699       0.61533199       0.80125603 </v>
    <v>       0.63466699       0.11533200       0.80125603 </v>
    <v>       0.63466698       0.61533199       0.80125603 </v>
    <v>       0.36533300       0.38466799       0.80125603 </v>
    <v>       0.36533299       0.88466796       0.80125603 </v>
    <v>       0.86533295       0.38466799       0.80125603 </v>
    <v>       0.86533294       0.88466796       0.80125603 </v>
    <v>       0.11532850       0.36533700       0.80126500 </v>
    <v>       0.11532850       0.86533698       0.80126500 </v>
    <v>       0.61532850       0.36533700       0.80126500 </v>
    <v>       0.61532849       0.86533698       0.80126500 </v>
    <v>       0.38467151       0.13466300       0.80126500 </v>
    <v>       0.38467150       0.63466297       0.80126500 </v>
    <v>       0.88467149       0.13466300       0.80126500 </v>
    <v>       0.88467153       0.63466297       0.80126500 </v>
    <v>       0.99712191       0.00309171       0.60502482 </v>
    <v>       0.00644871       0.50686645       0.60447430 </v>
    <v>       0.50307279       0.00638731       0.60482697 </v>
    <v>       0.49844806       0.50260842       0.60476195 </v>
    <v>       0.25000177       0.25400843       0.60502800 </v>
    <v>       0.24656715       0.75458461       0.60370919 </v>
    <v>       0.74651252       0.25750976       0.60560862 </v>
    <v>       0.73942406       0.75676753       0.60194968 </v>
    <v>       0.00000050       0.00000050       0.70482896 </v>
    <v>       0.00000050       0.50000048       0.70482896 </v>
    <v>       0.50000048       0.00000050       0.70482896 </v>
    <v>       0.50000046       0.50000048       0.70482896 </v>
    <v>       0.24999999       0.24999947       0.70482499 </v>
    <v>       0.25000001       0.74999950       0.70482499 </v>
    <v>       0.74999999       0.24999947       0.70482499 </v>
    <v>       0.74999998       0.74999950       0.70482499 </v>
    <v>       0.00000000       0.00000000       0.80731797 </v>
    <v>       0.00000000       0.50000000       0.80731797 </v>
    <v>       0.50000000       0.00000000       0.80731797 </v>
    <v>       0.49999999       0.50000000       0.80731797 </v>
    <v>       0.24999999       0.25000000       0.80731797 </v>
    <v>       0.25000001       0.74999997       0.80731797 </v>
    <v>       0.74999999       0.25000000       0.80731797 </v>
    <v>       0.74999998       0.74999997       0.80731797 </v>
   </varray>
  </structure>
  <varray name="primitive_index" >
   <v type="int" >        1 </v>
   <v type="int" >        2 </v>
   <v type="int" >        3 </v>
   <v type="int" >        4 </v>
   <v type="int" >        5 </v>
   <v type="int" >        6 </v>
   <v type="int" >        7 </v>
   <v type="int" >        8 </v>
   <v type="int" >        9 </v>
   <v type="int" >       10 </v>
   <v type="int" >       11 </v>
   <v type="int" >       12 </v>
   <v type="int" >       13 </v>
   <v type="int" >       14 </v>
   <v type="int" >       15 </v>
   <v type="int" >       16 </v>
   <v type="int" >       17 </v>
   <v type="int" >       18 </v>
   <v type="int" >       19 </v>
   <v type="int" >       20 </v>
   <v type="int" >       21 </v>
   <v type="int" >       22 </v>
   <v type="int" >       23 </v>
   <v type="int" >       24 </v>
   <v type="int" >       25 </v>
   <v type="int" >       26 </v>
   <v type="int" >       27 </v>
   <v type="int" >       28 </v>
   <v type="int" >       29 </v>
   <v type="int" >       30 </v>
   <v type="int" >       31 </v>
   <v type="int" >       32 </v>
   <v type="int" >       33 </v>
   <v type="int" >       34 </v>
   <v type="int" >       35 </v>
   <v type="int" >       36 </v>
   <v type="int" >       37 </v>
   <v type="int" >       38 </v>
   <v type="int" >       39 </v>
   <v type="int" >       40 </v>
   <v type="int" >       41 </v>
   <v type="int" >       42 </v>
   <v type="int" >       43 </v>
   <v type="int" >       44 </v>
   <v type="int" >       45 </v>
   <v type="int" >       46 </v>
   <v type="int" >       47 </v>
   <v type="int" >       48 </v>
   <v type="int" >       49 </v>
   <v type="int" >       50 </v>
   <v type="int" >       51 </v>
   <v type="int" >       52 </v>
   <v type="int" >       53 </v>
   <v type="int" >       54 </v>
   <v type="int" >       55 </v>
   <v type="int" >       56 </v>
   <v type="int" >       57 </v>
   <v type="int" >       58 </v>
   <v type="int" >       59 </v>
   <v type="int" >       60 </v>
   <v type="int" >       61 </v>
   <v type="int" >       62 </v>
   <v type="int" >       63 </v>
   <v type="int" >       64 </v>
   <v type="int" >       65 </v>
   <v type="int" >       66 </v>
   <v type="int" >       67 </v>
   <v type="int" >       68 </v>
   <v type="int" >       69 </v>
   <v type="int" >       70 </v>
   <v type="int" >       71 </v>
   <v type="int" >       72 </v>
   <v type="int" >       73 </v>
   <v type="int" >       74 </v>
   <v type="int" >       75 </v>
   <v type="int" >       76 </v>
   <v type="int" >       77 </v>
   <v type="int" >       78 </v>
   <v type="int" >       79 </v>
   <v type="int" >       80 </v>
   <v type="int" >       81 </v>
   <v type="int" >       82 </v>
   <v type="int" >       83 </v>
   <v type="int" >       84 </v>
   <v type="int" >       85 </v>
   <v type="int" >       86 </v>
   <v type="int" >       87 </v>
   <v type="int" >       88 </v>
   <v type="int" >       89 </v>
   <v type="int" >       90 </v>
   <v type="int" >       91 </v>
   <v type="int" >       92 </v>
   <v type="int" >       93 </v>
   <v type="int" >       94 </v>
   <v type="int" >       95 </v>
   <v type="int" >       96 </v>
   <v type="int" >       97 </v>
   <v type="int" >       98 </v>
   <v type="int" >       99 </v>
   <v type="int" >      100 </v>
   <v type="int" >      101 </v>
   <v type="int" >      102 </v>
   <v type="int" >      103 </v>
   <v type="int" >      104 </v>
   <v type="int" >      105 </v>
   <v type="int" >      106 </v>
   <v type="int" >      107 </v>
   <v type="int" >      108 </v>
   <v type="int" >      109 </v>
   <v type="int" >      110 </v>
   <v type="int" >      111 </v>
   <v type="int" >      112 </v>
   <v type="int" >      113 </v>
   <v type="int" >      114 </v>
   <v type="int" >      115 </v>
   <v type="int" >      116 </v>
   <v type="int" >      117 </v>
   <v type="int" >      118 </v>
   <v type="int" >      119 </v>
   <v type="int" >      120 </v>
   <v type="int" >      121 </v>
   <v type="int" >      122 </v>
   <v type="int" >      123 </v>
   <v type="int" >      124 </v>
   <v type="int" >      125 </v>
   <v type="int" >      126 </v>
   <v type="int" >      127 </v>
   <v type="int" >      128 </v>
   <v type="int" >      129 </v>
   <v type="int" >      130 </v>
   <v type="int" >      131 </v>
   <v type="int" >      132 </v>
   <v type="int" >      133 </v>
   <v type="int" >      134 </v>
   <v type="int" >      135 </v>
   <v type="int" >      136 </v>
   <v type="int" >      137 </v>
   <v type="int" >      138 </v>
   <v type="int" >      139 </v>
   <v type="int" >      140 </v>
   <v type="int" >      141 </v>
   <v type="int" >      142 </v>
   <v type="int" >      143 </v>
   <v type="int" >      144 </v>
   <v type="int" >      145 </v>
   <v type="int" >      146 </v>
   <v type="int" >      147 </v>
   <v type="int" >      148 </v>
   <v type="int" >      149 </v>
   <v type="int" >      150 </v>
   <v type="int" >      151 </v>
   <v type="int" >      152 </v>
   <v type="int" >      153 </v>
   <v type="int" >      154 </v>
   <v type="int" >      155 </v>
   <v type="int" >      156 </v>
   <v type="int" >      157 </v>
   <v type="int" >      158 </v>
   <v type="int" >      159 </v>
   <v type="int" >      160 </v>
   <v type="int" >      161 </v>
   <v type="int" >      162 </v>
   <v type="int" >      163 </v>
   <v type="int" >      164 </v>
   <v type="int" >      165 </v>
   <v type="int" >      166 </v>
   <v type="int" >      167 </v>
   <v type="int" >      168 </v>
   <v type="int" >      169 </v>
   <v type="int" >      170 </v>
   <v type="int" >      171 </v>
   <v type="int" >      172 </v>
   <v type="int" >      173 </v>
   <v type="int" >      174 </v>
   <v type="int" >      175 </v>
   <v type="int" >      176 </v>
   <v type="int" >      177 </v>
   <v type="int" >      178 </v>
   <v type="int" >      179 </v>
   <v type="int" >      180 </v>
   <v type="int" >      181 </v>
   <v type="int" >      182 </v>
   <v type="int" >      183 </v>
   <v type="int" >      184 </v>
   <v type="int" >      185 </v>
   <v type="int" >      186 </v>
   <v type="int" >      187 </v>
   <v type="int" >      188 </v>
   <v type="int" >      189 </v>
   <v type="int" >      190 </v>
   <v type="int" >      191 </v>
   <v type="int" >      192 </v>
   <v type="int" >      193 </v>
   <v type="int" >      194 </v>
   <v type="int" >      195 </v>
   <v type="int" >      196 </v>
   <v type="int" >      197 </v>
   <v type="int" >      198 </v>
   <v type="int" >      199 </v>
   <v type="int" >      200 </v>
   <v type="int" >      201 </v>
   <v type="int" >      202 </v>
   <v type="int" >      203 </v>
   <v type="int" >      204 </v>
   <v type="int" >      205 </v>
   <v type="int" >      206 </v>
   <v type="int" >      207 </v>
   <v type="int" >      208 </v>
   <v type="int" >      209 </v>
   <v type="int" >      210 </v>
   <v type="int" >      211 </v>
   <v type="int" >      212 </v>
   <v type="int" >      213 </v>
   <v type="int" >      214 </v>
   <v type="int" >      215 </v>
   <v type="int" >      216 </v>
   <v type="int" >      217 </v>
   <v type="int" >      218 </v>
   <v type="int" >      219 </v>
   <v type="int" >      220 </v>
   <v type="int" >      221 </v>
   <v type="int" >      222 </v>
   <v type="int" >      223 </v>
   <v type="int" >      224 </v>
   <v type="int" >      225 </v>
   <v type="int" >      226 </v>
   <v type="int" >      227 </v>
   <v type="int" >      228 </v>
   <v type="int" >      229 </v>
   <v type="int" >      230 </v>
   <v type="int" >      231 </v>
   <v type="int" >      232 </v>
   <v type="int" >      233 </v>
   <v type="int" >      234 </v>
   <v type="int" >      235 </v>
   <v type="int" >      236 </v>
   <v type="int" >      237 </v>
   <v type="int" >      238 </v>
   <v type="int" >      239 </v>
   <v type="int" >      240 </v>
   <v type="int" >      241 </v>
   <v type="int" >      242 </v>
   <v type="int" >      243 </v>
   <v type="int" >      244 </v>
   <v type="int" >      245 </v>
   <v type="int" >      246 </v>
   <v type="int" >      247 </v>
   <v type="int" >      248 </v>
   <v type="int" >      249 </v>
   <v type="int" >      250 </v>
   <v type="int" >      251 </v>
   <v type="int" >      252 </v>
   <v type="int" >      253 </v>
   <v type="int" >      254 </v>
   <v type="int" >      255 </v>
   <v type="int" >      256 </v>
   <v type="int" >      257 </v>
   <v type="int" >      258 </v>
   <v type="int" >      259 </v>
   <v type="int" >      260 </v>
   <v type="int" >      261 </v>
   <v type="int" >      262 </v>
   <v type="int" >      263 </v>
   <v type="int" >      264 </v>
   <v type="int" >      265 </v>
   <v type="int" >      266 </v>
   <v type="int" >      267 </v>
   <v type="int" >      268 </v>
   <v type="int" >      269 </v>
   <v type="int" >      270 </v>
   <v type="int" >      271 </v>
   <v type="int" >      272 </v>
   <v type="int" >      273 </v>
   <v type="int" >      274 </v>
   <v type="int" >      275 </v>
   <v type="int" >      276 </v>
   <v type="int" >      277 </v>
   <v type="int" >      278 </v>
   <v type="int" >      279 </v>
   <v type="int" >      280 </v>
   <v type="int" >      281 </v>
   <v type="int" >      282 </v>
   <v type="int" >      283 </v>
   <v type="int" >      284 </v>
   <v type="int" >      285 </v>
   <v type="int" >      286 </v>
   <v type="int" >      287 </v>
   <v type="int" >      288 </v>
   <v type="int" >      289 </v>
   <v type="int" >      290 </v>
   <v type="int" >      291 </v>
   <v type="int" >      292 </v>
   <v type="int" >      293 </v>
   <v type="int" >      294 </v>
   <v type="int" >      295 </v>
   <v type="int" >      296 </v>
   <v type="int" >      297 </v>
   <v type="int" >      298 </v>
   <v type="int" >      299 </v>
   <v type="int" >      300 </v>
   <v type="int" >      301 </v>
   <v type="int" >      302 </v>
   <v type="int" >      303 </v>
   <v type="int" >      304 </v>
   <v type="int" >      305 </v>
   <v type="int" >      306 </v>
   <v type="int" >      307 </v>
   <v type="int" >      308 </v>
   <v type="int" >      309 </v>
   <v type="int" >      310 </v>
   <v type="int" >      311 </v>
   <v type="int" >      312 </v>
   <v type="int" >      313 </v>
   <v type="int" >      314 </v>
   <v type="int" >      315 </v>
   <v type="int" >      316 </v>
   <v type="int" >      317 </v>
   <v type="int" >      318 </v>
   <v type="int" >      319 </v>
   <v type="int" >      320 </v>
   <v type="int" >      321 </v>
   <v type="int" >      322 </v>
   <v type="int" >      323 </v>
   <v type="int" >      324 </v>
   <v type="int" >      325 </v>
  </varray>
 </primitive_cell>
 <kpoints>
  <generation param="Gamma">
   <v type="int" name="divisions">       3        3        1 </v>
   <v name="usershift">      0.00000000       0.00000000       0.00000000 </v>
   <v name="genvec1">      0.33333333       0.00000000       0.00000000 </v>
   <v name="genvec2">      0.00000000       0.33333333       0.00000000 </v>
   <v name="genvec3">      0.00000000       0.00000000       1.00000000 </v>
   <v name="shift">      0.00000000       0.00000000       0.00000000 </v>
  </generation>
  <varray name="kpointlist" >
   <v>       0.00000000       0.00000000       0.00000000 </v>
   <v>       0.33333333       0.00000000       0.00000000 </v>
   <v>       0.00000000       0.33333333       0.00000000 </v>
   <v>       0.33333333       0.33333333       0.00000000 </v>
   <v>      -0.33333333       0.33333333       0.00000000 </v>
  </varray>
  <varray name="weights" >
   <v>       0.11111111 </v>
   <v>       0.22222222 </v>
   <v>       0.22222222 </v>
   <v>       0.22222222 </v>
   <v>       0.22222222 </v>
  </varray>
 </kpoints>
 <parameters>
  <separator name="general" >
   <i type="string" name="SYSTEM">PSC</i>
   <i type="logical" name="LCOMPAT"> F  </i>
  </separator>
  <separator name="electronic" >
   <i type="string" name="PREC">normal</i>
   <i name="ENMAX">    500.00000000</i>
   <i name="ENAUG">    644.87300000</i>
   <i name="EDIFF">      0.00010000</i>
   <i type="int" name="IALGO">    38</i>
   <i type="int" name="IWAVPR">    10</i>
   <i type="int" name="NBANDS">   732</i>
   <i type="int" name="NBANDSLOW">    -1</i>
   <i type="int" name="NBANDSHIGH">    -1</i>
   <i name="NELECT">   1134.00000000</i>
   <i type="int" name="TURBO">     0</i>
   <i type="int" name="IRESTART">     0</i>
   <i type="int" name="NREBOOT">     0</i>
   <i type="int" name="NMIN">     0</i>
   <i name="EREF">      0.00000000</i>
   <separator name="electronic smearing" >
    <i type="int" name="ISMEAR">     0</i>
    <i name="SIGMA">      0.05000000</i>
    <i name="KSPACING">      0.50000000</i>
    <i type="logical" name="KGAMMA"> T  </i>
    <i type="logical" name="KBLOWUP"> T  </i>
   </separator>
   <separator name="electronic projectors" >
    <i type="logical" name="LREAL"> T  </i>
    <v name="ROPT">     -0.00050000     -0.00050000     -0.00050000     -0.00050000     -0.00050000</v>
    <i type="int" name="LMAXPAW">  -100</i>
    <i type="int" name="LMAXMIX">     2</i>
    <i type="logical" name="NLSPLINE"> F  </i>
   </separator>
   <separator name="electronic startup" >
    <i type="int" name="ISTART">     0</i>
    <i type="int" name="ICHARG">     1</i>
    <i type="int" name="INIWAV">     1</i>
   </separator>
   <separator name="electronic spin" >
    <i type="int" name="ISPIN">     1</i>
    <i type="logical" name="LNONCOLLINEAR"> F  </i>
    <v name="MAGMOM">      1.00000000      1.00000000      1.00000000      1.00000000      1.00000000      1.00000000      1.00000000      1.00000000      1.00000000      1.00000000      1.00000000      1.00000000      1.00000000      1.00000000      1.00000000      1.00000000      1.00000000      1.00000000      1.00000000      1.00000000
      1.00000000      1.00000000      1.00000000      1.00000000      1.00000000      1.00000000      1.00000000      1.00000000      1.00000000      1.00000000      1.00000000      1.00000000      1.00000000      1.00000000      1.00000000      1.00000000      1.00000000      1.00000000      1.00000000      1.00000000
      1.00000000      1.00000000      1.00000000      1.00000000      1.00000000      1.00000000      1.00000000      1.00000000      1.00000000      1.00000000      1.00000000      1.00000000      1.00000000      1.00000000      1.00000000      1.00000000      1.00000000      1.00000000      1.00000000      1.00000000
      1.00000000      1.00000000      1.00000000      1.00000000      1.00000000      1.00000000      1.00000000      1.00000000      1.00000000      1.00000000      1.00000000      1.00000000      1.00000000      1.00000000      1.00000000      1.00000000      1.00000000      1.00000000      1.00000000      1.00000000
      1.00000000      1.00000000      1.00000000      1.00000000      1.00000000      1.00000000      1.00000000      1.00000000      1.00000000      1.00000000      1.00000000      1.00000000      1.00000000      1.00000000      1.00000000      1.00000000      1.00000000      1.00000000      1.00000000      1.00000000
      1.00000000      1.00000000      1.00000000      1.00000000      1.00000000      1.00000000      1.00000000      1.00000000      1.00000000      1.00000000      1.00000000      1.00000000      1.00000000      1.00000000      1.00000000      1.00000000      1.00000000      1.00000000      1.00000000      1.00000000
      1.00000000      1.00000000      1.00000000      1.00000000      1.00000000      1.00000000      1.00000000      1.00000000      1.00000000      1.00000000      1.00000000      1.00000000      1.00000000      1.00000000      1.00000000      1.00000000      1.00000000      1.00000000      1.00000000      1.00000000
      1.00000000      1.00000000      1.00000000      1.00000000      1.00000000      1.00000000      1.00000000      1.00000000      1.00000000      1.00000000      1.00000000      1.00000000      1.00000000      1.00000000      1.00000000      1.00000000      1.00000000      1.00000000      1.00000000      1.00000000
      1.00000000      1.00000000      1.00000000      1.00000000      1.00000000      1.00000000      1.00000000      1.00000000      1.00000000      1.00000000      1.00000000      1.00000000      1.00000000      1.00000000      1.00000000      1.00000000      1.00000000      1.00000000      1.00000000      1.00000000
      1.00000000      1.00000000      1.00000000      1.00000000      1.00000000      1.00000000      1.00000000      1.00000000      1.00000000      1.00000000      1.00000000      1.00000000      1.00000000      1.00000000      1.00000000      1.00000000      1.00000000      1.00000000      1.00000000      1.00000000
      1.00000000      1.00000000      1.00000000      1.00000000      1.00000000      1.00000000      1.00000000      1.00000000      1.00000000      1.00000000      1.00000000      1.00000000      1.00000000      1.00000000      1.00000000      1.00000000      1.00000000      1.00000000      1.00000000      1.00000000
      1.00000000      1.00000000      1.00000000      1.00000000      1.00000000      1.00000000      1.00000000      1.00000000      1.00000000      1.00000000      1.00000000      1.00000000      1.00000000      1.00000000      1.00000000      1.00000000      1.00000000      1.00000000      1.00000000      1.00000000
      1.00000000      1.00000000      1.00000000      1.00000000      1.00000000      1.00000000      1.00000000      1.00000000      1.00000000      1.00000000      1.00000000      1.00000000      1.00000000      1.00000000      1.00000000      1.00000000      1.00000000      1.00000000      1.00000000      1.00000000
      1.00000000      1.00000000      1.00000000      1.00000000      1.00000000      1.00000000      1.00000000      1.00000000      1.00000000      1.00000000      1.00000000      1.00000000      1.00000000      1.00000000      1.00000000      1.00000000      1.00000000      1.00000000      1.00000000      1.00000000
      1.00000000      1.00000000      1.00000000      1.00000000      1.00000000      1.00000000      1.00000000      1.00000000      1.00000000      1.00000000      1.00000000      1.00000000      1.00000000      1.00000000      1.00000000      1.00000000      1.00000000      1.00000000      1.00000000      1.00000000
      1.00000000      1.00000000      1.00000000      1.00000000      1.00000000      1.00000000      1.00000000      1.00000000      1.00000000      1.00000000      1.00000000      1.00000000      1.00000000      1.00000000      1.00000000      1.00000000      1.00000000      1.00000000      1.00000000      1.00000000
      1.00000000      1.00000000      1.00000000      1.00000000      1.00000000</v>
    <i name="NUPDOWN">     -1.00000000</i>
    <i type="logical" name="LSORBIT"> F  </i>
    <v name="SAXIS">      0.00000000      0.00000000      1.00000000</v>
    <i type="logical" name="LSPIRAL"> F  </i>
    <v name="QSPIRAL">      0.00000000      0.00000000      0.00000000</v>
    <i type="logical" name="LZEROZ"> F  </i>
   </separator>
   <separator name="electronic exchange-correlation" >
    <i type="logical" name="LASPH"> F  </i>
    <i type="logical" name="LMETAGGA"> F  </i>
   </separator>
   <separator name="electronic convergence" >
    <i type="int" name="NELM">   600</i>
    <i type="int" name="NELMDL">     0</i>
    <i type="int" name="NELMIN">     2</i>
    <i name="ENINI">    500.00000000</i>
    <separator name="electronic convergence detail" >
     <i type="logical" name="LDIAG"> T  </i>
     <i type="logical" name="LSUBROT"> F  </i>
     <i name="WEIMIN">      0.00000000</i>
     <i name="EBREAK">      0.00000003</i>
     <i name="DEPER">      0.30000000</i>
     <i type="int" name="NRMM">     4</i>
     <i name="TIME">      0.40000000</i>
    </separator>
   </separator>
   <separator name="electronic mixer" >
    <i name="AMIX">      0.40000000</i>
    <i name="BMIX">      0.01000000</i>
    <i name="AMIN">      0.01000000</i>
    <i name="AMIX_MAG">      1.60000000</i>
    <i name="BMIX_MAG">      0.01000000</i>
    <separator name="electronic mixer details" >
     <i type="int" name="IMIX">     4</i>
     <i type="logical" name="MIXFIRST"> F  </i>
     <i type="int" name="MAXMIX">   -45</i>
     <i name="WC">    100.00000000</i>
     <i type="int" name="INIMIX">     1</i>
     <i type="int" name="MIXPRE">     1</i>
     <i type="int" name="MREMOVE">     5</i>
    </separator>
   </separator>
   <separator name="electronic dipolcorrection" >
    <i type="logical" name="LDIPOL"> T  </i>
    <i type="logical" name="LMONO"> F  </i>
    <i type="int" name="IDIPOL">     3</i>
    <i name="EPSILON">      1.00000000</i>
    <v name="DIPOL">   -100.00000000   -100.00000000   -100.00000000</v>
    <i name="EFIELD">      0.00000000</i>
   </separator>
  </separator>
  <separator name="grids" >
   <i type="int" name="NGX">   100</i>
   <i type="int" name="NGY">   100</i>
   <i type="int" name="NGZ">   350</i>
   <i type="int" name="NGXF">   200</i>
   <i type="int" name="NGYF">   200</i>
   <i type="int" name="NGZF">   700</i>
   <i type="logical" name="ADDGRID"> F  </i>
  </separator>
  <separator name="ionic" >
   <i type="int" name="NSW">     0</i>
   <i type="int" name="IBRION">    -1</i>
   <i type="int" name="MDALGO">     0</i>
   <i type="int" name="ISIF">     2</i>
   <i name="PSTRESS">      0.00000000</i>
   <i name="EDIFFG">      0.00100000</i>
   <i type="int" name="NFREE">     0</i>
   <i name="POTIM">      0.50000000</i>
   <i name="SMASS">     -3.00000000</i>
   <i name="SCALEE">      1.00000000</i>
  </separator>
  <separator name="ionic md" >
   <i name="TEBEG">      0.00010000</i>
   <i name="TEEND">      0.00010000</i>
   <i type="int" name="NBLOCK">     1</i>
   <i type="int" name="KBLOCK">     1</i>
   <i type="int" name="NPACO">   256</i>
   <i name="APACO">     16.00000000</i>
  </separator>
  <separator name="symmetry" >
   <i type="int" name="ISYM">     0</i>
   <i name="SYMPREC">      0.00001000</i>
  </separator>
  <separator name="dos" >
   <i type="int" name="LORBIT">     0</i>
   <v name="RWIGS">     -1.00000000     -1.00000000     -1.00000000     -1.00000000     -1.00000000</v>
   <i type="int" name="NEDOS">   301</i>
   <i name="EMIN">     10.00000000</i>
   <i name="EMAX">    -10.00000000</i>
   <i name="EFERMI">      0.00000000</i>
  </separator>
  <separator name="writing" >
   <i type="int" name="NWRITE">     2</i>
   <i type="logical" name="LWAVE"> F  </i>
   <i type="logical" name="LDOWNSAMPLE"> F  </i>
   <i type="logical" name="LCHARG"> T  </i>
   <i type="logical" name="LPARD"> F  </i>
   <i type="logical" name="LVTOT"> T  </i>
   <i type="logical" name="LVHAR"> F  </i>
   <i type="logical" name="LELF"> F  </i>
   <i type="logical" name="LOPTICS"> F  </i>
   <v name="STM">      0.00000000      0.00000000      0.00000000      0.00000000      0.00000000      0.00000000      0.00000000</v>
  </separator>
  <separator name="performance" >
   <i type="int" name="NPAR">     4</i>
   <i type="int" name="NSIM">     4</i>
   <i type="int" name="NBLK">    -1</i>
   <i type="logical" name="LPLANE"> T  </i>
   <i type="logical" name="LSCALAPACK"> T  </i>
   <i type="logical" name="LSCAAWARE"> F  </i>
   <i type="logical" name="LSCALU"> F  </i>
   <i type="logical" name="LASYNC"> F  </i>
   <i type="logical" name="LORBITALREAL"> F  </i>
  </separator>
  <separator name="miscellaneous" >
   <i type="int" name="IDIOT">     3</i>
   <i type="int" name="PHON_NSTRUCT">    -1</i>
   <i type="logical" name="LMUSIC"> F  </i>
   <v name="POMASS">      1.00000000     12.01100000     14.00100000    126.90400000    207.20000000</v>
   <v name="DARWINR">      0.00000000      0.00000000      0.00000000      0.00000000      0.00000000</v>
   <v name="DARWINV">      1.00000000      1.00000000      1.00000000      1.00000000      1.00000000</v>
   <i type="logical" name="LCORR"> T  </i>
  </separator>
  <i type="logical" name="GGA_COMPAT"> F  </i>
  <i type="logical" name="LBERRY"> F  </i>
  <i type="int" name="ICORELEVEL">     0</i>
  <i type="logical" name="LDAU"> F  </i>
  <i type="int" name="I_CONSTRAINED_M">     0</i>
  <separator name="electronic exchange-correlation" >
   <i type="string" name="GGA">--</i>
   <i type="int" name="VOSKOWN">     0</i>
   <i type="logical" name="LHFCALC"> F  </i>
   <i type="string" name="PRECFOCK"></i>
   <i type="logical" name="LSYMGRAD"> F  </i>
   <i type="logical" name="LHFONE"> F  </i>
   <i type="logical" name="LRHFCALC"> F  </i>
   <i type="logical" name="LTHOMAS"> F  </i>
   <i type="logical" name="LMODELHF"> F  </i>
   <i type="logical" name="LFOCKACE"> F  </i>
   <i name="ENCUT4O">     -1.00000000</i>
   <i type="int" name="EXXOEP">     0</i>
   <i type="int" name="FOURORBIT">     0</i>
   <i name="AEXX">      0.00000000</i>
   <i name="HFALPHA">      0.00000000</i>
   <i name="MCALPHA">      0.00000000</i>
   <i name="ALDAX">      1.00000000</i>
   <i name="AGGAX">      1.00000000</i>
   <i name="ALDAC">      1.00000000</i>
   <i name="AGGAC">      1.00000000</i>
   <i type="int" name="NKREDX">     1</i>
   <i type="int" name="NKREDY">     1</i>
   <i type="int" name="NKREDZ">     1</i>
   <i type="logical" name="SHIFTRED"> F  </i>
   <i type="logical" name="ODDONLY"> F  </i>
   <i type="logical" name="EVENONLY"> F  </i>
   <i type="int" name="LMAXFOCK">     0</i>
   <i type="int" name="NMAXFOCKAE">     0</i>
   <i type="logical" name="LFOCKAEDFT"> F  </i>
   <i name="HFSCREEN">      0.00000000</i>
   <i name="HFSCREENC">      0.00000000</i>
   <i type="int" name="NBANDSGWLOW">     0</i>
  </separator>
  <separator name="vdW DFT" >
   <i type="logical" name="LUSE_VDW"> F  </i>
   <i name="Zab_VDW">     -0.84910000</i>
   <i name="PARAM1">      0.12340000</i>
   <i name="PARAM2">      1.00000000</i>
   <i name="PARAM3">      0.00000000</i>
  </separator>
  <separator name="model GW" >
   <i type="int" name="MODEL_GW">     0</i>
   <i name="MODEL_EPS0">     37.63423484</i>
   <i name="MODEL_ALPHA">      1.00000000</i>
  </separator>
  <separator name="linear response parameters" >
   <i type="logical" name="LEPSILON"> F  </i>
   <i type="logical" name="LRPA"> F  </i>
   <i type="logical" name="LNABLA"> F  </i>
   <i type="logical" name="LVEL"> F  </i>
   <i type="int" name="KINTER">     0</i>
   <i name="CSHIFT">      0.10000000</i>
   <i name="OMEGAMAX">     -1.00000000</i>
   <i name="DEG_THRESHOLD">      0.00200000</i>
   <i name="RTIME">     -0.10000000</i>
   <i name="WPLASMAI">      0.00000000</i>
   <v name="DFIELD">      0.00000000      0.00000000      0.00000000</v>
   <v name="WPLASMA">      0.00000000      0.00000000      0.00000000      0.00000000      0.00000000      0.00000000      0.00000000      0.00000000      0.00000000</v>
  </separator>
  <separator name="orbital magnetization" >
   <i type="logical" name="NUCIND"> F  </i>
   <v name="MAGPOS">      0.00000000      0.00000000      0.00000000</v>
   <i type="logical" name="LNICSALL"> T  </i>
   <i type="logical" name="ORBITALMAG"> F  </i>
   <i type="logical" name="LMAGBLOCH"> F  </i>
   <i type="logical" name="LCHIMAG"> F  </i>
   <i type="logical" name="LGAUGE"> T  </i>
   <i type="int" name="MAGATOM">     0</i>
   <v name="MAGDIPOL">      0.00000000      0.00000000      0.00000000</v>
   <v name="AVECCONST">      0.00000000      0.00000000      0.00000000</v>
  </separator>
  <separator name="response functions" >
   <i type="logical" name="LFINITE_TEMPERATURE"> F  </i>
   <i type="logical" name="LADDER"> F  </i>
   <i type="logical" name="LRPAFORCE"> F  </i>
   <i type="logical" name="LFXC"> F  </i>
   <i type="logical" name="LHARTREE"> T  </i>
   <i type="int" name="IBSE">     0</i>
   <v type="int" name="KPOINT">    -1     0     0     0</v>
   <i type="logical" name="LTCTC"> F  </i>
   <i type="logical" name="LTCTE"> F  </i>
   <i type="logical" name="LTETE"> F  </i>
   <i type="logical" name="LTRIPLET"> F  </i>
   <i type="logical" name="LFXCEPS"> F  </i>
   <i type="logical" name="LFXHEG"> F  </i>
   <i type="int" name="NATURALO">     2</i>
   <i type="logical" name="LHOLEGF"> F  </i>
   <i type="logical" name="L2ORDER"> F  </i>
   <i type="logical" name="LDMP1"> F  </i>
   <i type="logical" name="LMP2LT"> F  </i>
   <i type="logical" name="LSMP2LT"> F  </i>
   <i type="logical" name="LGWLF"> F  </i>
   <i name="ENCUTGW">     -2.00000000</i>
   <i name="ENCUTGWSOFT">     -2.00000000</i>
   <i name="ENCUTLF">     -1.00000000</i>
   <i type="logical" name="LESF_SPLINES"> F  </i>
   <i type="int" name="LMAXMP2">    -1</i>
   <i name="SCISSOR">      0.00000000</i>
   <i type="int" name="NOMEGA">     0</i>
   <i type="int" name="NOMEGAR">     0</i>
   <i type="int" name="NBANDSGW">    -1</i>
   <i type="int" name="NBANDSO">    -1</i>
   <i type="int" name="NBANDSV">    -1</i>
   <i type="int" name="NELM">   600</i>
   <i type="int" name="NELMHF">     1</i>
   <i type="int" name="DIM">     3</i>
   <i type="int" name="IESPILON">     4</i>
   <i type="int" name="ANTIRES">     0</i>
   <i name="OMEGAMAX">    -30.00000000</i>
   <i name="OMEGAMIN">    -30.00000000</i>
   <i name="OMEGATL">   -200.00000000</i>
   <i type="int" name="OMEGAGRID">     0</i>
   <i name="CSHIFT">     -0.10000000</i>
   <i type="logical" name="LSELFENERGY"> F  </i>
   <i type="logical" name="LSPECTRAL"> F  </i>
   <i type="logical" name="LSPECTRALGW"> F  </i>
   <i type="logical" name="LSINGLES"> F  </i>
   <i type="logical" name="LFERMIGW"> F  </i>
   <i type="logical" name="ODDONLYGW"> F  </i>
   <i type="logical" name="EVENONLYGW"> F  </i>
   <i type="int" name="NKREDLFX">     1</i>
   <i type="int" name="NKREDLFY">     1</i>
   <i type="int" name="NKREDLFZ">     1</i>
   <i type="int" name="MAXMEM">  2800</i>
   <i type="int" name="TELESCOPE">     0</i>
   <i type="int" name="NTAUPAR">    -1</i>
   <i type="int" name="NOMEGAPAR">    -1</i>
   <i name="DAMP_NEWTON">      0.80000001</i>
   <i name="LAMBDA">      1.00000000</i>
  </separator>
  <separator name="External order field" >
   <i name="OFIELD_KAPPA">      0.00000000</i>
   <v name="OFIELD_K">      0.00000000      0.00000000      0.00000000</v>
   <i name="OFIELD_Q6_NEAR">      0.00000000</i>
   <i name="OFIELD_Q6_FAR">      0.00000000</i>
   <i name="OFIELD_A">      0.00000000</i>
  </separator>
 </parameters>
 <atominfo>
  <atoms>     325 </atoms>
  <types>       5 </types>
  <array name="atoms" >
   <dimension dim="1">ion</dimension>
   <field type="string">element</field>
   <field type="int">atomtype</field>
   <set>
    <rc><c>H </c><c>   1</c></rc>
    <rc><c>H </c><c>   1</c></rc>
    <rc><c>H </c><c>   1</c></rc>
    <rc><c>H </c><c>   1</c></rc>
    <rc><c>H </c><c>   1</c></rc>
    <rc><c>H </c><c>   1</c></rc>
    <rc><c>H </c><c>   1</c></rc>
    <rc><c>H </c><c>   1</c></rc>
    <rc><c>H </c><c>   1</c></rc>
    <rc><c>H </c><c>   1</c></rc>
    <rc><c>H </c><c>   1</c></rc>
    <rc><c>H </c><c>   1</c></rc>
    <rc><c>H </c><c>   1</c></rc>
    <rc><c>H </c><c>   1</c></rc>
    <rc><c>H </c><c>   1</c></rc>
    <rc><c>H </c><c>   1</c></rc>
    <rc><c>H </c><c>   1</c></rc>
    <rc><c>H </c><c>   1</c></rc>
    <rc><c>H </c><c>   1</c></rc>
    <rc><c>H </c><c>   1</c></rc>
    <rc><c>H </c><c>   1</c></rc>
    <rc><c>H </c><c>   1</c></rc>
    <rc><c>H </c><c>   1</c></rc>
    <rc><c>H </c><c>   1</c></rc>
    <rc><c>H </c><c>   1</c></rc>
    <rc><c>H </c><c>   1</c></rc>
    <rc><c>H </c><c>   1</c></rc>
    <rc><c>H </c><c>   1</c></rc>
    <rc><c>H </c><c>   1</c></rc>
    <rc><c>H </c><c>   1</c></rc>
    <rc><c>H </c><c>   1</c></rc>
    <rc><c>H </c><c>   1</c></rc>
    <rc><c>H </c><c>   1</c></rc>
    <rc><c>H </c><c>   1</c></rc>
    <rc><c>H </c><c>   1</c></rc>
    <rc><c>H </c><c>   1</c></rc>
    <rc><c>H </c><c>   1</c></rc>
    <rc><c>H </c><c>   1</c></rc>
    <rc><c>H </c><c>   1</c></rc>
    <rc><c>H </c><c>   1</c></rc>
    <rc><c>H </c><c>   1</c></rc>
    <rc><c>H </c><c>   1</c></rc>
    <rc><c>H </c><c>   1</c></rc>
    <rc><c>H </c><c>   1</c></rc>
    <rc><c>H </c><c>   1</c></rc>
    <rc><c>H </c><c>   1</c></rc>
    <rc><c>H </c><c>   1</c></rc>
    <rc><c>H </c><c>   1</c></rc>
    <rc><c>H </c><c>   1</c></rc>
    <rc><c>H </c><c>   1</c></rc>
    <rc><c>H </c><c>   1</c></rc>
    <rc><c>H </c><c>   1</c></rc>
    <rc><c>H </c><c>   1</c></rc>
    <rc><c>H </c><c>   1</c></rc>
    <rc><c>H </c><c>   1</c></rc>
    <rc><c>H </c><c>   1</c></rc>
    <rc><c>H </c><c>   1</c></rc>
    <rc><c>H </c><c>   1</c></rc>
    <rc><c>H </c><c>   1</c></rc>
    <rc><c>H </c><c>   1</c></rc>
    <rc><c>H </c><c>   1</c></rc>
    <rc><c>H </c><c>   1</c></rc>
    <rc><c>H </c><c>   1</c></rc>
    <rc><c>H </c><c>   1</c></rc>
    <rc><c>H </c><c>   1</c></rc>
    <rc><c>H </c><c>   1</c></rc>
    <rc><c>H </c><c>   1</c></rc>
    <rc><c>H </c><c>   1</c></rc>
    <rc><c>H </c><c>   1</c></rc>
    <rc><c>H </c><c>   1</c></rc>
    <rc><c>H </c><c>   1</c></rc>
    <rc><c>H </c><c>   1</c></rc>
    <rc><c>H </c><c>   1</c></rc>
    <rc><c>H </c><c>   1</c></rc>
    <rc><c>H </c><c>   1</c></rc>
    <rc><c>H </c><c>   1</c></rc>
    <rc><c>H </c><c>   1</c></rc>
    <rc><c>H </c><c>   1</c></rc>
    <rc><c>H </c><c>   1</c></rc>
    <rc><c>H </c><c>   1</c></rc>
    <rc><c>H </c><c>   1</c></rc>
    <rc><c>H </c><c>   1</c></rc>
    <rc><c>H </c><c>   1</c></rc>
    <rc><c>H </c><c>   1</c></rc>
    <rc><c>H </c><c>   1</c></rc>
    <rc><c>H </c><c>   1</c></rc>
    <rc><c>H </c><c>   1</c></rc>
    <rc><c>H </c><c>   1</c></rc>
    <rc><c>H </c><c>   1</c></rc>
    <rc><c>H </c><c>   1</c></rc>
    <rc><c>H </c><c>   1</c></rc>
    <rc><c>H </c><c>   1</c></rc>
    <rc><c>H </c><c>   1</c></rc>
    <rc><c>H </c><c>   1</c></rc>
    <rc><c>H </c><c>   1</c></rc>
    <rc><c>H </c><c>   1</c></rc>
    <rc><c>H </c><c>   1</c></rc>
    <rc><c>H </c><c>   1</c></rc>
    <rc><c>H </c><c>   1</c></rc>
    <rc><c>H </c><c>   1</c></rc>
    <rc><c>H </c><c>   1</c></rc>
    <rc><c>H </c><c>   1</c></rc>
    <rc><c>H </c><c>   1</c></rc>
    <rc><c>H </c><c>   1</c></rc>
    <rc><c>H </c><c>   1</c></rc>
    <rc><c>H </c><c>   1</c></rc>
    <rc><c>H </c><c>   1</c></rc>
    <rc><c>H </c><c>   1</c></rc>
    <rc><c>H </c><c>   1</c></rc>
    <rc><c>H </c><c>   1</c></rc>
    <rc><c>H </c><c>   1</c></rc>
    <rc><c>H </c><c>   1</c></rc>
    <rc><c>H </c><c>   1</c></rc>
    <rc><c>H </c><c>   1</c></rc>
    <rc><c>H </c><c>   1</c></rc>
    <rc><c>H </c><c>   1</c></rc>
    <rc><c>H </c><c>   1</c></rc>
    <rc><c>H </c><c>   1</c></rc>
    <rc><c>H </c><c>   1</c></rc>
    <rc><c>H </c><c>   1</c></rc>
    <rc><c>H </c><c>   1</c></rc>
    <rc><c>H </c><c>   1</c></rc>
    <rc><c>H </c><c>   1</c></rc>
    <rc><c>H </c><c>   1</c></rc>
    <rc><c>H </c><c>   1</c></rc>
    <rc><c>H </c><c>   1</c></rc>
    <rc><c>H </c><c>   1</c></rc>
    <rc><c>H </c><c>   1</c></rc>
    <rc><c>H </c><c>   1</c></rc>
    <rc><c>H </c><c>   1</c></rc>
    <rc><c>H </c><c>   1</c></rc>
    <rc><c>H </c><c>   1</c></rc>
    <rc><c>H </c><c>   1</c></rc>
    <rc><c>H </c><c>   1</c></rc>
    <rc><c>H </c><c>   1</c></rc>
    <rc><c>H </c><c>   1</c></rc>
    <rc><c>H </c><c>   1</c></rc>
    <rc><c>H </c><c>   1</c></rc>
    <rc><c>H </c><c>   1</c></rc>
    <rc><c>H </c><c>   1</c></rc>
    <rc><c>H </c><c>   1</c></rc>
    <rc><c>H </c><c>   1</c></rc>
    <rc><c>H </c><c>   1</c></rc>
    <rc><c>C </c><c>   2</c></rc>
    <rc><c>C </c><c>   2</c></rc>
    <rc><c>C </c><c>   2</c></rc>
    <rc><c>C </c><c>   2</c></rc>
    <rc><c>C </c><c>   2</c></rc>
    <rc><c>C </c><c>   2</c></rc>
    <rc><c>C </c><c>   2</c></rc>
    <rc><c>C </c><c>   2</c></rc>
    <rc><c>C </c><c>   2</c></rc>
    <rc><c>C </c><c>   2</c></rc>
    <rc><c>C </c><c>   2</c></rc>
    <rc><c>C </c><c>   2</c></rc>
    <rc><c>C </c><c>   2</c></rc>
    <rc><c>C </c><c>   2</c></rc>
    <rc><c>C </c><c>   2</c></rc>
    <rc><c>C </c><c>   2</c></rc>
    <rc><c>C </c><c>   2</c></rc>
    <rc><c>C </c><c>   2</c></rc>
    <rc><c>C </c><c>   2</c></rc>
    <rc><c>C </c><c>   2</c></rc>
    <rc><c>C </c><c>   2</c></rc>
    <rc><c>C </c><c>   2</c></rc>
    <rc><c>C </c><c>   2</c></rc>
    <rc><c>C </c><c>   2</c></rc>
    <rc><c>C </c><c>   2</c></rc>
    <rc><c>C </c><c>   2</c></rc>
    <rc><c>C </c><c>   2</c></rc>
    <rc><c>C </c><c>   2</c></rc>
    <rc><c>C </c><c>   2</c></rc>
    <rc><c>C </c><c>   2</c></rc>
    <rc><c>C </c><c>   2</c></rc>
    <rc><c>C </c><c>   2</c></rc>
    <rc><c>C </c><c>   2</c></rc>
    <rc><c>C </c><c>   2</c></rc>
    <rc><c>C </c><c>   2</c></rc>
    <rc><c>C </c><c>   2</c></rc>
    <rc><c>C </c><c>   2</c></rc>
    <rc><c>C </c><c>   2</c></rc>
    <rc><c>C </c><c>   2</c></rc>
    <rc><c>N </c><c>   3</c></rc>
    <rc><c>N </c><c>   3</c></rc>
    <rc><c>N </c><c>   3</c></rc>
    <rc><c>N </c><c>   3</c></rc>
    <rc><c>N </c><c>   3</c></rc>
    <rc><c>N </c><c>   3</c></rc>
    <rc><c>N </c><c>   3</c></rc>
    <rc><c>N </c><c>   3</c></rc>
    <rc><c>N </c><c>   3</c></rc>
    <rc><c>N </c><c>   3</c></rc>
    <rc><c>N </c><c>   3</c></rc>
    <rc><c>N </c><c>   3</c></rc>
    <rc><c>N </c><c>   3</c></rc>
    <rc><c>N </c><c>   3</c></rc>
    <rc><c>N </c><c>   3</c></rc>
    <rc><c>N </c><c>   3</c></rc>
    <rc><c>N </c><c>   3</c></rc>
    <rc><c>N </c><c>   3</c></rc>
    <rc><c>N </c><c>   3</c></rc>
    <rc><c>N </c><c>   3</c></rc>
    <rc><c>N </c><c>   3</c></rc>
    <rc><c>N </c><c>   3</c></rc>
    <rc><c>N </c><c>   3</c></rc>
    <rc><c>N </c><c>   3</c></rc>
    <rc><c>N </c><c>   3</c></rc>
    <rc><c>N </c><c>   3</c></rc>
    <rc><c>N </c><c>   3</c></rc>
    <rc><c>N </c><c>   3</c></rc>
    <rc><c>N </c><c>   3</c></rc>
    <rc><c>N </c><c>   3</c></rc>
    <rc><c>N </c><c>   3</c></rc>
    <rc><c>N </c><c>   3</c></rc>
    <rc><c>N </c><c>   3</c></rc>
    <rc><c>N </c><c>   3</c></rc>
    <rc><c>N </c><c>   3</c></rc>
    <rc><c>N </c><c>   3</c></rc>
    <rc><c>N </c><c>   3</c></rc>
    <rc><c>N </c><c>   3</c></rc>
    <rc><c>N </c><c>   3</c></rc>
    <rc><c>N </c><c>   3</c></rc>
    <rc><c>N </c><c>   3</c></rc>
    <rc><c>N </c><c>   3</c></rc>
    <rc><c>N </c><c>   3</c></rc>
    <rc><c>N </c><c>   3</c></rc>
    <rc><c>N </c><c>   3</c></rc>
    <rc><c>N </c><c>   3</c></rc>
    <rc><c>N </c><c>   3</c></rc>
    <rc><c>I </c><c>   4</c></rc>
    <rc><c>I </c><c>   4</c></rc>
    <rc><c>I </c><c>   4</c></rc>
    <rc><c>I </c><c>   4</c></rc>
    <rc><c>I </c><c>   4</c></rc>
    <rc><c>I </c><c>   4</c></rc>
    <rc><c>I </c><c>   4</c></rc>
    <rc><c>I </c><c>   4</c></rc>
    <rc><c>I </c><c>   4</c></rc>
    <rc><c>I </c><c>   4</c></rc>
    <rc><c>I </c><c>   4</c></rc>
    <rc><c>I </c><c>   4</c></rc>
    <rc><c>I </c><c>   4</c></rc>
    <rc><c>I </c><c>   4</c></rc>
    <rc><c>I </c><c>   4</c></rc>
    <rc><c>I </c><c>   4</c></rc>
    <rc><c>I </c><c>   4</c></rc>
    <rc><c>I </c><c>   4</c></rc>
    <rc><c>I </c><c>   4</c></rc>
    <rc><c>I </c><c>   4</c></rc>
    <rc><c>I </c><c>   4</c></rc>
    <rc><c>I </c><c>   4</c></rc>
    <rc><c>I </c><c>   4</c></rc>
    <rc><c>I </c><c>   4</c></rc>
    <rc><c>I </c><c>   4</c></rc>
    <rc><c>I </c><c>   4</c></rc>
    <rc><c>I </c><c>   4</c></rc>
    <rc><c>I </c><c>   4</c></rc>
    <rc><c>I </c><c>   4</c></rc>
    <rc><c>I </c><c>   4</c></rc>
    <rc><c>I </c><c>   4</c></rc>
    <rc><c>I </c><c>   4</c></rc>
    <rc><c>I </c><c>   4</c></rc>
    <rc><c>I </c><c>   4</c></rc>
    <rc><c>I </c><c>   4</c></rc>
    <rc><c>I </c><c>   4</c></rc>
    <rc><c>I </c><c>   4</c></rc>
    <rc><c>I </c><c>   4</c></rc>
    <rc><c>I </c><c>   4</c></rc>
    <rc><c>I </c><c>   4</c></rc>
    <rc><c>I </c><c>   4</c></rc>
    <rc><c>I </c><c>   4</c></rc>
    <rc><c>I </c><c>   4</c></rc>
    <rc><c>I </c><c>   4</c></rc>
    <rc><c>I </c><c>   4</c></rc>
    <rc><c>I </c><c>   4</c></rc>
    <rc><c>I </c><c>   4</c></rc>
    <rc><c>I </c><c>   4</c></rc>
    <rc><c>I </c><c>   4</c></rc>
    <rc><c>I </c><c>   4</c></rc>
    <rc><c>I </c><c>   4</c></rc>
    <rc><c>I </c><c>   4</c></rc>
    <rc><c>I </c><c>   4</c></rc>
    <rc><c>I </c><c>   4</c></rc>
    <rc><c>I </c><c>   4</c></rc>
    <rc><c>I </c><c>   4</c></rc>
    <rc><c>I </c><c>   4</c></rc>
    <rc><c>I </c><c>   4</c></rc>
    <rc><c>I </c><c>   4</c></rc>
    <rc><c>I </c><c>   4</c></rc>
    <rc><c>I </c><c>   4</c></rc>
    <rc><c>I </c><c>   4</c></rc>
    <rc><c>I </c><c>   4</c></rc>
    <rc><c>I </c><c>   4</c></rc>
    <rc><c>I </c><c>   4</c></rc>
    <rc><c>I </c><c>   4</c></rc>
    <rc><c>I </c><c>   4</c></rc>
    <rc><c>I </c><c>   4</c></rc>
    <rc><c>I </c><c>   4</c></rc>
    <rc><c>I </c><c>   4</c></rc>
    <rc><c>I </c><c>   4</c></rc>
    <rc><c>I </c><c>   4</c></rc>
    <rc><c>Pb</c><c>   5</c></rc>
    <rc><c>Pb</c><c>   5</c></rc>
    <rc><c>Pb</c><c>   5</c></rc>
    <rc><c>Pb</c><c>   5</c></rc>
    <rc><c>Pb</c><c>   5</c></rc>
    <rc><c>Pb</c><c>   5</c></rc>
    <rc><c>Pb</c><c>   5</c></rc>
    <rc><c>Pb</c><c>   5</c></rc>
    <rc><c>Pb</c><c>   5</c></rc>
    <rc><c>Pb</c><c>   5</c></rc>
    <rc><c>Pb</c><c>   5</c></rc>
    <rc><c>Pb</c><c>   5</c></rc>
    <rc><c>Pb</c><c>   5</c></rc>
    <rc><c>Pb</c><c>   5</c></rc>
    <rc><c>Pb</c><c>   5</c></rc>
    <rc><c>Pb</c><c>   5</c></rc>
    <rc><c>Pb</c><c>   5</c></rc>
    <rc><c>Pb</c><c>   5</c></rc>
    <rc><c>Pb</c><c>   5</c></rc>
    <rc><c>Pb</c><c>   5</c></rc>
    <rc><c>Pb</c><c>   5</c></rc>
    <rc><c>Pb</c><c>   5</c></rc>
    <rc><c>Pb</c><c>   5</c></rc>
    <rc><c>Pb</c><c>   5</c></rc>
   </set>
  </array>
  <array name="atomtypes" >
   <dimension dim="1">type</dimension>
   <field type="int">atomspertype</field>
   <field type="string">element</field>
   <field>mass</field>
   <field>valence</field>
   <field type="string">pseudopotential</field>
   <set>
    <rc><c> 143</c><c>H </c><c>      1.00000000</c><c>      1.00000000</c><c>  PAW_PBE H 15Jun2001                   </c></rc>
    <rc><c>  39</c><c>C </c><c>     12.01100000</c><c>      4.00000000</c><c>  PAW_PBE C 08Apr2002                   </c></rc>
    <rc><c>  47</c><c>N </c><c>     14.00100000</c><c>      5.00000000</c><c>  PAW_PBE N 08Apr2002                   </c></rc>
    <rc><c>  72</c><c>I </c><c>    126.90400000</c><c>      7.00000000</c><c>  PAW_PBE I 08Apr2002                   </c></rc>
    <rc><c>  24</c><c>Pb</c><c>    207.20000000</c><c>      4.00000000</c><c>  PAW_PBE Pb 08Apr2002                  </c></rc>
   </set>
  </array>
 </atominfo>
 <structure name="initialpos" >
  <crystal>
   <varray name="basis" >
    <v>      18.06080055       0.00000000       0.00000000 </v>
    <v>      -0.00491865      18.06279945       0.00000000 </v>
    <v>       0.00000000       0.00000000      62.48749924 </v>
   </varray>
   <i name="volume">  20385.21054034 </i>
   <varray name="rec_basis" >
    <v>       0.05536853       0.00001508      -0.00000000 </v>
    <v>       0.00000000       0.05536240       0.00000000 </v>
    <v>       0.00000000      -0.00000000       0.01600320 </v>
   </varray>
  </crystal>
  <varray name="positions" >
   <v>       0.46723525       0.32847967       0.57296024 </v>
   <v>       0.45096049       0.83951225       0.57407863 </v>
   <v>       0.91935061       0.24041656       0.58120194 </v>
   <v>       0.94139967       0.81042800       0.57767346 </v>
   <v>       0.31340729       0.06748971       0.57234971 </v>
   <v>       0.32906777       0.57052796       0.57382302 </v>
   <v>       0.79328457       0.08279544       0.57613715 </v>
   <v>       0.10447525       0.24682604       0.55836382 </v>
   <v>       0.09189191       0.67749294       0.57012355 </v>
   <v>       0.56047601       0.16112074       0.55774907 </v>
   <v>       0.49298455       0.64750680       0.56401357 </v>
   <v>       0.36543987       0.00433430       0.55761947 </v>
   <v>       0.27637576       0.63042273       0.55783142 </v>
   <v>       0.86629410       0.02719908       0.56613643 </v>
   <v>       0.05667998       0.23895029       0.58225458 </v>
   <v>       0.01477199       0.69370284       0.58607834 </v>
   <v>       0.57256007       0.24419904       0.57165578 </v>
   <v>       0.45678483       0.70573364       0.58378113 </v>
   <v>       0.28485154       0.43902517       0.57636589 </v>
   <v>       0.17595752       0.05236448       0.57111289 </v>
   <v>       0.66720754       0.02769317       0.57398510 </v>
   <v>       0.38524764       0.29786991       0.56052593 </v>
   <v>       0.49748455       0.86902363       0.55094858 </v>
   <v>       0.87814935       0.23567482       0.55630798 </v>
   <v>       0.98204036       0.86788378       0.55849714 </v>
   <v>       0.20247336       0.41835585       0.56283816 </v>
   <v>       0.14055358       0.98246276       0.55497447 </v>
   <v>       0.66285235       0.93809059       0.56264824 </v>
   <v>       0.43940575       0.18742598       0.54945951 </v>
   <v>       0.52845855       0.74558477       0.54196063 </v>
   <v>       0.99402669       0.24560995       0.53831702 </v>
   <v>       0.07714540       0.78544328       0.55066641 </v>
   <v>       0.18955762       0.53816677       0.54924548 </v>
   <v>       0.26044628       0.94027497       0.54522270 </v>
   <v>       0.78764991       0.93215330       0.55579922 </v>
   <v>       0.46640292       0.31047837       0.67349860 </v>
   <v>       0.44077817       0.80904866       0.67335575 </v>
   <v>       0.95204220       0.27758474       0.67731736 </v>
   <v>       0.92244926       0.76137350       0.67412873 </v>
   <v>       0.30744098       0.05336651       0.67241263 </v>
   <v>       0.29281952       0.54420408       0.67719013 </v>
   <v>       0.79037649       0.05476873       0.67430290 </v>
   <v>       0.84723821       0.48251747       0.66572812 </v>
   <v>       0.09060955       0.17338911       0.64640260 </v>
   <v>       0.09996039       0.69718326       0.65254440 </v>
   <v>       0.57890448       0.16727092       0.64803013 </v>
   <v>       0.57457425       0.67206101       0.65399848 </v>
   <v>       0.18221991       0.40951292       0.64711045 </v>
   <v>       0.17314679       0.92316494       0.64908393 </v>
   <v>       0.64735179       0.48164076       0.65987930 </v>
   <v>       0.67668648       0.91065266       0.64916481 </v>
   <v>       0.05900600       0.18378004       0.67272879 </v>
   <v>       0.03812465       0.67883944       0.67358590 </v>
   <v>       0.57013479       0.21294325       0.67232393 </v>
   <v>       0.53612728       0.70379079       0.67778193 </v>
   <v>       0.20266337       0.43443621       0.67359041 </v>
   <v>       0.20286014       0.95546373       0.67411335 </v>
   <v>       0.72004894       0.43172618       0.67178921 </v>
   <v>       0.69890220       0.94476678       0.67451540 </v>
   <v>       0.41604982       0.32014518       0.64996374 </v>
   <v>       0.42459466       0.83497508       0.64675576 </v>
   <v>       0.92511368       0.32055933       0.65348843 </v>
   <v>       0.91794572       0.82607418       0.65362744 </v>
   <v>       0.33636646       0.07554652       0.64639265 </v>
   <v>       0.31975862       0.58307782       0.65288663 </v>
   <v>       0.82217765       0.08078672       0.64890542 </v>
   <v>       0.85526070       0.55519688       0.64771158 </v>
   <v>       0.00973821       0.25928738       0.63245847 </v>
   <v>       0.02815782       0.79210007       0.63837671 </v>
   <v>       0.48403302       0.23001219       0.63180184 </v>
   <v>       0.50707747       0.75191595       0.63262666 </v>
   <v>       0.25532096       0.99603285       0.62994729 </v>
   <v>       0.25278470       0.50196867       0.63217832 </v>
   <v>       0.75356030       0.99259690       0.63116085 </v>
   <v>       0.72640491       0.56166703       0.64178370 </v>
   <v>       0.44874502       0.30128397       0.76888902 </v>
   <v>       0.44874501       0.80128391       0.76888902 </v>
   <v>       0.94874497       0.30128397       0.76888902 </v>
   <v>       0.94874501       0.80128391       0.76888902 </v>
   <v>       0.30127600       0.05129450       0.76887296 </v>
   <v>       0.30127601       0.55129450       0.76887296 </v>
   <v>       0.80127594       0.05129450       0.76887296 </v>
   <v>       0.80127598       0.55129450       0.76887296 </v>
   <v>       0.07877100       0.17118050       0.74344197 </v>
   <v>       0.07877101       0.67118045       0.74344197 </v>
   <v>       0.57877100       0.17118050       0.74344197 </v>
   <v>       0.57877099       0.67118045       0.74344197 </v>
   <v>       0.17119950       0.42117448       0.74342103 </v>
   <v>       0.17119950       0.92117451       0.74342103 </v>
   <v>       0.67119951       0.42117448       0.74342103 </v>
   <v>       0.67119950       0.92117451       0.74342103 </v>
   <v>       0.05125600       0.19871499       0.76888902 </v>
   <v>       0.05125600       0.69871493       0.76888902 </v>
   <v>       0.55125603       0.19871499       0.76888902 </v>
   <v>       0.55125602       0.69871493       0.76888902 </v>
   <v>       0.19872349       0.44870397       0.76887205 </v>
   <v>       0.19872349       0.94870397       0.76887205 </v>
   <v>       0.69872352       0.44870397       0.76887205 </v>
   <v>       0.69872351       0.94870397       0.76887205 </v>
   <v>       0.42123152       0.32881747       0.74344197 </v>
   <v>       0.42123151       0.82881744       0.74344197 </v>
   <v>       0.92123147       0.32881747       0.74344197 </v>
   <v>       0.92123151       0.82881744       0.74344197 </v>
   <v>       0.32880050       0.07882500       0.74342103 </v>
   <v>       0.32880049       0.57882496       0.74342103 </v>
   <v>       0.82880048       0.07882500       0.74342103 </v>
   <v>       0.82880052       0.57882496       0.74342103 </v>
   <v>       0.00000350       0.25000148       0.72582199 </v>
   <v>       0.00000350       0.75000145       0.72582199 </v>
   <v>       0.50000351       0.25000148       0.72582199 </v>
   <v>       0.50000350       0.75000145       0.72582199 </v>
   <v>       0.25000050       0.00000000       0.72580398 </v>
   <v>       0.25000052       0.50000000       0.72580398 </v>
   <v>       0.75000050       0.00000000       0.72580398 </v>
   <v>       0.75000049       0.50000000       0.72580398 </v>
   <v>       0.71868821       0.43820699       0.54180130 </v>
   <v>       0.73529666       0.49554926       0.51914046 </v>
   <v>       0.65624878       0.55401796       0.55989818 </v>
   <v>       0.70960789       0.63609901       0.55776476 </v>
   <v>       0.84783174       0.50216523       0.57138949 </v>
   <v>       0.78561276       0.57164500       0.58084921 </v>
   <v>       0.86728836       0.56087459       0.53061315 </v>
   <v>       0.79438186       0.62482845       0.52650649 </v>
   <v>       0.86650119       0.46305264       0.51884511 </v>
   <v>       0.86452789       0.42241816       0.54444941 </v>
   <v>       0.87108704       0.32546721       0.51856594 </v>
   <v>       0.78342657       0.32223626       0.53064062 </v>
   <v>       0.63764483       0.55113869       0.52031617 </v>
   <v>       0.68874395       0.63573656       0.51766195 </v>
   <v>       0.60668440       0.63230455       0.53280676 </v>
   <v>       0.75225275       0.45724965       0.59789034 </v>
   <v>       0.75134594       0.40680044       0.57401172 </v>
   <v>       0.67996027       0.47202339       0.57959633 </v>
   <v>       0.82137083       0.68732625       0.56075895 </v>
   <v>       0.90017400       0.68037707       0.54445118 </v>
   <v>       0.89243018       0.62076973       0.56643617 </v>
   <v>       0.81797732       0.38453620       0.48560454 </v>
   <v>       0.78255421       0.29666633       0.49178119 </v>
   <v>       0.66188506       0.31602696       0.52105624 </v>
   <v>       0.72853271       0.46151148       0.46977960 </v>
   <v>       0.53668147       0.37325980       0.52087237 </v>
   <v>       0.60294872       0.51737726       0.46929934 </v>
   <v>       0.50764856       0.47239018       0.49511755 </v>
   <v>       0.99186640       0.24332835       0.55578847 </v>
   <v>       0.03613744       0.77035977       0.56274653 </v>
   <v>       0.47199619       0.22924620       0.55788179 </v>
   <v>       0.49942252       0.75666378       0.55676431 </v>
   <v>       0.23774112       0.52481017       0.55921274 </v>
   <v>       0.25362311       0.98940472       0.55535076 </v>
   <v>       0.76472958       0.98197251       0.56344167 </v>
   <v>       0.00798502       0.24682021       0.64976900 </v>
   <v>       0.00918662       0.76219983       0.65274109 </v>
   <v>       0.49794047       0.24378999       0.64848401 </v>
   <v>       0.49973088       0.75333367       0.65011550 </v>
   <v>       0.25118475       0.49596631       0.64976180 </v>
   <v>       0.25445634       0.99907991       0.64762019 </v>
   <v>       0.74956424       0.51906076       0.65273871 </v>
   <v>       0.74921773       0.99510072       0.64876904 </v>
   <v>       0.49998898       0.24999498       0.74327702 </v>
   <v>       0.49998903       0.74999496       0.74327702 </v>
   <v>       0.99998898       0.24999498       0.74327702 </v>
   <v>       0.99998903       0.74999496       0.74327702 </v>
   <v>       0.25000050       0.00000100       0.74325596 </v>
   <v>       0.25000052       0.50000100       0.74325596 </v>
   <v>       0.75000050       0.00000100       0.74325596 </v>
   <v>       0.75000049       0.50000100       0.74325596 </v>
   <v>       0.70443061       0.38465352       0.49548014 </v>
   <v>       0.64961554       0.35955647       0.50947565 </v>
   <v>       0.68701124       0.44141847       0.48078656 </v>
   <v>       0.57862421       0.39145101       0.50942339 </v>
   <v>       0.61654854       0.47317486       0.48044613 </v>
   <v>       0.56169388       0.44791628       0.49495718 </v>
   <v>       0.75966821       0.47447659       0.53416684 </v>
   <v>       0.69462130       0.58436941       0.54976615 </v>
   <v>       0.78935736       0.52040552       0.57140695 </v>
   <v>       0.82516208       0.59431665       0.53861090 </v>
   <v>       0.83152196       0.43128131       0.52979725 </v>
   <v>       0.81736285       0.35470627       0.51946675 </v>
   <v>       0.65639282       0.60090903       0.52863650 </v>
   <v>       0.73968195       0.46144627       0.58083908 </v>
   <v>       0.86081413       0.64799740       0.55387403 </v>
   <v>       0.78265846       0.35470077       0.49690557 </v>
   <v>       0.05501953       0.24054773       0.56604223 </v>
   <v>       0.04793000       0.70968418       0.57360246 </v>
   <v>       0.54128456       0.21233008       0.56174785 </v>
   <v>       0.48571155       0.70082493       0.56964549 </v>
   <v>       0.44086527       0.29164754       0.56329327 </v>
   <v>       0.48032940       0.82610570       0.56065205 </v>
   <v>       0.92600868       0.24416187       0.56488447 </v>
   <v>       0.97972402       0.81571173       0.56528097 </v>
   <v>       0.24260248       0.45688872       0.56647512 </v>
   <v>       0.18622324       0.00901531       0.56064247 </v>
   <v>       0.69262654       0.98524315       0.56588699 </v>
   <v>       0.31370821       0.02402626       0.56165433 </v>
   <v>       0.28585057       0.57750476       0.56320219 </v>
   <v>       0.81107695       0.03416931       0.56902806 </v>
   <v>       0.05510578       0.19831360       0.65694158 </v>
   <v>       0.05085647       0.70930567       0.66026194 </v>
   <v>       0.55205848       0.20667343       0.65702246 </v>
   <v>       0.53912913       0.70697998       0.66172262 </v>
   <v>       0.20995107       0.44268688       0.65762940 </v>
   <v>       0.20762378       0.95753908       0.65795460 </v>
   <v>       0.70322029       0.47282925       0.66168722 </v>
   <v>       0.70609861       0.94797643       0.65847625 </v>
   <v>       0.45802982       0.29523388       0.65818426 </v>
   <v>       0.45186695       0.80238321       0.65757201 </v>
   <v>       0.95905103       0.28299598       0.66108901 </v>
   <v>       0.94675189       0.78503563       0.66113706 </v>
   <v>       0.30254659       0.04579754       0.65640448 </v>
   <v>       0.29108463       0.54421084       0.66096576 </v>
   <v>       0.78995570       0.04718779       0.65824427 </v>
   <v>       0.82204523       0.51860802       0.65570653 </v>
   <v>       0.04586250       0.20411950       0.75272599 </v>
   <v>       0.04586250       0.70411946       0.75272599 </v>
   <v>       0.54586251       0.20411950       0.75272599 </v>
   <v>       0.54586250       0.70411946       0.75272599 </v>
   <v>       0.20411900       0.45410100       0.75270499 </v>
   <v>       0.20411899       0.95410095       0.75270499 </v>
   <v>       0.70411898       0.45410100       0.75270499 </v>
   <v>       0.70411896       0.95410095       0.75270499 </v>
   <v>       0.45414002       0.29588849       0.75272697 </v>
   <v>       0.45414001       0.79588852       0.75272697 </v>
   <v>       0.95414002       0.29588849       0.75272697 </v>
[...]
   <v>       0.56047601       0.16112074       0.55774907 </v>
   <v>       0.49298455       0.64750680       0.56401357 </v>
   <v>       0.36543987       0.00433430       0.55761947 </v>
   <v>       0.27637576       0.63042273       0.55783142 </v>
   <v>       0.86629410       0.02719908       0.56613643 </v>
   <v>       0.05667998       0.23895029       0.58225458 </v>
   <v>       0.01477199       0.69370284       0.58607834 </v>
   <v>       0.57256007       0.24419904       0.57165578 </v>
   <v>       0.45678483       0.70573364       0.58378113 </v>
   <v>       0.28485154       0.43902517       0.57636589 </v>
   <v>       0.17595752       0.05236448       0.57111289 </v>
   <v>       0.66720754       0.02769317       0.57398510 </v>
   <v>       0.38524764       0.29786991       0.56052593 </v>
   <v>       0.49748455       0.86902363       0.55094858 </v>
   <v>       0.87814935       0.23567482       0.55630798 </v>
   <v>       0.98204036       0.86788378       0.55849714 </v>
   <v>       0.20247336       0.41835585       0.56283816 </v>
   <v>       0.14055358       0.98246276       0.55497447 </v>
   <v>       0.66285235       0.93809059       0.56264824 </v>
   <v>       0.43940575       0.18742598       0.54945951 </v>
   <v>       0.52845855       0.74558477       0.54196063 </v>
   <v>       0.99402669       0.24560995       0.53831702 </v>
   <v>       0.07714540       0.78544328       0.55066641 </v>
   <v>       0.18955762       0.53816677       0.54924548 </v>
   <v>       0.26044628       0.94027497       0.54522270 </v>
   <v>       0.78764991       0.93215330       0.55579922 </v>
   <v>       0.46640292       0.31047837       0.67349860 </v>
   <v>       0.44077817       0.80904866       0.67335575 </v>
   <v>       0.95204220       0.27758474       0.67731736 </v>
   <v>       0.92244926       0.76137350       0.67412873 </v>
   <v>       0.30744098       0.05336651       0.67241263 </v>
   <v>       0.29281952       0.54420408       0.67719013 </v>
   <v>       0.79037649       0.05476873       0.67430290 </v>
   <v>       0.84723821       0.48251747       0.66572812 </v>
   <v>       0.09060955       0.17338911       0.64640260 </v>
   <v>       0.09996039       0.69718326       0.65254440 </v>
   <v>       0.57890448       0.16727092       0.64803013 </v>
   <v>       0.57457425       0.67206101       0.65399848 </v>
   <v>       0.18221991       0.40951292       0.64711045 </v>
   <v>       0.17314679       0.92316494       0.64908393 </v>
   <v>       0.64735179       0.48164076       0.65987930 </v>
   <v>       0.67668648       0.91065266       0.64916481 </v>
   <v>       0.05900600       0.18378004       0.67272879 </v>
   <v>       0.03812465       0.67883944       0.67358590 </v>
   <v>       0.57013479       0.21294325       0.67232393 </v>
   <v>       0.53612728       0.70379079       0.67778193 </v>
   <v>       0.20266337       0.43443621       0.67359041 </v>
   <v>       0.20286014       0.95546373       0.67411335 </v>
   <v>       0.72004894       0.43172618       0.67178921 </v>
   <v>       0.69890220       0.94476678       0.67451540 </v>
   <v>       0.41604982       0.32014518       0.64996374 </v>
   <v>       0.42459466       0.83497508       0.64675576 </v>
   <v>       0.92511368       0.32055933       0.65348843 </v>
   <v>       0.91794572       0.82607418       0.65362744 </v>
   <v>       0.33636646       0.07554652       0.64639265 </v>
   <v>       0.31975862       0.58307782       0.65288663 </v>
   <v>       0.82217765       0.08078672       0.64890542 </v>
   <v>       0.85526070       0.55519688       0.64771158 </v>
   <v>       0.00973821       0.25928738       0.63245847 </v>
   <v>       0.02815782       0.79210007       0.63837671 </v>
   <v>       0.48403302       0.23001219       0.63180184 </v>
   <v>       0.50707747       0.75191595       0.63262666 </v>
   <v>       0.25532096       0.99603285       0.62994729 </v>
   <v>       0.25278470       0.50196867       0.63217832 </v>
   <v>       0.75356030       0.99259690       0.63116085 </v>
   <v>       0.72640491       0.56166703       0.64178370 </v>
   <v>       0.44874502       0.30128397       0.76888902 </v>
   <v>       0.44874501       0.80128391       0.76888902 </v>
   <v>       0.94874497       0.30128397       0.76888902 </v>
   <v>       0.94874501       0.80128391       0.76888902 </v>
   <v>       0.30127600       0.05129450       0.76887296 </v>
   <v>       0.30127601       0.55129450       0.76887296 </v>
   <v>       0.80127594       0.05129450       0.76887296 </v>
   <v>       0.80127598       0.55129450       0.76887296 </v>
   <v>       0.07877100       0.17118050       0.74344197 </v>
   <v>       0.07877101       0.67118045       0.74344197 </v>
   <v>       0.57877100       0.17118050       0.74344197 </v>
   <v>       0.57877099       0.67118045       0.74344197 </v>
   <v>       0.17119950       0.42117448       0.74342103 </v>
   <v>       0.17119950       0.92117451       0.74342103 </v>
   <v>       0.67119951       0.42117448       0.74342103 </v>
   <v>       0.67119950       0.92117451       0.74342103 </v>
   <v>       0.05125600       0.19871499       0.76888902 </v>
   <v>       0.05125600       0.69871493       0.76888902 </v>
   <v>       0.55125603       0.19871499       0.76888902 </v>
   <v>       0.55125602       0.69871493       0.76888902 </v>
   <v>       0.19872349       0.44870397       0.76887205 </v>
   <v>       0.19872349       0.94870397       0.76887205 </v>
   <v>       0.69872352       0.44870397       0.76887205 </v>
   <v>       0.69872351       0.94870397       0.76887205 </v>
   <v>       0.42123152       0.32881747       0.74344197 </v>
   <v>       0.42123151       0.82881744       0.74344197 </v>
   <v>       0.92123147       0.32881747       0.74344197 </v>
   <v>       0.92123151       0.82881744       0.74344197 </v>
   <v>       0.32880050       0.07882500       0.74342103 </v>
   <v>       0.32880049       0.57882496       0.74342103 </v>
   <v>       0.82880048       0.07882500       0.74342103 </v>
   <v>       0.82880052       0.57882496       0.74342103 </v>
   <v>       0.00000350       0.25000148       0.72582199 </v>
   <v>       0.00000350       0.75000145       0.72582199 </v>
   <v>       0.50000351       0.25000148       0.72582199 </v>
   <v>       0.50000350       0.75000145       0.72582199 </v>
   <v>       0.25000050       0.00000000       0.72580398 </v>
   <v>       0.25000052       0.50000000       0.72580398 </v>
   <v>       0.75000050       0.00000000       0.72580398 </v>
   <v>       0.75000049       0.50000000       0.72580398 </v>
   <v>       0.71868821       0.43820699       0.54180130 </v>
   <v>       0.73529666       0.49554926       0.51914046 </v>
   <v>       0.65624878       0.55401796       0.55989818 </v>
   <v>       0.70960789       0.63609901       0.55776476 </v>
   <v>       0.84783174       0.50216523       0.57138949 </v>
   <v>       0.78561276       0.57164500       0.58084921 </v>
   <v>       0.86728836       0.56087459       0.53061315 </v>
   <v>       0.79438186       0.62482845       0.52650649 </v>
   <v>       0.86650119       0.46305264       0.51884511 </v>
   <v>       0.86452789       0.42241816       0.54444941 </v>
   <v>       0.87108704       0.32546721       0.51856594 </v>
   <v>       0.78342657       0.32223626       0.53064062 </v>
   <v>       0.63764483       0.55113869       0.52031617 </v>
   <v>       0.68874395       0.63573656       0.51766195 </v>
   <v>       0.60668440       0.63230455       0.53280676 </v>
   <v>       0.75225275       0.45724965       0.59789034 </v>
   <v>       0.75134594       0.40680044       0.57401172 </v>
   <v>       0.67996027       0.47202339       0.57959633 </v>
   <v>       0.82137083       0.68732625       0.56075895 </v>
   <v>       0.90017400       0.68037707       0.54445118 </v>
   <v>       0.89243018       0.62076973       0.56643617 </v>
   <v>       0.81797732       0.38453620       0.48560454 </v>
   <v>       0.78255421       0.29666633       0.49178119 </v>
   <v>       0.66188506       0.31602696       0.52105624 </v>
   <v>       0.72853271       0.46151148       0.46977960 </v>
   <v>       0.53668147       0.37325980       0.52087237 </v>
   <v>       0.60294872       0.51737726       0.46929934 </v>
   <v>       0.50764856       0.47239018       0.49511755 </v>
   <v>       0.99186640       0.24332835       0.55578847 </v>
   <v>       0.03613744       0.77035977       0.56274653 </v>
   <v>       0.47199619       0.22924620       0.55788179 </v>
   <v>       0.49942252       0.75666378       0.55676431 </v>
   <v>       0.23774112       0.52481017       0.55921274 </v>
   <v>       0.25362311       0.98940472       0.55535076 </v>
   <v>       0.76472958       0.98197251       0.56344167 </v>
   <v>       0.00798502       0.24682021       0.64976900 </v>
   <v>       0.00918662       0.76219983       0.65274109 </v>
   <v>       0.49794047       0.24378999       0.64848401 </v>
   <v>       0.49973088       0.75333367       0.65011550 </v>
   <v>       0.25118475       0.49596631       0.64976180 </v>
   <v>       0.25445634       0.99907991       0.64762019 </v>
   <v>       0.74956424       0.51906076       0.65273871 </v>
   <v>       0.74921773       0.99510072       0.64876904 </v>
   <v>       0.49998898       0.24999498       0.74327702 </v>
   <v>       0.49998903       0.74999496       0.74327702 </v>
   <v>       0.99998898       0.24999498       0.74327702 </v>
   <v>       0.99998903       0.74999496       0.74327702 </v>
   <v>       0.25000050       0.00000100       0.74325596 </v>
   <v>       0.25000052       0.50000100       0.74325596 </v>
   <v>       0.75000050       0.00000100       0.74325596 </v>
   <v>       0.75000049       0.50000100       0.74325596 </v>
   <v>       0.70443061       0.38465352       0.49548014 </v>
   <v>       0.64961554       0.35955647       0.50947565 </v>
   <v>       0.68701124       0.44141847       0.48078656 </v>
   <v>       0.57862421       0.39145101       0.50942339 </v>
   <v>       0.61654854       0.47317486       0.48044613 </v>
   <v>       0.56169388       0.44791628       0.49495718 </v>
   <v>       0.75966821       0.47447659       0.53416684 </v>
   <v>       0.69462130       0.58436941       0.54976615 </v>
   <v>       0.78935736       0.52040552       0.57140695 </v>
   <v>       0.82516208       0.59431665       0.53861090 </v>
   <v>       0.83152196       0.43128131       0.52979725 </v>
   <v>       0.81736285       0.35470627       0.51946675 </v>
   <v>       0.65639282       0.60090903       0.52863650 </v>
   <v>       0.73968195       0.46144627       0.58083908 </v>
   <v>       0.86081413       0.64799740       0.55387403 </v>
   <v>       0.78265846       0.35470077       0.49690557 </v>
   <v>       0.05501953       0.24054773       0.56604223 </v>
   <v>       0.04793000       0.70968418       0.57360246 </v>
   <v>       0.54128456       0.21233008       0.56174785 </v>
   <v>       0.48571155       0.70082493       0.56964549 </v>
   <v>       0.44086527       0.29164754       0.56329327 </v>
   <v>       0.48032940       0.82610570       0.56065205 </v>
   <v>       0.92600868       0.24416187       0.56488447 </v>
   <v>       0.97972402       0.81571173       0.56528097 </v>
   <v>       0.24260248       0.45688872       0.56647512 </v>
   <v>       0.18622324       0.00901531       0.56064247 </v>
   <v>       0.69262654       0.98524315       0.56588699 </v>
   <v>       0.31370821       0.02402626       0.56165433 </v>
   <v>       0.28585057       0.57750476       0.56320219 </v>
   <v>       0.81107695       0.03416931       0.56902806 </v>
   <v>       0.05510578       0.19831360       0.65694158 </v>
   <v>       0.05085647       0.70930567       0.66026194 </v>
   <v>       0.55205848       0.20667343       0.65702246 </v>
   <v>       0.53912913       0.70697998       0.66172262 </v>
   <v>       0.20995107       0.44268688       0.65762940 </v>
   <v>       0.20762378       0.95753908       0.65795460 </v>
   <v>       0.70322029       0.47282925       0.66168722 </v>
   <v>       0.70609861       0.94797643       0.65847625 </v>
   <v>       0.45802982       0.29523388       0.65818426 </v>
   <v>       0.45186695       0.80238321       0.65757201 </v>
   <v>       0.95905103       0.28299598       0.66108901 </v>
   <v>       0.94675189       0.78503563       0.66113706 </v>
   <v>       0.30254659       0.04579754       0.65640448 </v>
   <v>       0.29108463       0.54421084       0.66096576 </v>
   <v>       0.78995570       0.04718779       0.65824427 </v>
   <v>       0.82204523       0.51860802       0.65570653 </v>
   <v>       0.04586250       0.20411950       0.75272599 </v>
   <v>       0.04586250       0.70411946       0.75272599 </v>
   <v>       0.54586251       0.20411950       0.75272599 </v>
   <v>       0.54586250       0.70411946       0.75272599 </v>
   <v>       0.20411900       0.45410100       0.75270499 </v>
   <v>       0.20411899       0.95410095       0.75270499 </v>
   <v>       0.70411898       0.45410100       0.75270499 </v>
   <v>       0.70411896       0.95410095       0.75270499 </v>
   <v>       0.45414002       0.29588849       0.75272697 </v>
   <v>       0.45414001       0.79588852       0.75272697 </v>
   <v>       0.95414002       0.29588849       0.75272697 </v>
   <v>       0.95414006       0.79588852       0.75272697 </v>
   <v>       0.29588249       0.04590050       0.75270499 </v>
   <v>       0.29588248       0.54590053       0.75270499 </v>
   <v>       0.79588244       0.04590050       0.75270499 </v>
   <v>       0.79588248       0.54590053       0.75270499 </v>
   <v>       0.76756922       0.54203753       0.54854960 </v>
   <v>       0.50647063       0.01814559       0.55233398 </v>
   <v>       0.48249692       0.51121159       0.55510071 </v>
   <v>       0.99462598       0.00563692       0.55177711 </v>
   <v>       0.03372914       0.50696713       0.55454701 </v>
   <v>       0.24957966       0.24829762       0.55367611 </v>
   <v>       0.23979087       0.76601357       0.55275411 </v>
   <v>       0.73559638       0.21153838       0.55622771 </v>
   <v>       0.70290873       0.79402053       0.55214046 </v>
   <v>       0.00212939       0.99500135       0.65438479 </v>
   <v>       0.01685040       0.49339886       0.65550190 </v>
   <v>       0.50268790       0.00169660       0.65449407 </v>
   <v>       0.50332521       0.49486595       0.65524647 </v>
   <v>       0.25768622       0.24516943       0.65488117 </v>
   <v>       0.25089640       0.75482051       0.65448875 </v>
   <v>       0.74753972       0.26339924       0.65538151 </v>
   <v>       0.74924759       0.74226057       0.65395184 </v>
   <v>       0.13659274       0.11618851       0.60707027 </v>
   <v>       0.14863634       0.61083811       0.61089056 </v>
   <v>       0.64201558       0.11309636       0.61063794 </v>
   <v>       0.62458673       0.62425570       0.61255434 </v>
   <v>       0.36148528       0.39008540       0.60876861 </v>
   <v>       0.37391710       0.88126129       0.60575098 </v>
   <v>       0.88599981       0.37044230       0.61186628 </v>
   <v>       0.86776229       0.88045739       0.60939905 </v>
   <v>       0.11895198       0.36502346       0.60875726 </v>
   <v>       0.12136508       0.87528486       0.60781670 </v>
   <v>       0.59219026       0.34751432       0.60334999 </v>
   <v>       0.61239078       0.86537874       0.61026702 </v>
   <v>       0.38297982       0.13245364       0.60619321 </v>
   <v>       0.38036156       0.63364545       0.61245551 </v>
   <v>       0.88666940       0.14179290       0.61296452 </v>
   <v>       0.90936434       0.64814523       0.61658280 </v>
   <v>       0.00000000       0.00000000       0.75492797 </v>
   <v>       0.00000000       0.50000000       0.75492797 </v>
   <v>       0.50000000       0.00000000       0.75492797 </v>
   <v>       0.49999999       0.50000000       0.75492797 </v>
   <v>       0.25000050       0.25000000       0.75493902 </v>
   <v>       0.25000051       0.74999997       0.75493902 </v>
   <v>       0.75000047       0.25000000       0.75493902 </v>
   <v>       0.75000046       0.74999997       0.75493902 </v>
   <v>       0.13579050       0.11421000       0.70478299 </v>
   <v>       0.13579050       0.61420998       0.70478299 </v>
   <v>       0.63579045       0.11421000       0.70478299 </v>
   <v>       0.63579049       0.61420998       0.70478299 </v>
   <v>       0.36420952       0.38578999       0.70478299 </v>
   <v>       0.36420950       0.88578996       0.70478299 </v>
   <v>       0.86420954       0.38578999       0.70478299 </v>
   <v>       0.86420953       0.88578996       0.70478299 </v>
   <v>       0.11421799       0.36421899       0.70478098 </v>
   <v>       0.11421799       0.86421899       0.70478098 </v>
   <v>       0.61421800       0.36421899       0.70478098 </v>
   <v>       0.61421799       0.86421899       0.70478098 </v>
   <v>       0.38578201       0.13578149       0.70478202 </v>
   <v>       0.38578200       0.63578149       0.70478202 </v>
   <v>       0.88578199       0.13578149       0.70478202 </v>
   <v>       0.88578203       0.63578149       0.70478202 </v>
   <v>       0.13466700       0.11533200       0.80125603 </v>
   <v>       0.13466699       0.61533199       0.80125603 </v>
   <v>       0.63466699       0.11533200       0.80125603 </v>
   <v>       0.63466698       0.61533199       0.80125603 </v>
   <v>       0.36533300       0.38466799       0.80125603 </v>
   <v>       0.36533299       0.88466796       0.80125603 </v>
   <v>       0.86533295       0.38466799       0.80125603 </v>
   <v>       0.86533294       0.88466796       0.80125603 </v>
   <v>       0.11532850       0.36533700       0.80126500 </v>
   <v>       0.11532850       0.86533698       0.80126500 </v>
   <v>       0.61532850       0.36533700       0.80126500 </v>
   <v>       0.61532849       0.86533698       0.80126500 </v>
   <v>       0.38467151       0.13466300       0.80126500 </v>
   <v>       0.38467150       0.63466297       0.80126500 </v>
   <v>       0.88467149       0.13466300       0.80126500 </v>
   <v>       0.88467153       0.63466297       0.80126500 </v>
   <v>       0.99712191       0.00309171       0.60502482 </v>
   <v>       0.00644871       0.50686645       0.60447430 </v>
   <v>       0.50307279       0.00638731       0.60482697 </v>
   <v>       0.49844806       0.50260842       0.60476195 </v>
   <v>       0.25000177       0.25400843       0.60502800 </v>
   <v>       0.24656715       0.75458461       0.60370919 </v>
   <v>       0.74651252       0.25750976       0.60560862 </v>
   <v>       0.73942406       0.75676753       0.60194968 </v>
   <v>       0.00000050       0.00000050       0.70482896 </v>
   <v>       0.00000050       0.50000048       0.70482896 </v>
   <v>       0.50000048       0.00000050       0.70482896 </v>
   <v>       0.50000046       0.50000048       0.70482896 </v>
   <v>       0.24999999       0.24999947       0.70482499 </v>
   <v>       0.25000001       0.74999950       0.70482499 </v>
   <v>       0.74999999       0.24999947       0.70482499 </v>
   <v>       0.74999998       0.74999950       0.70482499 </v>
   <v>       0.00000000       0.00000000       0.80731797 </v>
   <v>       0.00000000       0.50000000       0.80731797 </v>
   <v>       0.50000000       0.00000000       0.80731797 </v>
   <v>       0.49999999       0.50000000       0.80731797 </v>
   <v>       0.24999999       0.25000000       0.80731797 </v>
   <v>       0.25000001       0.74999997       0.80731797 </v>
   <v>       0.74999999       0.25000000       0.80731797 </v>
   <v>       0.74999998       0.74999997       0.80731797 </v>
  </varray>
 </structure>
</modeling>
