 vasp.6.2.1 16May21 (build Nov 15 2021 14:57:28) complex                         
 executed on             LinuxPGI date 2023.07.30  09:55:08
 running on    4 total cores
 distrk:  each k-point on    4 cores,    1 groups
 distr:  one band on NCORE=   1 cores,    4 groups


--------------------------------------------------------------------------------------------------------


 INCAR:
   SYSTEM = PSC
   ISTART = 1
   ICHARG = 1
   PREC = Normal
   ENCUT = 500
   GGA_COMPAT = F
   NELM = 600
   ISYM = 0
   LREAL = Auto
   ISMEAR = 0
   SIGMA = 0.05
   AMIN = 0.01
   BMIX = 0.01
   LVTOT = T
   LWAVE = F
   LDIPOL = T
   IDIPOL = 3
   LVDW = T
   IVDW = 12

 POTCAR:    PAW_PBE H 15Jun2001                   
 POTCAR:    PAW_PBE C 08Apr2002                   
 POTCAR:    PAW_PBE N 08Apr2002                   
 POTCAR:    PAW_PBE I 08Apr2002                   
 POTCAR:    PAW_PBE Pb 08Apr2002                  
 WARNING: For LVTOT=.TRUE., VASP.5.x writes the TOTAL local potential to the
     file LOCPOT. If you want only the Hartree contributions, use LVHAR=.TRUE.
     instead. 

 POTCAR:    PAW_PBE H 15Jun2001                   
   SHA256 =  030f79b5d3ab3cf0e668861823c8fb652ff669f3e15e46930bd03bfd63a607b6 H/POTCAR              
   COPYR  = (c) Copyright 15Jun2001 Georg Kresse                                                    
   COPYR  = This file is part of the software VASP. Any use, copying, and all other rights are regul
   COPYR  = If you do not have a valid VASP license, you may not use, copy or distribute this file. 
   VRHFIN =H: ultrasoft test                                                                        
   LEXCH  = PE                                                                                      
   EATOM  =    12.4884 eV,    0.9179 Ry                                                             
                                                                                                    
   TITEL  = PAW_PBE H 15Jun2001                                                                     
   LULTRA =        F    use ultrasoft PP ?                                                          
   IUNSCR =        0    unscreen: 0-lin 1-nonlin 2-no                                               
   RPACOR =    0.000    partial core radius                                                         
   POMASS =    1.000; ZVAL   =    1.000    mass and valenz                                          
   RCORE  =    1.100    outmost cutoff radius                                                       
   RWIGS  =    0.700; RWIGS  =    0.370    wigner-seitz radius (au A)                               
   ENMAX  =  250.000; ENMIN  =  200.000 eV                                                          
   RCLOC  =    0.701    cutoff for local pot                                                        
   LCOR   =        T    correct aug charges                                                         
   LPAW   =        T    paw PP                                                                      
   EAUG   =  400.000                                                                                
   RMAX   =    1.123    core radius for proj-oper                                                   
   RAUG   =    1.200    factor for augmentation sphere                                              
   RDEP   =    1.112    radius for radial grids                                                     
   RDEPT  =    0.926    core radius for aug-charge                                                  
                                                                                                    
   Atomic configuration                                                                             
    2 entries                                                                                       
     n  l   j            E        occ.                                                              
     1  0  0.50        -6.4927   1.0000                                                             
     2  1  0.50        -3.4015   0.0000                                                             
   Description                                                                                      
     l       E           TYP  RCUT    TYP  RCUT                                                     
     0     -6.4927494     23  1.100                                                                 
     0      6.8029130     23  1.100                                                                 
     1     -4.0817478     23  1.100                                                                 
  local pseudopotential read in
  atomic valenz-charges read in
  non local Contribution for L=            0  read in
    real space projection operators read in
  non local Contribution for L=            0  read in
    real space projection operators read in
  non local Contribution for L=            1  read in
    real space projection operators read in
    PAW grid and wavefunctions read in
 
   number of l-projection  operators is LMAX  =            3
   number of lm-projection operators is LMMAX =            5
 
 POTCAR:    PAW_PBE C 08Apr2002                   
   SHA256 =  253f7b50bb8d59471dbedb8285d89021f4a42ed1a2c5d38a03a736e69125dd95 C/POTCAR              
   COPYR  = (c) Copyright 08Apr2002 Georg Kresse                                                    
   COPYR  = This file is part of the software VASP. Any use, copying, and all other rights are regul
   COPYR  = If you do not have a valid VASP license, you may not use, copy or distribute this file. 
   VRHFIN =C: s2p2                                                                                  
   LEXCH  = PE                                                                                      
   EATOM  =   147.1560 eV,   10.8157 Ry                                                             
                                                                                                    
   TITEL  = PAW_PBE C 08Apr2002                                                                     
   LULTRA =        F    use ultrasoft PP ?                                                          
   IUNSCR =        1    unscreen: 0-lin 1-nonlin 2-no                                               
   RPACOR =    1.200    partial core radius                                                         
   POMASS =   12.011; ZVAL   =    4.000    mass and valenz                                          
   RCORE  =    1.500    outmost cutoff radius                                                       
   RWIGS  =    1.630; RWIGS  =    0.863    wigner-seitz radius (au A)                               
   ENMAX  =  400.000; ENMIN  =  300.000 eV                                                          
   ICORE  =        2    local potential                                                             
   LCOR   =        T    correct aug charges                                                         
   LPAW   =        T    paw PP                                                                      
   EAUG   =  644.873                                                                                
   DEXC   =    0.000                                                                                
   RMAX   =    1.529    core radius for proj-oper                                                   
   RAUG   =    1.300    factor for augmentation sphere                                              
   RDEP   =    1.501    radius for radial grids                                                     
   RDEPT  =    1.300    core radius for aug-charge                                                  
                                                                                                    
   Atomic configuration                                                                             
    4 entries                                                                                       
     n  l   j            E        occ.                                                              
     1  0  0.50      -273.3789   2.0000                                                             
     2  0  0.50       -13.7508   2.0000                                                             
     2  1  0.50        -5.2854   2.0000                                                             
     3  2  1.50        -5.4423   0.0000                                                             
   Description                                                                                      
     l       E           TYP  RCUT    TYP  RCUT                                                     
     0    -13.7508458     23  1.200                                                                 
     0     -8.2022199     23  1.200                                                                 
     1     -5.2854383     23  1.500                                                                 
     1     34.0145650     23  1.500                                                                 
     2     -5.4423304      7  1.500                                                                 
  local pseudopotential read in
  partial core-charges read in
  partial kinetic energy density read in
  atomic valenz-charges read in
  non local Contribution for L=            0  read in
    real space projection operators read in
  non local Contribution for L=            0  read in
    real space projection operators read in
  non local Contribution for L=            1  read in
    real space projection operators read in
  non local Contribution for L=            1  read in
    real space projection operators read in
    PAW grid and wavefunctions read in
 
   number of l-projection  operators is LMAX  =            4
   number of lm-projection operators is LMMAX =            8
 
 POTCAR:    PAW_PBE N 08Apr2002                   
   SHA256 =  e053789ff3a61a86a1b75d8a110fcc91f86041011e7b0817c7c99e4e8a6349d7 N/POTCAR              
   COPYR  = (c) Copyright 08Apr2002 Georg Kresse                                                    
   COPYR  = This file is part of the software VASP. Any use, copying, and all other rights are regul
   COPYR  = If you do not have a valid VASP license, you may not use, copy or distribute this file. 
   VRHFIN =N: s2p3                                                                                  
   LEXCH  = PE                                                                                      
   EATOM  =   264.5486 eV,   19.4438 Ry                                                             
                                                                                                    
   TITEL  = PAW_PBE N 08Apr2002                                                                     
   LULTRA =        F    use ultrasoft PP ?                                                          
   IUNSCR =        1    unscreen: 0-lin 1-nonlin 2-no                                               
   RPACOR =    1.200    partial core radius                                                         
   POMASS =   14.001; ZVAL   =    5.000    mass and valenz                                          
   RCORE  =    1.500    outmost cutoff radius                                                       
   RWIGS  =    1.400; RWIGS  =    0.741    wigner-seitz radius (au A)                               
   ENMAX  =  400.000; ENMIN  =  300.000 eV                                                          
   ICORE  =        2    local potential                                                             
   LCOR   =        T    correct aug charges                                                         
   LPAW   =        T    paw PP                                                                      
   EAUG   =  627.112                                                                                
   DEXC   =    0.000                                                                                
   RMAX   =    1.529    core radius for proj-oper                                                   
   RAUG   =    1.300    factor for augmentation sphere                                              
   RDEP   =    1.514    radius for radial grids                                                     
   RDEPT  =    1.338    core radius for aug-charge                                                  
                                                                                                    
   Atomic configuration                                                                             
    4 entries                                                                                       
     n  l   j            E        occ.                                                              
     1  0  0.50      -384.7179   2.0000                                                             
     2  0  0.50       -18.5828   2.0000                                                             
     2  1  0.50        -7.0898   3.0000                                                             
     3  2  1.50        -6.8029   0.0000                                                             
   Description                                                                                      
     l       E           TYP  RCUT    TYP  RCUT                                                     
     0    -18.5828119     23  1.200                                                                 
     0    -13.5018863     23  1.200                                                                 
     1     -7.0897853     23  1.500                                                                 
     1      9.5240782     23  1.500                                                                 
     2     -6.8029130      7  1.500                                                                 
  local pseudopotential read in
  partial core-charges read in
  partial kinetic energy density read in
  atomic valenz-charges read in
  non local Contribution for L=            0  read in
    real space projection operators read in
  non local Contribution for L=            0  read in
    real space projection operators read in
  non local Contribution for L=            1  read in
    real space projection operators read in
  non local Contribution for L=            1  read in
    real space projection operators read in
    PAW grid and wavefunctions read in
 
   number of l-projection  operators is LMAX  =            4
   number of lm-projection operators is LMMAX =            8
 
 POTCAR:    PAW_PBE I 08Apr2002                   
   SHA256 =  e40f3f59b681c1fc3e3091736183c4589116986673d2b852a5012aec72758799 I/POTCAR              
   COPYR  = (c) Copyright 08Apr2002 Georg Kresse                                                    
   COPYR  = This file is part of the software VASP. Any use, copying, and all other rights are regul
   COPYR  = If you do not have a valid VASP license, you may not use, copy or distribute this file. 
   VRHFIN =I : s2p5                                                                                 
   LEXCH  = PE                                                                                      
   EATOM  =   315.8678 eV,   23.2156 Ry                                                             
                                                                                                    
   TITEL  = PAW_PBE I 08Apr2002                                                                     
   LULTRA =        F    use ultrasoft PP ?                                                          
   IUNSCR =        1    unscreen: 0-lin 1-nonlin 2-no                                               
   RPACOR =    2.200    partial core radius                                                         
   POMASS =  126.904; ZVAL   =    7.000    mass and valenz                                          
   RCORE  =    2.300    outmost cutoff radius                                                       
   RWIGS  =    2.810; RWIGS  =    1.487    wigner-seitz radius (au A)                               
   ENMAX  =  175.647; ENMIN  =  131.735 eV                                                          
   ICORE  =        3    local potential                                                             
   LCOR   =        T    correct aug charges                                                         
   LPAW   =        T    paw PP                                                                      
   EAUG   =  370.139                                                                                
   DEXC   =    0.000                                                                                
   RMAX   =    2.359    core radius for proj-oper                                                   
   RAUG   =    1.300    factor for augmentation sphere                                              
   RDEP   =    2.392    radius for radial grids                                                     
   RDEPT  =    2.170    core radius for aug-charge                                                  
                                                                                                    
   Atomic configuration                                                                             
   13 entries                                                                                       
     n  l   j            E        occ.                                                              
     1  0  0.50    -32976.3739   2.0000                                                             
     2  0  0.50     -5094.5933   2.0000                                                             
     2  1  1.50     -4572.0131   6.0000                                                             
     3  0  0.50     -1028.2813   2.0000                                                             
     3  1  1.50      -859.0250   6.0000                                                             
     3  2  2.50      -605.7620  10.0000                                                             
     4  0  0.50      -180.5540   2.0000                                                             
     4  1  1.50      -127.5306   6.0000                                                             
     4  2  2.50       -50.2720  10.0000                                                             
     5  0  0.50       -17.4058   2.0000                                                             
     5  1  0.50        -7.0851   5.0000                                                             
     5  2  1.50        -7.0750   0.0000                                                             
     4  3  2.50        -7.0750   0.0000                                                             
   Description                                                                                      
     l       E           TYP  RCUT    TYP  RCUT                                                     
     0    -17.4058016     23  2.300                                                                 
     0    -18.7663842     23  2.300                                                                 
     1     -7.0850686     23  2.300                                                                 
     1     -4.2150896     23  2.300                                                                 
     2     -7.0750295     23  2.300                                                                 
     3     -1.3605826     23  2.300                                                                 
  local pseudopotential read in
  partial core-charges read in
  partial kinetic energy density read in
  atomic valenz-charges read in
  non local Contribution for L=            0  read in
    real space projection operators read in
  non local Contribution for L=            0  read in
    real space projection operators read in
  non local Contribution for L=            1  read in
    real space projection operators read in
  non local Contribution for L=            1  read in
    real space projection operators read in
  non local Contribution for L=            2  read in
    real space projection operators read in
    PAW grid and wavefunctions read in
 
   number of l-projection  operators is LMAX  =            5
   number of lm-projection operators is LMMAX =           13
 
 POTCAR:    PAW_PBE Pb 08Apr2002                  
   SHA256 =  797118a27cf1bcd06b9881c67a26cdde129e3cd1a551dd4a281f9681ce847303 Pb/POTCAR             
   COPYR  = (c) Copyright 08Apr2002 Georg Kresse                                                    
   COPYR  = This file is part of the software VASP. Any use, copying, and all other rights are regul
   COPYR  = If you do not have a valid VASP license, you may not use, copy or distribute this file. 
   VRHFIN =Pb:                                                                                      
   LEXCH  = PE                                                                                      
   EATOM  =    96.9868 eV,    7.1283 Ry                                                             
                                                                                                    
   TITEL  = PAW_PBE Pb 08Apr2002                                                                    
   LULTRA =        F    use ultrasoft PP ?                                                          
   IUNSCR =        1    unscreen: 0-lin 1-nonlin 2-no                                               
   RPACOR =    2.200    partial core radius                                                         
   POMASS =  207.200; ZVAL   =    4.000    mass and valenz                                          
   RCORE  =    3.100    outmost cutoff radius                                                       
   RWIGS  =    3.260; RWIGS  =    1.725    wigner-seitz radius (au A)                               
   ENMAX  =   97.973; ENMIN  =   73.480 eV                                                          
   ICORE  =        3    local potential                                                             
   LCOR   =        T    correct aug charges                                                         
   LPAW   =        T    paw PP                                                                      
   EAUG   =  234.873                                                                                
   DEXC   =    0.000                                                                                
   RMAX   =    3.158    core radius for proj-oper                                                   
   RAUG   =    1.300    factor for augmentation sphere                                              
   RDEP   =    3.202    radius for radial grids                                                     
   RDEPT  =    2.659    core radius for aug-charge                                                  
                                                                                                    
   Atomic configuration                                                                             
   17 entries                                                                                       
     n  l   j            E        occ.                                                              
     1  0  0.50    -88091.8466   2.0000                                                             
     2  0  0.50    -15753.4197   2.0000                                                             
     2  1  1.50    -13508.1797   6.0000                                                             
     3  0  0.50     -3781.7194   2.0000                                                             
     3  1  1.50     -3138.2529   6.0000                                                             
     3  2  2.50     -2483.2977  10.0000                                                             
     4  0  0.50      -856.2895   2.0000                                                             
     4  1  1.50      -645.4943   6.0000                                                             
     4  2  2.50      -401.8768  10.0000                                                             
     4  3  3.50      -132.9059  14.0000                                                             
     5  0  0.50      -144.0950   2.0000                                                             
     5  1  1.50       -85.7879   6.0000                                                             
     5  2  2.50       -21.1769  10.0000                                                             
     6  0  0.50       -12.0372   2.0000                                                             
     6  1  1.50        -3.4971   2.0000                                                             
     6  2  2.50        -1.3606   0.0000                                                             
     5  3  2.50        -2.7212   0.0000                                                             
   Description                                                                                      
     l       E           TYP  RCUT    TYP  RCUT                                                     
     0    -12.0371566     23  3.100                                                                 
     0    -13.3977392     23  3.100                                                                 
     1     -3.4971341     23  3.100                                                                 
     1     -5.4423304     23  3.100                                                                 
     2     -1.3605826     23  3.100                                                                 
     3     -1.3605826     23  3.100                                                                 
  local pseudopotential read in
  partial core-charges read in
  partial kinetic energy density read in
  atomic valenz-charges read in
  non local Contribution for L=            0  read in
    real space projection operators read in
  non local Contribution for L=            0  read in
    real space projection operators read in
  non local Contribution for L=            1  read in
    real space projection operators read in
  non local Contribution for L=            1  read in
    real space projection operators read in
  non local Contribution for L=            2  read in
    real space projection operators read in
    PAW grid and wavefunctions read in
 
   number of l-projection  operators is LMAX  =            5
   number of lm-projection operators is LMMAX =           13
 
 Optimization of the real space projectors (new method)

 maximal supplied QI-value         = 34.20
 optimisation between [QCUT,QGAM] = [ 11.29, 22.57] = [ 35.68,142.71] Ry 
 Optimized for a Real-space Cutoff    1.16 Angstroem

   l    n(q)    QCUT    max X(q) W(low)/X(q) W(high)/X(q)  e(spline) 
   0      8    11.287    19.460    0.40E-03    0.73E-03    0.16E-06
   0      8    11.287    12.209    0.38E-03    0.70E-03    0.15E-06
   1      7    11.287     4.655    0.22E-03    0.25E-04    0.22E-06
 Optimization of the real space projectors (new method)

 maximal supplied QI-value         = 25.13
 optimisation between [QCUT,QGAM] = [ 11.31, 22.87] = [ 35.82,146.48] Ry 
 Optimized for a Real-space Cutoff    1.00 Angstroem

   l    n(q)    QCUT    max X(q) W(low)/X(q) W(high)/X(q)  e(spline) 
   0      7    11.310   115.676    0.43E-03    0.13E-02    0.19E-06
   0      7    11.310    87.132    0.43E-03    0.13E-02    0.18E-06
   1      6    11.310     4.429    0.42E-03    0.74E-03    0.11E-06
   1      6    11.310     2.733    0.34E-03    0.55E-03    0.92E-07
 Optimization of the real space projectors (new method)

 maximal supplied QI-value         = 25.13
 optimisation between [QCUT,QGAM] = [ 11.31, 22.87] = [ 35.82,146.48] Ry 
 Optimized for a Real-space Cutoff    1.27 Angstroem

   l    n(q)    QCUT    max X(q) W(low)/X(q) W(high)/X(q)  e(spline) 
   0      9    11.310    79.467    0.75E-04    0.16E-03    0.36E-06
   0      9    11.310    66.151    0.74E-04    0.16E-03    0.36E-06
   1      8    11.310    17.416    0.35E-03    0.12E-03    0.95E-06
   1      8    11.310    12.382    0.37E-03    0.13E-03    0.98E-06
 Optimization of the real space projectors (new method)

 maximal supplied QI-value         = 16.25
 optimisation between [QCUT,QGAM] = [ 11.38, 22.75] = [ 36.24,144.96] Ry 
 Optimized for a Real-space Cutoff    1.31 Angstroem

   l    n(q)    QCUT    max X(q) W(low)/X(q) W(high)/X(q)  e(spline) 
   0      9    11.376   194.483    0.24E-03    0.23E-03    0.67E-07
   0      9    11.376   190.334    0.23E-03    0.22E-03    0.65E-07
   1      8    11.376   116.687    0.25E-03    0.63E-04    0.16E-06
   1      8    11.376    88.696    0.25E-03    0.61E-04    0.16E-06
   2      8    11.376     4.877    0.17E-03    0.14E-03    0.29E-07
 Optimization of the real space projectors (new method)

 maximal supplied QI-value         = 12.09
 optimisation between [QCUT,QGAM] = [ 11.37, 22.86] = [ 36.19,146.31] Ry 
 Optimized for a Real-space Cutoff    1.66 Angstroem

   l    n(q)    QCUT    max X(q) W(low)/X(q) W(high)/X(q)  e(spline) 
   0     11    11.369   135.111    0.12E-03    0.69E-04    0.19E-05
   0     11    11.369   146.850    0.11E-03    0.65E-04    0.18E-05
   1     11    11.369   148.016    0.17E-03    0.32E-03    0.89E-06
   1     11    11.369   122.989    0.17E-03    0.32E-03    0.91E-06
   2     10    11.369     8.916    0.12E-03    0.45E-04    0.33E-06
  PAW_PBE H 15Jun2001                   :
 energy of atom  1       EATOM=  -12.4884
 kinetic energy error for atom=    0.0020 (will be added to EATOM!!)
  PAW_PBE C 08Apr2002                   :
 energy of atom  2       EATOM= -147.1560
 kinetic energy error for atom=    0.0076 (will be added to EATOM!!)
  PAW_PBE N 08Apr2002                   :
 energy of atom  3       EATOM= -264.5486
 kinetic energy error for atom=    0.0138 (will be added to EATOM!!)
  PAW_PBE I 08Apr2002                   :
 energy of atom  4       EATOM= -315.8678
 kinetic energy error for atom=    0.0009 (will be added to EATOM!!)
  PAW_PBE Pb 08Apr2002                  :
 energy of atom  5       EATOM=  -96.9868
 kinetic energy error for atom=    0.0000 (will be added to EATOM!!)
 
 
 POSCAR:  H  C  N  I Pb
  positions in cartesian coordinates
  No initial velocities read in
 exchange correlation table for  LEXCH =        8
   RHO(1)=    0.500       N(1)  =     2000
   RHO(2)=  100.500       N(2)  =     4000
 


--------------------------------------------------------------------------------------------------------


 ion  position               nearest neighbor table
   1  0.433  0.274  0.584- 187 1.06
   2  0.426  0.771  0.581- 188 1.07
   3  0.940  0.295  0.584- 189 1.04
   4  0.950  0.806  0.582- 190 1.05
   5  0.304  0.050  0.582- 194 1.00
   6  0.305  0.567  0.578- 195 1.01
   7  0.777  0.066  0.582- 196 1.00
   8  0.092  0.179  0.561- 183 1.01
   9  0.088  0.679  0.559- 184 1.04
  10  0.597  0.185  0.560- 185 1.06
  11  0.612  0.722  0.560- 186 1.05
  12  0.361  0.041  0.559- 194 1.07
  13  0.301  0.600  0.551- 195 1.06
  14  0.832  0.078  0.559- 196 1.05
  15  0.067  0.222  0.585- 183 1.04
  16  0.033  0.691  0.582- 184 1.04
  17  0.543  0.186  0.584- 185 1.02
  18  0.555  0.708  0.582- 186 1.01
  19  0.242  0.445  0.585- 191 1.00
  20  0.182  0.988  0.581- 192 1.00
  21  0.689  0.960  0.582- 193 1.00
  22  0.416  0.319  0.560- 187 1.02
  23  0.407  0.820  0.558- 188 1.02
  24  0.898  0.287  0.559- 189 1.02
  25  0.953  0.860  0.558- 190 1.04
  26  0.199  0.401  0.563- 191 1.06
  27  0.158  0.940  0.558- 192 1.05
  28  0.690  0.902  0.559- 193 1.08
  29  0.518  0.265  0.542- 146 1.09
  30  0.521  0.793  0.542- 147 1.09
  31  0.986  0.212  0.543- 144 1.13
  32  0.044  0.787  0.542- 145 1.07
  33  0.234  0.498  0.539- 148 1.10
  34  0.272  0.970  0.542- 149 1.10
  35  0.780  0.973  0.542- 150 1.10
  36  0.439  0.292  0.675- 205 1.06
  37  0.438  0.815  0.672- 206 1.07
  38  0.953  0.291  0.678- 207 1.04
  39  0.942  0.799  0.676- 208 1.00
  40  0.301  0.053  0.675- 209 1.06
  41  0.299  0.556  0.676- 210 1.07
  42  0.808  0.050  0.675- 211 1.07
  43  0.808  0.554  0.674- 212 1.03
  44  0.084  0.171  0.648- 197 1.00
  45  0.089  0.688  0.652- 198 0.99
  46  0.579  0.174  0.648- 199 0.99
  47  0.568  0.665  0.657- 200 1.02
  48  0.177  0.416  0.651- 201 0.98
  49  0.172  0.921  0.650- 202 0.98
  50  0.665  0.417  0.656- 203 1.08
  51  0.664  0.932  0.650- 204 0.98
  52  0.061  0.191  0.674- 197 1.02
  53  0.048  0.699  0.677- 198 1.02
  54  0.542  0.187  0.673- 199 1.02
  55  0.534  0.707  0.680- 200 1.05
  56  0.201  0.448  0.676- 201 1.06
  57  0.197  0.952  0.675- 202 1.06
  58  0.704  0.448  0.680- 203 1.01
  59  0.694  0.958  0.676- 204 1.06
  60  0.422  0.332  0.650- 205 1.01
  61  0.426  0.833  0.645- 206 1.02
  62  0.921  0.322  0.653- 207 1.04
  63  0.927  0.840  0.652- 208 1.02
  64  0.331  0.077  0.649- 209 0.97
  65  0.326  0.582  0.650- 210 1.01
  66  0.837  0.073  0.650- 211 1.01
  67  0.815  0.580  0.648- 212 1.01
  68  0.997  0.253  0.633- 151 1.10
  69  0.021  0.775  0.635- 152 1.06
  70  0.507  0.265  0.631- 153 1.07
  71  0.507  0.740  0.634- 154 1.07
  72  0.253  0.994  0.632- 156 1.06
  73  0.250  0.497  0.633- 155 1.08
  74  0.751  1.000  0.632- 158 1.08
  75  0.730  0.499  0.635- 157 1.09
  76  0.449  0.301  0.769- 221 1.02
  77  0.449  0.801  0.769- 222 1.02
  78  0.949  0.301  0.769- 223 1.02
  79  0.949  0.801  0.769- 224 1.02
  80  0.301  0.051  0.769- 225 1.02
  81  0.301  0.551  0.769- 226 1.02
  82  0.801  0.051  0.769- 227 1.02
  83  0.801  0.551  0.769- 228 1.02
  84  0.079  0.171  0.743- 213 1.02
  85  0.079  0.671  0.743- 214 1.02
  86  0.579  0.171  0.743- 215 1.02
  87  0.579  0.671  0.743- 216 1.02
  88  0.171  0.421  0.743- 217 1.02
  89  0.171  0.921  0.743- 218 1.02
  90  0.671  0.421  0.743- 219 1.02
  91  0.671  0.921  0.743- 220 1.02
  92  0.051  0.199  0.769- 213 1.02
  93  0.051  0.699  0.769- 214 1.02
  94  0.551  0.199  0.769- 215 1.02
  95  0.551  0.699  0.769- 216 1.02
  96  0.199  0.449  0.769- 217 1.02
  97  0.199  0.949  0.769- 218 1.02
  98  0.699  0.449  0.769- 219 1.02
  99  0.699  0.949  0.769- 220 1.02
 100  0.421  0.329  0.743- 221 1.02
 101  0.421  0.829  0.743- 222 1.02
 102  0.921  0.329  0.743- 223 1.02
 103  0.921  0.829  0.743- 224 1.02
 104  0.329  0.079  0.743- 225 1.02
 105  0.329  0.579  0.743- 226 1.02
 106  0.829  0.079  0.743- 227 1.02
 107  0.829  0.579  0.743- 228 1.02
 108  0.000  0.250  0.726- 161 1.09
 109  0.000  0.750  0.726- 162 1.09
 110  0.500  0.250  0.726- 159 1.09
 111  0.500  0.750  0.726- 160 1.09
 112  0.250  0.000  0.726- 163 1.09
 113  0.250  0.500  0.726- 164 1.09
 114  0.750  0.000  0.726- 165 1.09
 115  0.750  0.500  0.726- 166 1.09
 116  0.777  0.514  0.522- 173 1.12
 117  0.869  0.514  0.535- 173 1.11
 118  0.765  0.630  0.541- 174 1.09
 119  0.770  0.633  0.568- 174 1.08
 120  0.680  0.463  0.562- 175 1.12
 121  0.676  0.559  0.568- 175 1.10
 122  0.809  0.431  0.574- 176 1.10
 123  0.873  0.503  0.574- 176 1.10
 124  0.858  0.392  0.545- 177 1.08
 125  0.761  0.385  0.540- 177 1.09
 126  0.774  0.391  0.503- 178 1.10
 127  0.865  0.429  0.504- 178 1.14
 128  0.894  0.631  0.535- 179 1.10
 129  0.916  0.612  0.562- 179 1.09
 130  0.873  0.698  0.554- 179 1.10
 131  0.594  0.533  0.537- 180 1.11
 132  0.667  0.486  0.523- 180 1.12
 133  0.669  0.585  0.527- 180 1.10
 134  0.733  0.480  0.601- 181 1.09
 135  0.753  0.571  0.593- 181 1.09
 136  0.816  0.526  0.609- 181 1.10
 137  0.837  0.272  0.521- 182 1.11
 138  0.843  0.289  0.493- 182 1.10
 139  0.938  0.184  0.504- 168 1.09
 140  0.972  0.419  0.515- 169 1.08
 141  0.073  0.165  0.505- 170 1.09
 142  0.103  0.399  0.517- 171 1.10
 143  0.159  0.271  0.512- 172 1.10
 144  0.993  0.231  0.560-  31 1.13 189 1.31 183 1.31
 145  0.022  0.770  0.557-  32 1.07 190 1.31 184 1.31
 146  0.505  0.252  0.559-  29 1.09 187 1.29 185 1.32
 147  0.508  0.771  0.558-  30 1.09 188 1.28 186 1.33
 148  0.250  0.502  0.556-  33 1.10 195 1.29 191 1.34
 149  0.259  0.991  0.558-  34 1.10 194 1.31 192 1.32
 150  0.761  0.991  0.558-  35 1.10 193 1.31 196 1.31
 151  0.002  0.248  0.650-  68 1.10 207 1.29 197 1.36
 152  0.008  0.765  0.651-  69 1.06 208 1.31 198 1.37
 153  0.500  0.254  0.648-  70 1.07 205 1.28 199 1.37
 154  0.497  0.751  0.650-  71 1.07 206 1.28 200 1.33
 155  0.252  0.500  0.650-  73 1.08 210 1.28 201 1.36
 156  0.251  0.999  0.649-  72 1.06 209 1.34 202 1.34
 157  0.740  0.498  0.652-  75 1.09 203 1.29 212 1.35
 158  0.752  0.003  0.649-  74 1.08 211 1.28 204 1.36
 159  0.500  0.250  0.743- 110 1.09 221 1.31 215 1.31
 160  0.500  0.750  0.743- 111 1.09 222 1.31 216 1.31
 161  1.000  0.250  0.743- 108 1.09 223 1.31 213 1.31
 162  1.000  0.750  0.743- 109 1.09 224 1.31 214 1.31
 163  0.250  0.000  0.743- 112 1.09 225 1.31 218 1.31
 164  0.250  0.500  0.743- 113 1.09 226 1.31 217 1.31
 165  0.750  0.000  0.743- 114 1.09 227 1.31 220 1.31
 166  0.750  0.500  0.743- 115 1.09 228 1.31 219 1.31
 167  0.943  0.304  0.509- 169 1.38 168 1.46 182 1.49
 168  0.975  0.231  0.506- 139 1.09 170 1.39 167 1.46
 169  0.991  0.363  0.512- 140 1.08 167 1.38 171 1.43
 170  0.051  0.221  0.507- 141 1.09 168 1.39 172 1.41
 171  0.069  0.351  0.513- 142 1.10 172 1.38 169 1.43
 172  0.099  0.281  0.511- 143 1.10 171 1.38 170 1.41
 173  0.812  0.491  0.535- 117 1.11 116 1.12 177 1.46 229 1.53
 174  0.797  0.610  0.554- 119 1.08 118 1.09 179 1.50 229 1.51
 175  0.695  0.520  0.556- 121 1.10 120 1.12 180 1.54 229 1.57
 176  0.813  0.491  0.575- 122 1.10 123 1.10 229 1.50 181 1.52
 177  0.812  0.410  0.535- 124 1.08 125 1.09 173 1.46 178 1.56
 178  0.828  0.384  0.511- 126 1.10 127 1.14 182 1.47 177 1.56
 179  0.874  0.638  0.552- 129 1.09 128 1.10 130 1.10 174 1.50
 180  0.655  0.532  0.535- 133 1.10 131 1.11 132 1.12 175 1.54
 181  0.777  0.517  0.596- 135 1.09 134 1.09 136 1.10 176 1.52
 182  0.860  0.310  0.508- 138 1.10 137 1.11 178 1.47 167 1.49
 183  0.055  0.209  0.570-   8 1.01  15 1.04 144 1.31
 184  0.049  0.711  0.567-   9 1.04  16 1.04 145 1.31
 185  0.549  0.203  0.568-  17 1.02  10 1.06 146 1.32
 186  0.559  0.729  0.567-  18 1.01  11 1.05 147 1.33
 187  0.449  0.283  0.568-  22 1.02   1 1.06 146 1.29
 188  0.444  0.788  0.565-  23 1.02   2 1.07 147 1.28
 189  0.941  0.273  0.568-  24 1.02   3 1.04 144 1.31
 190  0.972  0.813  0.566-  25 1.04   4 1.05 145 1.31
 191  0.229  0.446  0.569-  19 1.00  26 1.06 148 1.34
 192  0.196  0.972  0.567-  20 1.00  27 1.05 149 1.32
 193  0.709  0.950  0.567-  21 1.00  28 1.08 150 1.31
 194  0.310  0.030  0.567-   5 1.00  12 1.07 149 1.31
 195  0.287  0.559  0.563-   6 1.01  13 1.06 148 1.29
 196  0.792  0.048  0.568-   7 1.00  14 1.05 150 1.31
 197  0.052  0.200  0.658-  44 1.00  52 1.02 151 1.36
 198  0.051  0.713  0.661-  45 0.99  53 1.02 152 1.37
 199  0.544  0.201  0.657-  46 0.99  54 1.02 153 1.37
 200  0.534  0.705  0.663-  47 1.02  55 1.05 154 1.33
 201  0.206  0.451  0.659-  48 0.98  56 1.06 155 1.36
 202  0.203  0.954  0.659-  49 0.98  57 1.06 156 1.34
 203  0.702  0.454  0.664-  58 1.01  50 1.08 157 1.29
 204  0.699  0.961  0.659-  51 0.98  59 1.06 158 1.36
 205  0.452  0.293  0.658-  60 1.01  36 1.06 153 1.28
 206  0.452  0.801  0.656-  61 1.02  37 1.07 154 1.28
 207  0.957  0.288  0.661-  62 1.04  38 1.04 151 1.29
 208  0.956  0.803  0.661-  39 1.00  63 1.02 152 1.31
 209  0.298  0.047  0.658-  64 0.97  40 1.06 156 1.34
 210  0.294  0.547  0.659-  65 1.01  41 1.07 155 1.28
 211  0.801  0.043  0.658-  66 1.01  42 1.07 158 1.28
 212  0.790  0.547  0.659-  67 1.01  43 1.03 157 1.35
 213  0.046  0.204  0.753-  92 1.02  84 1.02 161 1.31
 214  0.046  0.704  0.753-  93 1.02  85 1.02 162 1.31
 215  0.546  0.204  0.753-  94 1.02  86 1.02 159 1.31
 216  0.546  0.704  0.753-  95 1.02  87 1.02 160 1.31
 217  0.204  0.454  0.753-  96 1.02  88 1.02 164 1.31
 218  0.204  0.954  0.753-  97 1.02  89 1.02 163 1.31
 219  0.704  0.454  0.753-  98 1.02  90 1.02 166 1.31
 220  0.704  0.954  0.753-  99 1.02  91 1.02 165 1.31
 221  0.454  0.296  0.753-  76 1.02 100 1.02 159 1.31
 222  0.454  0.796  0.753-  77 1.02 101 1.02 160 1.31
 223  0.954  0.296  0.753-  78 1.02 102 1.02 161 1.31
 224  0.954  0.796  0.753-  79 1.02 103 1.02 162 1.31
 225  0.296  0.046  0.753-  80 1.02 104 1.02 163 1.31
 226  0.296  0.546  0.753-  81 1.02 105 1.02 164 1.31
 227  0.796  0.046  0.753-  82 1.02 106 1.02 165 1.31
 228  0.796  0.546  0.753-  83 1.02 107 1.02 166 1.31
 229  0.781  0.528  0.555- 176 1.50 174 1.51 173 1.53 175 1.57
 230  0.497  0.002  0.552- 304 3.13
 231  0.469  0.480  0.556- 305 3.07
 232  0.993  0.006  0.551- 302 3.22
 233  0.026  0.494  0.559- 303 3.07
 234  0.257  0.246  0.554- 306 3.11
 235  0.245  0.759  0.551- 307 3.23
 236  0.737  0.228  0.555- 308 3.18
 237  0.722  0.778  0.546- 309 3.71
 238  0.006  0.002  0.655- 310 3.14 302 3.25
 239  0.003  0.503  0.657- 311 3.01 303 3.07
 240  0.503  0.003  0.654- 312 3.17 304 3.24
 241  0.501  0.499  0.655- 313 3.10 305 3.22
 242  0.248  0.248  0.655- 314 3.10 306 3.19
 243  0.249  0.750  0.655- 315 3.14 307 3.21
 244  0.742  0.249  0.656- 316 3.08 308 3.11
 245  0.750  0.760  0.653- 309 3.02 317 3.24
 246  0.146  0.102  0.609- 302 3.22 306 3.31
 247  0.149  0.605  0.609- 303 3.11 307 3.30
 248  0.640  0.105  0.609- 304 3.16 308 3.28
 249  0.616  0.635  0.615- 309 3.32 305 3.34
 250  0.358  0.388  0.611- 306 3.16 305 3.25
 251  0.358  0.892  0.608- 307 3.15 304 3.28
 252  0.884  0.369  0.615- 308 3.29 303 3.36
 253  0.856  0.895  0.607- 309 3.15 302 3.26
 254  0.112  0.355  0.610- 306 3.25 303 3.27
 255  0.109  0.860  0.607- 307 3.17 302 3.28
 256  0.615  0.366  0.607- 305 3.16 308 3.18
 257  0.611  0.863  0.610- 309 3.16 304 3.21
 258  0.394  0.140  0.610- 306 3.19 304 3.22
 259  0.387  0.646  0.606- 307 3.18 305 3.38
 260  0.891  0.135  0.610- 302 3.11 308 3.33
 261  0.912  0.663  0.614- 303 3.40 309 3.46
 262  0.000  0.000  0.755- 310 3.13 318 3.27
 263  0.000  0.500  0.755- 311 3.13 319 3.27
 264  0.500  0.000  0.755- 312 3.13 320 3.27
 265  0.500  0.500  0.755- 313 3.13 321 3.27
 266  0.250  0.250  0.755- 314 3.13 322 3.27
 267  0.250  0.750  0.755- 315 3.13 323 3.27
 268  0.750  0.250  0.755- 316 3.13 324 3.27
 269  0.750  0.750  0.755- 317 3.13 325 3.27
 270  0.136  0.114  0.705- 310 3.20 314 3.20
 271  0.136  0.614  0.705- 311 3.20 315 3.20
 272  0.636  0.114  0.705- 312 3.20 316 3.20
 273  0.636  0.614  0.705- 313 3.20 317 3.20
 274  0.364  0.386  0.705- 313 3.20 314 3.20
 275  0.364  0.886  0.705- 312 3.20 315 3.20
 276  0.864  0.386  0.705- 311 3.20 316 3.20
 277  0.864  0.886  0.705- 310 3.20 317 3.20
 278  0.114  0.364  0.705- 314 3.21 311 3.21
 279  0.114  0.864  0.705- 315 3.21 310 3.21
 280  0.614  0.364  0.705- 316 3.21 313 3.21
 281  0.614  0.864  0.705- 317 3.21 312 3.21
 282  0.386  0.136  0.705- 314 3.21 312 3.21
 283  0.386  0.636  0.705- 315 3.21 313 3.21
 284  0.886  0.136  0.705- 316 3.21 310 3.21
 285  0.886  0.636  0.705- 317 3.21 311 3.21
 286  0.135  0.115  0.801- 318 3.22 322 3.22
 287  0.135  0.615  0.801- 319 3.22 323 3.22
 288  0.635  0.115  0.801- 320 3.22 324 3.22
 289  0.635  0.615  0.801- 321 3.22 325 3.22
 290  0.365  0.385  0.801- 321 3.22 322 3.22
 291  0.365  0.885  0.801- 320 3.22 323 3.22
 292  0.865  0.385  0.801- 319 3.22 324 3.22
 293  0.865  0.885  0.801- 318 3.22 325 3.22
 294  0.115  0.365  0.801- 319 3.23 322 3.23
 295  0.115  0.865  0.801- 318 3.23 323 3.23
 296  0.615  0.365  0.801- 321 3.23 324 3.23
 297  0.615  0.865  0.801- 320 3.23 325 3.23
 298  0.385  0.135  0.801- 320 3.23 322 3.23
 299  0.385  0.635  0.801- 321 3.23 323 3.23
 300  0.885  0.135  0.801- 318 3.23 324 3.23
 301  0.885  0.635  0.801- 319 3.23 325 3.23
 302  0.999  0.004  0.603- 260 3.11 246 3.22 232 3.22 238 3.25 253 3.26 255 3.28
 303  0.010  0.504  0.608- 239 3.07 233 3.07 247 3.11 254 3.27 252 3.36 261 3.40
 304  0.502  0.001  0.602- 230 3.13 248 3.16 257 3.21 258 3.22 240 3.24 251 3.28
 305  0.499  0.497  0.604- 231 3.07 256 3.16 241 3.22 250 3.25 249 3.34 259 3.38
 306  0.256  0.248  0.604- 234 3.11 250 3.16 242 3.19 258 3.19 254 3.25 246 3.31
 307  0.250  0.756  0.603- 251 3.15 255 3.17 259 3.18 243 3.21 235 3.23 247 3.30
 308  0.748  0.251  0.606- 244 3.11 256 3.18 236 3.18 248 3.28 252 3.29 260 3.33
 309  0.749  0.758  0.605- 245 3.02 253 3.15 257 3.16 249 3.32 261 3.46 237 3.71
 310  0.000  0.000  0.705- 262 3.13 238 3.14 270 3.20 277 3.20 279 3.21 284 3.21
 311  0.000  0.500  0.705- 239 3.01 263 3.13 271 3.20 276 3.20 278 3.21 285 3.21
 312  0.500  0.000  0.705- 264 3.13 240 3.17 272 3.20 275 3.20 281 3.21 282 3.21
 313  0.500  0.500  0.705- 241 3.10 265 3.13 273 3.20 274 3.20 280 3.21 283 3.21
 314  0.250  0.250  0.705- 242 3.10 266 3.13 270 3.20 274 3.20 282 3.21 278 3.21
 315  0.250  0.750  0.705- 267 3.13 243 3.14 271 3.20 275 3.20 283 3.21 279 3.21
 316  0.750  0.250  0.705- 244 3.08 268 3.13 272 3.20 276 3.20 284 3.21 280 3.21
 317  0.750  0.750  0.705- 269 3.13 273 3.20 277 3.20 285 3.21 281 3.21 245 3.24
 318  0.000  0.000  0.807- 286 3.22 293 3.22 300 3.23 295 3.23 262 3.27
 319  0.000  0.500  0.807- 287 3.22 292 3.22 301 3.23 294 3.23 263 3.27
 320  0.500  0.000  0.807- 288 3.22 291 3.22 298 3.23 297 3.23 264 3.27
 321  0.500  0.500  0.807- 289 3.22 290 3.22 299 3.23 296 3.23 265 3.27
 322  0.250  0.250  0.807- 290 3.22 286 3.22 294 3.23 298 3.23 266 3.27
 323  0.250  0.750  0.807- 291 3.22 287 3.22 299 3.23 295 3.23 267 3.27
 324  0.750  0.250  0.807- 292 3.22 288 3.22 296 3.23 300 3.23 268 3.27
 325  0.750  0.750  0.807- 293 3.22 289 3.22 297 3.23 301 3.23 269 3.27
 

IMPORTANT INFORMATION: All symmetrisations will be switched off!
NOSYMM: (Re-)initialisation of all symmetry stuff for point group C_1.


----------------------------------------------------------------------------------------

                                     Primitive cell                                     

  volume of cell :   20385.2105

  direct lattice vectors                    reciprocal lattice vectors
    18.060800552  0.000000000  0.000000000     0.055368531  0.000015077 -0.000000000
    -0.004918649 18.062799454  0.000000000     0.000000000  0.055362404  0.000000000
     0.000000000  0.000000000 62.487499237     0.000000000 -0.000000000  0.016003201

  length of vectors
    18.060800552 18.062800123 62.487499237     0.055368533  0.055362404  0.016003201

  position of ions in fractional coordinates (direct lattice)
     0.433373907  0.274145208  0.583933749
     0.426070535  0.771247036  0.581000423
     0.939813693  0.295174269  0.583731255
     0.950189497  0.805923089  0.581666511
     0.304057651  0.050488391  0.582220638
     0.305376535  0.566753403  0.577666993
     0.776647891  0.066214325  0.582183949
     0.092178927  0.179106782  0.561072243
     0.088119727  0.679027982  0.559028927
     0.597153308  0.184623113  0.560167460
     0.611589007  0.722089524  0.559882430
     0.360927109  0.040935834  0.559180141
     0.301364311  0.599621821  0.551153145
     0.832345999  0.078153681  0.559246378
     0.067435825  0.222175927  0.585202619
     0.033218704  0.691384967  0.581702957
     0.543130971  0.186443802  0.583731561
     0.554832948  0.707903626  0.581802647
     0.241569465  0.445072808  0.584528656
     0.181666155  0.987940663  0.581407976
     0.689017462  0.960010017  0.581909663
     0.416053776  0.319174230  0.559719067
     0.406797478  0.820494780  0.557815733
     0.897659628  0.286869428  0.558604159
     0.953094307  0.859755944  0.558362229
     0.198733518  0.401323522  0.562527612
     0.158087234  0.939715438  0.557675934
     0.690288909  0.901614042  0.558835101
     0.518233371  0.264816197  0.542303719
     0.520501809  0.792766377  0.542021497
     0.986034412  0.212112131  0.543106370
     0.044189134  0.787036665  0.542257445
     0.234487645  0.498028851  0.539092810
     0.272350807  0.970297629  0.541591235
     0.780487263  0.973050102  0.542459634
     0.438873436  0.291548175  0.674567844
     0.437628357  0.815250648  0.672221305
     0.952745518  0.291024977  0.677701405
     0.941615920  0.799268467  0.676391024
     0.301124405  0.053264933  0.674655203
     0.299309461  0.555897773  0.675716878
     0.807569531  0.049888031  0.675343085
     0.807506056  0.554369754  0.674475357
     0.083665310  0.171370335  0.647512689
     0.089017479  0.687532583  0.652436892
     0.579230268  0.174206733  0.647524166
     0.568155696  0.665214096  0.657066480
     0.176554351  0.416395867  0.650888120
     0.171806850  0.921346503  0.650084248
     0.664556926  0.416696233  0.656371211
     0.664115335  0.932379870  0.650166479
     0.060914057  0.190637141  0.673718187
     0.048235175  0.698961807  0.677070664
     0.541672513  0.187324309  0.672827262
     0.533850121  0.706673440  0.680100384
     0.200808310  0.447598861  0.676366361
     0.197223033  0.952470142  0.675482517
     0.704266137  0.448275833  0.680234444
     0.693679981  0.957751486  0.675708331
     0.422247754  0.331643992  0.650090048
     0.425591285  0.833468284  0.645147226
     0.920732826  0.322359463  0.653069465
     0.927358875  0.839543980  0.651809386
     0.330651073  0.076655836  0.648810129
     0.325839586  0.581634382  0.650133269
     0.837419962  0.073176217  0.649705572
     0.815062797  0.580251663  0.648002655
     0.996938873  0.253162952  0.632509994
     0.020538439  0.774630419  0.635142234
     0.507425269  0.265174192  0.631264261
     0.507451897  0.740451034  0.633732223
     0.252813309  0.994433954  0.631768940
     0.250150043  0.496847449  0.632559259
     0.750906641  0.999531977  0.632037792
     0.730465130  0.498827363  0.634945906
     0.448745018  0.301283966  0.768889017
     0.448745007  0.801283913  0.768889017
     0.948744965  0.301283966  0.768889017
     0.948745007  0.801283913  0.768889017
     0.301275995  0.051294496  0.768872961
     0.301276011  0.551294499  0.768872961
     0.801275943  0.051294496  0.768872961
     0.801275984  0.551294499  0.768872961
     0.078771004  0.171180501  0.743441971
     0.078771006  0.671180448  0.743441971
     0.578771004  0.171180501  0.743441971
     0.578770992  0.671180448  0.743441971
     0.171199499  0.421174482  0.743421032
     0.171199501  0.921174508  0.743421032
     0.671199512  0.421174482  0.743421032
     0.671199501  0.921174508  0.743421032
     0.051256000  0.198714991  0.768889017
     0.051256002  0.698714925  0.768889017
     0.551256027  0.198714991  0.768889017
     0.551256016  0.698714925  0.768889017
     0.198723491  0.448703970  0.768872046
     0.198723493  0.948703970  0.768872046
     0.698723518  0.448703970  0.768872046
     0.698723507  0.948703970  0.768872046
     0.421231519  0.328817467  0.743441971
     0.421231508  0.828817440  0.743441971
     0.921231466  0.328817467  0.743441971
     0.921231508  0.828817440  0.743441971
     0.328800503  0.078824997  0.743421032
     0.328800492  0.578824964  0.743421032
     0.828800477  0.078824997  0.743421032
     0.828800519  0.578824964  0.743421032
     0.000003500  0.250001478  0.725821992
     0.000003500  0.750001452  0.725821992
     0.500003506  0.250001478  0.725821992
     0.500003495  0.750001452  0.725821992
     0.250000502  0.000000000  0.725803983
     0.250000517  0.500000000  0.725803983
     0.750000502  0.000000000  0.725803983
     0.750000490  0.500000000  0.725803983
     0.776763827  0.514412083  0.522062793
     0.868937971  0.514447669  0.534949343
     0.765005540  0.630188839  0.540586945
     0.769840547  0.632507662  0.568258983
     0.680263755  0.463200688  0.561867141
     0.675966423  0.558513688  0.568380590
     0.808934637  0.430987753  0.573675106
     0.872790467  0.503402706  0.574435329
     0.857908547  0.392186695  0.544783402
     0.761253438  0.384577939  0.540403009
     0.773777900  0.391319889  0.503210603
     0.864840934  0.428517296  0.504182264
     0.894162507  0.631041892  0.534977241
     0.915682796  0.612012755  0.561768794
     0.873348805  0.698043338  0.554130547
     0.594236610  0.533277336  0.537203639
     0.666889732  0.486489385  0.523121537
     0.669244295  0.585180329  0.527030278
     0.732768068  0.479888985  0.601082748
     0.752980416  0.570999552  0.592562551
     0.816158198  0.525540994  0.608633270
     0.837172577  0.271523960  0.520568476
     0.843191378  0.289320456  0.492754197
     0.937732859  0.183668464  0.503657500
     0.972354762  0.418629553  0.514879716
     0.072656501  0.165131138  0.505250104
     0.102841583  0.399499784  0.517369899
     0.158899665  0.271299992  0.512393623
     0.993321175  0.231427352  0.560212025
     0.022242953  0.770470171  0.557421428
     0.504781893  0.251683481  0.558905367
     0.507511360  0.770526136  0.557743208
     0.250146685  0.501579179  0.556014774
     0.259124712  0.990870924  0.557644800
     0.760781509  0.990891825  0.558266873
     0.001720295  0.247770327  0.649914415
     0.007891234  0.764640090  0.651395851
     0.499990050  0.254105365  0.647934038
     0.497162989  0.750613219  0.650391195
     0.252137616  0.499835324  0.649760819
     0.251101070  0.999457248  0.648708241
     0.739587959  0.498102767  0.652169565
     0.751755473  0.002881520  0.649212797
     0.499988984  0.249994984  0.743277021
     0.499989025  0.749994958  0.743277021
     0.999988984  0.249994984  0.743277021
     0.999989025  0.749994958  0.743277021
     0.250000502  0.000001000  0.743255960
     0.250000517  0.500001003  0.743255960
     0.750000502  0.000001000  0.743255960
     0.750000491  0.500001003  0.743255960
     0.942990316  0.304339580  0.508958579
     0.974785543  0.231026961  0.505834083
     0.991061458  0.362728613  0.511599671
     0.050800797  0.220972813  0.506904213
     0.069079861  0.350713651  0.513212390
     0.098663469  0.280909333  0.511181191
     0.811725857  0.491377871  0.535209038
     0.796691170  0.609894934  0.554311797
     0.694811671  0.519660439  0.555961419
     0.813270611  0.491324493  0.574876030
     0.812404320  0.410295066  0.534770474
     0.827603015  0.384068731  0.511334848
     0.874342257  0.637766841  0.551501054
     0.654755839  0.532218795  0.534590628
     0.776760685  0.516640094  0.595533421
     0.860433138  0.309977266  0.508474718
     0.054507999  0.208843610  0.569512469
     0.048658554  0.711116419  0.566684328
     0.548708813  0.203283642  0.568246225
     0.559014037  0.728643461  0.566863685
     0.448848407  0.283056510  0.567842946
     0.444297639  0.787945788  0.565489142
     0.941063442  0.273048019  0.568329798
     0.972291588  0.812922586  0.566312977
     0.228696856  0.446422158  0.568960357
     0.195849916  0.971665443  0.566635612
     0.709452579  0.949878916  0.567306583
     0.310139881  0.030132042  0.567417140
     0.287118140  0.558665639  0.562504781
     0.791770868  0.048140622  0.567674028
     0.052463435  0.199608777  0.657853686
     0.051309750  0.712928542  0.661242791
     0.543880899  0.200835809  0.656987240
     0.534311271  0.705181640  0.663315655
     0.206362177  0.450662395  0.659480476
     0.202909554  0.954414754  0.658634543
     0.702441699  0.453817585  0.664194493
     0.699028112  0.960963329  0.658841005
     0.452148118  0.293397943  0.658041345
     0.451760999  0.801327155  0.656128182
     0.957161396  0.288044493  0.661138706
     0.955868489  0.802665471  0.661034559
     0.298082283  0.047432502  0.657867971
     0.293685449  0.547418778  0.658887340
     0.801158000  0.043031418  0.658383027
     0.790288597  0.547322211  0.658973355
     0.045862501  0.204119496  0.752725994
     0.045862500  0.704119456  0.752725994
     0.545862507  0.204119496  0.752725994
     0.545862496  0.704119456  0.752725994
     0.204119002  0.454101003  0.752704994
     0.204118991  0.954100951  0.752704994
     0.704118976  0.454101003  0.752704994
     0.704118964  0.954100951  0.752704994
     0.454140018  0.295888490  0.752726971
     0.454140007  0.795888516  0.752726971
     0.954140018  0.295888490  0.752726971
     0.954140060  0.795888516  0.752726971
     0.295882492  0.045900498  0.752704994
     0.295882481  0.545900528  0.752704994
     0.795882439  0.045900498  0.752704994
     0.795882481  0.545900528  0.752704994
     0.781245971  0.528060870  0.555464676
     0.496992827  0.002093231  0.552210119
     0.469252528  0.480386181  0.555678892
     0.992561731  0.005703064  0.551020062
     0.026365183  0.494295314  0.558631631
     0.257019278  0.246035816  0.554499762
     0.244895284  0.759031971  0.551491347
     0.736937863  0.228238899  0.555400699
     0.722208092  0.778069872  0.546221617
     0.005723660  0.002048470  0.654534052
     0.003304371  0.503151917  0.656641224
     0.503263472  0.003303539  0.654133337
     0.500504228  0.499483480  0.655283469
     0.248274245  0.247973598  0.655173523
     0.249020212  0.750477846  0.654603646
     0.741597991  0.248804686  0.655615384
     0.749874546  0.759589726  0.653056034
     0.146140667  0.101847996  0.608704024
     0.149303931  0.605094039  0.608815618
     0.640275752  0.105146361  0.608910486
     0.616161419  0.635206311  0.614636851
     0.357584665  0.388460392  0.611289502
     0.358110879  0.891896492  0.608199772
     0.883846621  0.368805655  0.614566891
     0.855948909  0.895159813  0.607332411
     0.112108454  0.354784855  0.610167939
     0.108891650  0.859945540  0.607356647
     0.615273361  0.366059329  0.606916740
     0.610571171  0.863260919  0.609971733
     0.394222013  0.140488668  0.610134119
     0.387098561  0.645803232  0.606014155
     0.890730650  0.134502993  0.610314209
     0.912248616  0.663020510  0.613884992
     0.000000000  0.000000000  0.754927972
     0.000000000  0.500000000  0.754927972
     0.500000000  0.000000000  0.754927972
     0.499999989  0.500000000  0.754927972
     0.250000496  0.250000000  0.754939022
     0.250000511  0.749999974  0.754939022
     0.750000470  0.250000000  0.754939022
     0.750000458  0.749999974  0.754939022
     0.135790500  0.114209997  0.704782994
     0.135790502  0.614209984  0.704782994
     0.635790447  0.114209997  0.704782994
     0.635790488  0.614209984  0.704782994
     0.364209516  0.385789989  0.704782994
     0.364209505  0.885789963  0.704782994
     0.864209542  0.385789989  0.704782994
     0.864209531  0.885789963  0.704782994
     0.114217990  0.364218986  0.704780979
     0.114217992  0.864218986  0.704780979
     0.614218004  0.364218986  0.704780979
     0.614217992  0.864218986  0.704780979
     0.385782012  0.135781489  0.704782017
     0.385782001  0.635781489  0.704782017
     0.885781985  0.135781489  0.704782017
     0.885782027  0.635781489  0.704782017
     0.134667000  0.115332001  0.801256025
     0.134666989  0.615331988  0.801256025
     0.634666987  0.115332001  0.801256025
     0.634666976  0.615331988  0.801256025
     0.365333002  0.384667985  0.801256025
     0.365332990  0.884667959  0.801256025
     0.865332949  0.384667985  0.801256025
     0.865332938  0.884667959  0.801256025
     0.115328503  0.365337004  0.801264999
     0.115328505  0.865336978  0.801264999
     0.615328503  0.365337004  0.801264999
     0.615328492  0.865336978  0.801264999
     0.384671513  0.134662996  0.801264999
     0.384671501  0.634662970  0.801264999
     0.884671486  0.134662996  0.801264999
     0.884671528  0.634662970  0.801264999
     0.999172652  0.003640237  0.602501977
     0.010013109  0.503664161  0.607521963
     0.501659871  0.000939620  0.602314196
     0.499361622  0.496614559  0.603828659
     0.255777027  0.248088433  0.604190792
     0.249924756  0.756076567  0.603186380
     0.748478058  0.250656988  0.605845298
     0.748857565  0.757511978  0.604780326
     0.000000500  0.000000500  0.704828963
     0.000000500  0.500000475  0.704828963
     0.500000475  0.000000500  0.704828963
     0.500000464  0.500000475  0.704828963
     0.249999994  0.249999472  0.704824995
     0.250000010  0.749999498  0.704824995
     0.749999994  0.249999472  0.704824995
     0.749999983  0.749999498  0.704824995
     0.000000000  0.000000000  0.807317968
     0.000000000  0.500000000  0.807317968
     0.500000000  0.000000000  0.807317968
     0.499999989  0.500000000  0.807317968
     0.249999994  0.250000000  0.807317968
     0.250000010  0.749999974  0.807317968
     0.749999994  0.250000000  0.807317968
     0.749999983  0.749999974  0.807317968

  ion indices of the primitive-cell ions
   primitive index   ion index
                 1           1
                 2           2
                 3           3
                 4           4
                 5           5
                 6           6
                 7           7
                 8           8
                 9           9
                10          10
                11          11
                12          12
                13          13
                14          14
                15          15
                16          16
                17          17
                18          18
                19          19
                20          20
                21          21
                22          22
                23          23
                24          24
                25          25
                26          26
                27          27
                28          28
                29          29
                30          30
                31          31
                32          32
                33          33
                34          34
                35          35
                36          36
                37          37
                38          38
                39          39
                40          40
                41          41
                42          42
                43          43
                44          44
                45          45
                46          46
                47          47
                48          48
                49          49
                50          50
                51          51
                52          52
                53          53
                54          54
                55          55
                56          56
                57          57
                58          58
                59          59
                60          60
                61          61
                62          62
                63          63
                64          64
                65          65
                66          66
                67          67
                68          68
                69          69
                70          70
                71          71
                72          72
                73          73
                74          74
                75          75
                76          76
                77          77
                78          78
                79          79
                80          80
                81          81
                82          82
                83          83
                84          84
                85          85
                86          86
                87          87
                88          88
                89          89
                90          90
                91          91
                92          92
                93          93
                94          94
                95          95
                96          96
                97          97
                98          98
                99          99
               100         100
               101         101
               102         102
               103         103
               104         104
               105         105
               106         106
               107         107
               108         108
               109         109
               110         110
               111         111
               112         112
               113         113
               114         114
               115         115
               116         116
               117         117
               118         118
               119         119
               120         120
               121         121
               122         122
               123         123
               124         124
               125         125
               126         126
               127         127
               128         128
               129         129
               130         130
               131         131
               132         132
               133         133
               134         134
               135         135
               136         136
               137         137
               138         138
               139         139
               140         140
               141         141
               142         142
               143         143
               144         144
               145         145
               146         146
               147         147
               148         148
               149         149
               150         150
               151         151
               152         152
               153         153
               154         154
               155         155
               156         156
               157         157
               158         158
               159         159
               160         160
               161         161
               162         162
               163         163
               164         164
               165         165
               166         166
               167         167
               168         168
               169         169
               170         170
               171         171
               172         172
               173         173
               174         174
               175         175
               176         176
               177         177
               178         178
               179         179
               180         180
               181         181
               182         182
               183         183
               184         184
               185         185
               186         186
               187         187
               188         188
               189         189
               190         190
               191         191
               192         192
               193         193
               194         194
               195         195
               196         196
               197         197
               198         198
               199         199
               200         200
               201         201
               202         202
               203         203
               204         204
               205         205
               206         206
               207         207
               208         208
               209         209
               210         210
               211         211
               212         212
               213         213
               214         214
               215         215
               216         216
               217         217
               218         218
               219         219
               220         220
               221         221
               222         222
               223         223
               224         224
               225         225
               226         226
               227         227
               228         228
               229         229
               230         230
               231         231
               232         232
               233         233
               234         234
               235         235
               236         236
               237         237
               238         238
               239         239
               240         240
               241         241
               242         242
               243         243
               244         244
               245         245
               246         246
               247         247
               248         248
               249         249
               250         250
               251         251
               252         252
               253         253
               254         254
               255         255
               256         256
               257         257
               258         258
               259         259
               260         260
               261         261
               262         262
               263         263
               264         264
               265         265
               266         266
               267         267
               268         268
               269         269
               270         270
               271         271
               272         272
               273         273
               274         274
               275         275
               276         276
               277         277
               278         278
               279         279
               280         280
               281         281
               282         282
               283         283
               284         284
               285         285
               286         286
               287         287
               288         288
               289         289
               290         290
               291         291
               292         292
               293         293
               294         294
               295         295
               296         296
               297         297
               298         298
               299         299
               300         300
               301         301
               302         302
               303         303
               304         304
               305         305
               306         306
               307         307
               308         308
               309         309
               310         310
               311         311
               312         312
               313         313
               314         314
               315         315
               316         316
               317         317
               318         318
               319         319
               320         320
               321         321
               322         322
               323         323
               324         324
               325         325

----------------------------------------------------------------------------------------

 
 
 KPOINTS: Automatic Mesh                          

Automatic generation of k-mesh.
 Grid dimensions read from file:
 generate k-points for:    3    3    1

 Generating k-lattice:

  Cartesian coordinates                     Fractional coordinates (reciprocal lattice)
     0.018456177  0.000005026 -0.000000000     0.333333333  0.000000000  0.000000000
     0.000000000  0.018454135  0.000000000     0.000000000  0.333333333  0.000000000
     0.000000000 -0.000000000  0.016003201     0.000000000  0.000000000  1.000000000

  Length of vectors
     0.018456178  0.018454135  0.016003201

  Shift w.r.t. Gamma in fractional coordinates (k-lattice)
     0.000000000  0.000000000  0.000000000

 
 Subroutine IBZKPT returns following result:
 ===========================================
 
 Found      5 irreducible k-points:
 
 Following reciprocal coordinates:
            Coordinates               Weight
  0.000000  0.000000  0.000000      1.000000
  0.333333  0.000000  0.000000      2.000000
  0.000000  0.333333  0.000000      2.000000
  0.333333  0.333333  0.000000      2.000000
 -0.333333  0.333333  0.000000      2.000000
 
 Following cartesian coordinates:
            Coordinates               Weight
  0.000000  0.000000  0.000000      1.000000
  0.018456  0.000005  0.000000      2.000000
  0.000000  0.018454  0.000000      2.000000
  0.018456  0.018459  0.000000      2.000000
 -0.018456  0.018449  0.000000      2.000000
 


--------------------------------------------------------------------------------------------------------




 Dimension of arrays:
   k-points           NKPTS =      5   k-points in BZ     NKDIM =      5   number of bands    NBANDS=    732
   number of dos      NEDOS =    301   number of ions     NIONS =    325
   non local maximal  LDIM  =      5   non local SUM 2l+1 LMDIM =     13
   total plane-waves  NPLWV = ******
   max r-space proj   IRMAX =   3336   max aug-charges    IRDMAX=  19845
   dimension x,y,z NGX =   100 NGY =  100 NGZ =  350
   dimension x,y,z NGXF=   200 NGYF=  200 NGZF=  700
   support grid    NGXF=   200 NGYF=  200 NGZF=  700
   ions per type =             143  39  47  72  24
   NGX,Y,Z   is equivalent  to a cutoff of   9.20,  9.20,  9.31 a.u.
   NGXF,Y,Z  is equivalent  to a cutoff of  18.41, 18.41, 18.62 a.u.

 SYSTEM =  PSC                                     
 POSCAR =   H  C  N  I Pb                          

 Startparameter for this run:
   NWRITE =      2    write-flag & timer
   PREC   = normal    normal or accurate (medium, high low for compatibility)
   ISTART =      0    job   : 0-new  1-cont  2-samecut
   ICHARG =      1    charge: 1-file 2-atom 10-const
   ISPIN  =      1    spin polarized calculation?
   LNONCOLLINEAR =      F non collinear calculations
   LSORBIT =      F    spin-orbit coupling
   INIWAV =      1    electr: 0-lowe 1-rand  2-diag
   LASPH  =      F    aspherical Exc in radial PAW
 Electronic Relaxation 1
   ENCUT  =  500.0 eV  36.75 Ry    6.06 a.u.  32.93 32.93113.93*2*pi/ulx,y,z
   ENINI  =  500.0     initial cutoff
   ENAUG  =  644.9 eV  augmentation charge cutoff
   NELM   =    600;   NELMIN=  2; NELMDL=  0     # of ELM steps 
   EDIFF  = 0.1E-03   stopping-criterion for ELM
   LREAL  =      T    real-space projection
   NLSPLINE    = F    spline interpolate recip. space projectors
   LCOMPAT=      F    compatible to vasp.4.4
   GGA_COMPAT  = F    GGA compatible to vasp.4.4-vasp.4.6
   LMAXPAW     = -100 max onsite density
   LMAXMIX     =    2 max onsite mixed and CHGCAR
   VOSKOWN=      0    Vosko Wilk Nusair interpolation
   ROPT   =   -0.00050  -0.00050  -0.00050  -0.00050
   ROPT   =   -0.00050
 Ionic relaxation
   EDIFFG = 0.1E-02   stopping-criterion for IOM
   NSW    =      0    number of steps for IOM
   NBLOCK =      1;   KBLOCK =      1    inner block; outer block 
   IBRION =     -1    ionic relax: 0-MD 1-quasi-New 2-CG
   NFREE  =      0    steps in history (QN), initial steepest desc. (CG)
   ISIF   =      2    stress and relaxation
   IWAVPR =     10    prediction:  0-non 1-charg 2-wave 3-comb
   ISYM   =      0    0-nonsym 1-usesym 2-fastsym
   LCORR  =      T    Harris-Foulkes like correction to forces

   POTIM  = 0.5000    time-step for ionic-motion
   TEIN   =    0.0    initial temperature
   TEBEG  =    0.0;   TEEND  =   0.0 temperature during run
   SMASS  =  -3.00    Nose mass-parameter (am)
   estimated Nose-frequenzy (Omega)   =  0.10E-29 period in steps = 0.13E+47 mass=  -0.745E-26a.u.
   SCALEE = 1.0000    scale energy and forces
   NPACO  =    256;   APACO  = 16.0  distance and # of slots for P.C.
   PSTRESS=    0.0 pullay stress

  Mass of Ions in am
   POMASS =   1.00 12.01 14.00126.90207.20
  Ionic Valenz
   ZVAL   =   1.00  4.00  5.00  7.00  4.00
  Atomic Wigner-Seitz radii
   RWIGS  =  -1.00 -1.00 -1.00 -1.00 -1.00
  virtual crystal weights 
   VCA    =   1.00  1.00  1.00  1.00  1.00
   NELECT =    1134.0000    total number of electrons
   NUPDOWN=      -1.0000    fix difference up-down

 DOS related values:
   EMIN   =  10.00;   EMAX   =-10.00  energy-range for DOS
   EFERMI =   0.00
   ISMEAR =     0;   SIGMA  =   0.05  broadening in eV -4-tet -1-fermi 0-gaus

 Electronic relaxation 2 (details)
   IALGO  =     38    algorithm
   LDIAG  =      T    sub-space diagonalisation (order eigenvalues)
   LSUBROT=      F    optimize rotation matrix (better conditioning)
   TURBO    =      0    0=normal 1=particle mesh
   IRESTART =      0    0=no restart 2=restart with 2 vectors
   NREBOOT  =      0    no. of reboots
   NMIN     =      0    reboot dimension
   EREF     =   0.00    reference energy to select bands
   IMIX   =      4    mixing-type and parameters
     AMIX     =   0.40;   BMIX     =  0.01
     AMIX_MAG =   1.60;   BMIX_MAG =  0.01
     AMIN     =   0.01
     WC   =   100.;   INIMIX=   1;  MIXPRE=   1;  MAXMIX= -45

 Intra band minimization:
   WEIMIN = 0.0000     energy-eigenvalue tresh-hold
   EBREAK =  0.34E-07  absolut break condition
   DEPER  =   0.30     relativ break condition  

   TIME   =   0.40     timestep for ELM

  volume/ion in A,a.u.               =      62.72       423.28
  Fermi-wavevector in a.u.,A,eV,Ry     =   0.624944  1.180972  5.313816  0.390554
  Thomas-Fermi vector in A             =   1.685677
 
 Write flags
   LWAVE        =      F    write WAVECAR
   LDOWNSAMPLE  =      F    k-point downsampling of WAVECAR
   LCHARG       =      T    write CHGCAR
   LVTOT        =      T    write LOCPOT, total local potential
   LVHAR        =      F    write LOCPOT, Hartree potential only
   LELF         =      F    write electronic localiz. function (ELF)
   LORBIT       =      0    0 simple, 1 ext, 2 COOP (PROOUT), +10 PAW based schemes


 Dipole corrections
   LMONO  =      F    monopole corrections only (constant potential shift)
   LDIPOL =      T    correct potential (dipole corrections)
   IDIPOL =      3    1-x, 2-y, 3-z, 4-all directions 
   EPSILON=  1.0000000 bulk dielectric constant

 Exchange correlation treatment:
   GGA     =    --    GGA type
   LEXCH   =     8    internal setting for exchange type
   VOSKOWN=      0    Vosko Wilk Nusair interpolation
   LHFCALC =     F    Hartree Fock is set to
   LHFONE  =     F    Hartree Fock one center treatment
   AEXX    =    0.0000 exact exchange contribution

 Linear response parameters
   LEPSILON=     F    determine dielectric tensor
   LRPA    =     F    only Hartree local field effects (RPA)
   LNABLA  =     F    use nabla operator in PAW spheres
   LVEL    =     F    velocity operator in full k-point grid
   LINTERFAST=   F  fast interpolation
   KINTER  =     0    interpolate to denser k-point grid
   CSHIFT  =0.1000    complex shift for real part using Kramers Kronig
   OMEGAMAX=  -1.0    maximum frequency
   DEG_THRESHOLD= 0.2000000E-02 threshold for treating states as degnerate
   RTIME   =   -0.100 relaxation time in fs
  (WPLASMAI=    0.000 imaginary part of plasma frequency in eV, 0.658/RTIME)
   DFIELD  = 0.0000000 0.0000000 0.0000000 field for delta impulse in time
 
 Orbital magnetization related:
   ORBITALMAG=     F  switch on orbital magnetization
   LCHIMAG   =     F  perturbation theory with respect to B field
   DQ        =  0.001000  dq finite difference perturbation B field
   LLRAUG    =     F  two centre corrections for induced B field



--------------------------------------------------------------------------------------------------------


 Static calculation
 charge density and potential will be updated during run
 non-spin polarized calculation
 Variant of blocked Davidson
 Davidson routine will perform the subspace rotation
 perform sub-space diagonalisation
    after iterative eigenvector-optimisation
 modified Broyden-mixing scheme, WC =      100.0
 initial mixing is a Kerker type mixing with AMIX =  0.4000 and BMIX =      0.0100
 Hartree-type preconditioning will be used
 using additional bands           165
 real space projection scheme for non local part
[...]
     13.54561      0.00000     45.35368        -0.004892      0.001379      0.012631
     13.54315      9.03140     45.35368         0.001670      0.003671      0.021152
     14.02645      9.29172     32.62240         0.659765     -0.055219      0.333290
     15.69118      9.29237     33.42765        -0.372613     -0.358766     -0.483349
     13.81351     11.38297     33.77993        -0.227438     -0.091753      0.065782
     13.90083     11.42486     35.50908        -0.083808      0.337162      0.501333
     12.28383      8.36670     35.10967         0.461247      0.412415     -0.101633
     12.20575     10.08832     35.51668        -0.005094     -0.017051     -0.163252
     14.60789      7.78485     35.84752        -0.196658      0.078176     -0.354535
     15.76082      9.09286     35.89503         0.050312      0.090259      0.017586
     15.49259      7.08399     34.04215         0.310435     -0.401452      0.392059
     13.74695      6.94655     33.76843        -0.126483     -0.073369      0.168175
     13.97312      7.06833     31.44437         0.187101     -0.287947     -0.201934
     15.61761      7.74022     31.50509        -0.559722     -0.783789      0.112005
     16.14619     11.39838     33.42939        -0.054408     -0.113987     -0.019613
     16.53495     11.05466     35.10353         0.058676      0.015509      0.298682
     15.76995     12.60862     34.62623        -0.087252     -0.165172      0.183212
     10.72977      9.63248     33.56851         0.293129     -0.128302      0.181776
     12.04217      8.78736     32.68856        -0.221085      0.395204      0.314011
     12.08421     10.56999     32.93280         0.059089      0.029280     -0.006295
     13.23202      8.66814     37.56016        -0.122216     -0.139310     -0.150493
     13.59662     10.31385     37.02775        -0.269212      0.246811      0.328036
     14.73789      9.49274     38.03197         0.132050     -0.182980     -0.231056
     15.11867      4.90448     32.52902        -0.037412     -0.024174     -0.235483
     15.22729      5.22594     30.79098        -0.161709     -0.281746     -0.104025
     16.93530      3.31757     31.47230         0.041179      0.072485     -0.067473
     17.55945      7.56162     32.17355        -0.209278      0.156148     -0.080378
      1.31142      2.98273     31.57182         0.144289     -0.081510     -0.053520
      1.85544      7.21608     32.32915        -0.038804     -0.379257     -0.191644
      2.86852      4.90044     32.01820        -0.455519      0.090315      0.065358
     17.93904      4.18023     35.00625         0.234303     -0.609605     -1.404521
      0.39794     13.91685     34.83187        -0.252548     -0.238484      1.209291
      9.11553      4.54611     34.92460         1.339260     -0.915279     -0.347011
      9.16227     13.91786     34.85198         2.224393     -0.742121     -0.590332
      4.51538      9.05992     34.74397        -0.935342     -1.743634      0.784557
      4.67513     17.89790     34.84583         0.083925     -0.114101      0.584791
     13.73545     17.89828     34.88470        -0.121273     -0.379052      0.507407
      0.02985      4.47543     40.61153         1.849610     -1.830811      0.409995
      0.13876     13.81154     40.70410         1.239842     -2.071914      2.793044
      9.02897      4.58985     40.48778         2.182427     -2.503699      1.437778
      8.97547     13.55818     40.64132         1.444350     -1.889429      0.766948
      4.55135      9.02843     40.60193        -2.645589     -2.746023      0.285484
      4.53017     18.05300     40.53616        -0.063838     -0.166254      1.942947
     13.35510      8.99713     40.75245         1.867942      2.047055      0.162721
     13.57729      0.05205     40.56768        -2.442349     -2.061207      0.549884
      9.02897      4.51561     46.44552         0.011638      0.004153      0.043911
      9.02651     13.54701     46.44552         0.006814      0.008364      0.054406
     18.05937      4.51561     46.44552         0.012800      0.005345      0.049749
     18.05691     13.54701     46.44552         0.032272     -0.014505      0.052000
      4.51521      0.00002     46.44421        -0.004827     -0.002443      0.060393
      4.51275      9.03142     46.44421        -0.012856     -0.010843      0.057592
     13.54561      0.00002     46.44421         0.001322      0.004245      0.051499
     13.54315      9.03142     46.44421        -0.009468     -0.010157      0.065518
     17.02966      5.49722     31.80355         0.595447     -1.781285     -0.435114
     17.60427      4.17299     31.60831        -0.435836      1.324476      0.370932
     17.89758      6.55189     31.96858         1.284638      0.034323      0.598656
      0.91642      3.99139     31.67518         0.001826     -0.037585      0.085182
      1.24591      6.33487     32.06936        -0.816774      0.904031      0.171205
      1.78056      5.07401     31.94243         0.486408     -0.541358     -0.356594
     14.65800      8.87566     33.44387         0.071443      2.145552      0.114383
     14.38588     11.01641     34.63756        -0.344586     -0.008150     -0.522067
     12.54630      9.38652     34.74064        -0.318642     -0.386060     -0.088148
     14.68590      8.87470     35.92257         0.412010     -0.093925      0.769100
     14.67065      7.41108     33.41647         0.400086     -1.311598     -0.670192
     14.94528      6.93736     31.95204        -0.280795      2.820514      0.333926
     15.78818     11.51985     34.46192         0.501100      0.019428     -0.336376
     11.82280      9.61336     33.40523         0.495906     -0.198163     -0.132589
     14.02638      9.33197     37.21339         0.165700      0.569149     -0.100690
     15.53859      5.59906     31.77331        -0.077028     -0.955763     -0.145019
      0.98343      3.77230     35.58741        -0.279716      0.400498      0.783074
      0.87531     12.84475     35.41069         0.717075     -1.251871      0.040162
      9.90912      3.67187     35.50829         1.063442     -0.389736     -0.939224
     10.09266     13.16134     35.42189        -0.184571      0.217998     -0.859236
      8.10517      5.11279     35.48309        -1.538157      0.527014      1.688661
      8.02050     14.23251     35.33600        -2.288718     -0.029195      2.510034
     16.99502      4.93201     35.51351        -0.169397      0.324144      0.171431
     17.55637     14.68366     35.38748        -1.148432      0.864524      0.258922
      4.12825      8.06363     35.55291        -0.645881     -0.175567     -2.505983
      3.53243     17.55100     35.40764        -0.413441     -1.094439     -2.268216
     12.80861     17.15747     35.44957        -0.189700     -0.955023     -1.883937
      5.60123      0.54427     35.45648         1.088799      0.032609     -1.938038
      5.18284     10.09107     35.14952         0.601764      1.719588     -1.655616
     14.29978      0.86955     35.47253         1.288448      0.328971     -1.970493
      0.94655      3.60549     41.10763        -1.962948      1.865130     -0.598917
      0.92319     12.87749     41.31941        -2.259937      2.165476     -0.392920
      9.82194      3.62766     41.05349        -2.152642      2.324960     -0.536841
      9.64662     12.73755     41.44894        -0.174465      0.379530      0.903360
      3.72485      8.14022     41.20929         2.169566      2.498249      1.956793
      3.66001     17.23940     41.15643         2.257457      2.349332      1.918765
     12.68443      8.19722     41.50385        -2.084803     -2.168110     -1.422837
     12.62028     17.35769     41.16933         2.712790      2.193671      1.999132
      8.16471      5.29959     41.11936        -1.217345      0.619197      2.247476
      8.15522     14.47421     40.99981        -1.396620      1.619139      2.013855
     17.28568      5.20289     41.31290        -1.154881      1.044822      1.042028
     17.25980     14.49839     41.30640         0.294752      0.224127     -1.758606
      5.38337      0.85676     41.10852        -2.658148     -2.451510      2.137625
      5.30150      9.88792     41.17222         1.206234      1.375906      2.595015
     14.46934      0.77727     41.14071         0.800500      0.778380      2.727602
     14.27055      9.88617     41.17760        -0.835735     -0.910632     -0.287049
      0.82731      3.68697     47.03596         0.015792     -0.024679     -0.094789
      0.82485     12.71837     47.03596         0.006269     -0.008221     -0.097331
      9.85771      3.68697     47.03596         0.017904     -0.021642     -0.086924
      9.85525     12.71837     47.03596         0.024299     -0.021192     -0.091257
      3.68432      8.20234     47.03465        -0.002289     -0.004426     -0.081576
      3.68186     17.23373     47.03465        -0.007302     -0.007697     -0.076646
     12.71472      8.20234     47.03465        -0.004486     -0.004755     -0.083925
     12.71226     17.23373     47.03465        -0.008583     -0.017101     -0.073310
      8.20068      5.34457     47.03603        -0.019034      0.018198     -0.092724
      8.19822     14.37597     47.03603        -0.017056      0.013840     -0.100752
     17.23108      5.34457     47.03603        -0.022398      0.014510     -0.100010
     17.22862     14.37597     47.03603        -0.035548      0.025361     -0.090672
      5.34365      0.82909     47.03465         0.013705      0.009775     -0.080252
      5.34119      9.86049     47.03465         0.017332      0.016524     -0.075713
     14.37405      0.82909     47.03465         0.010663      0.007167     -0.078427
     14.37159      9.86049     47.03465         0.009912      0.019763     -0.081660
     14.10733      9.53826     34.70960        -1.207011     -0.977186     -0.728327
      8.97608      0.03781     34.50623        -0.007195     -0.008665      0.000896
      8.47271      8.67712     34.72298        -0.070922     -0.024465     -0.045914
     17.92643      0.10301     34.43187        -0.005954      0.010427      0.025547
      0.47375      8.92836     34.90749         0.048079     -0.009220     -0.289768
      4.64076      4.44410     34.64930        -0.103564     -0.001103     -0.028960
      4.41927     13.71024     34.46132         0.040280      0.020218      0.035980
     13.30857      4.12263     34.70560         0.103320      0.087558     -0.052808
     13.03983     14.05412     34.13202         0.132203      0.201600     -0.069311
      0.10336      0.03700     40.90020        -0.078959     -0.050054     -0.069886
      0.05720      9.08833     41.03187        -0.024411     -0.002363      0.046659
      9.08932      0.05967     40.87516        -0.102456     -0.057919      0.123389
      9.03705      9.02207     40.94703        -0.050000     -0.051897     -0.031116
      4.48281      4.47910     40.94016         0.059974     -0.039758      0.068905
      4.49381     13.55573     40.90454         0.058496      0.004905     -0.029167
     13.39263      4.49411     40.96777         0.042818     -0.017347     -0.077685
     13.53960     13.72032     40.80784         0.039461     -0.036385      0.215601
      2.63892      1.83966     38.03639         0.071455      0.083248     -0.002412
      2.69357     10.92969     38.04337         0.065494      0.082452     -0.015482
     11.56338      1.89924     38.04929         0.206247      0.106159      0.040667
     11.12524     11.47360     38.40712         0.119647     -0.239764     -0.244903
      6.45635      7.01668     38.19795         0.155678      0.055348      0.019818
      6.46338     16.11015     38.00488         0.082237      0.068387      0.016046
     15.96116      6.66166     38.40275        -0.172707     -0.114080     -0.071146
     15.45472     16.16909     37.95068         0.100119      0.012957      0.004130
      2.02302      6.40841     38.12787         0.079390     -0.009984     -0.036909
      1.96244     15.53302     37.95220        -0.024822      0.118755      0.022270
     11.11053      6.61206     37.92471         0.034903     -0.036821      0.007356
     11.02316     15.59291     38.11561        -0.019236      0.067088      0.010121
      7.11927      2.53762     38.12576         0.057802      0.041885     -0.044826
      6.98813     11.66501     37.86831         0.107948     -0.177190      0.049054
     16.08665      2.42950     38.13701        -0.178575      0.201551      0.044713
     16.47268     11.97601     38.36014        -0.058584     -0.093214     -0.308114
      0.00000      0.00000     47.17356        -0.003638     -0.000173      0.433687
     -0.00246      9.03140     47.17356        -0.004786      0.003416      0.577150
      9.03040      0.00000     47.17356        -0.001754     -0.002756      0.436686
      9.02794      9.03140     47.17356         0.001359      0.003179      0.488016
      4.51398      4.51570     47.17425         0.000977     -0.003297      0.491995
      4.51152     13.54710     47.17425         0.002652      0.002840      0.439117
     13.54438      4.51570     47.17425         0.000430     -0.001009      0.449634
     13.54192     13.54710     47.17425         0.000064      0.000690      0.233928
      2.45192      2.06295     44.04013         0.013867     -0.039270      0.013918
      2.44946     11.09435     44.04013         0.056340     -0.014900      0.039378
     11.48232      2.06295     44.04013        -0.015488     -0.017533     -0.020636
     11.47986     11.09435     44.04013         0.072710      0.007091      0.014089
      6.57602      6.96845     44.04013         0.014155     -0.026079     -0.056598
      6.57356     15.99985     44.04013         0.031731     -0.015276     -0.088885
     15.60642      6.96845     44.04013        -0.038382     -0.009518     -0.034320
     15.60396     15.99985     44.04013        -0.076603      0.026867      0.041910
      2.06108      6.57881     44.04000        -0.008692     -0.021890      0.015700
      2.05862     15.61021     44.04000         0.010804      0.026227      0.007855
     11.09148      6.57881     44.04000        -0.083806     -0.087672      0.138374
     11.08902     15.61021     44.04000         0.013059     -0.020004     -0.013523
      6.96686      2.45259     44.04007         0.021619     -0.001646     -0.042969
      6.96440     11.48399     44.04007        -0.034215     -0.016579     -0.025705
     15.99726      2.45259     44.04007        -0.017321     -0.015401     -0.051318
     15.99481     11.48399     44.04007        -0.046150      0.058182     -0.054905
      2.43163      2.08322     50.06849        -0.000626     -0.021588      0.019478
      2.42917     11.11462     50.06849         0.018076      0.000703      0.019518
     11.46203      2.08322     50.06849         0.006944     -0.015596      0.019473
     11.45957     11.11462     50.06849         0.029995      0.010471      0.017499
      6.59631      6.94818     50.06849        -0.004723      0.015189      0.020401
      6.59385     15.97958     50.06849        -0.006208      0.012648      0.018579
     15.62671      6.94818     50.06849        -0.020268      0.001793      0.019614
     15.62425     15.97958     50.06849        -0.026321     -0.004577      0.017755
      2.08113      6.59901     50.06905        -0.008423     -0.012447      0.020800
      2.07867     15.63041     50.06905        -0.014413     -0.006910      0.019408
     11.11153      6.59901     50.06905        -0.008109     -0.010549      0.019171
     11.10907     15.63041     50.06905         0.004481     -0.025522      0.017889
      6.94681      2.43239     50.06905         0.019766     -0.001443      0.019884
      6.94435     11.46379     50.06905         0.009230      0.013282      0.019663
     15.97721      2.43239     50.06905         0.012069      0.004846      0.019063
     15.97475     11.46379     50.06905        -0.018685      0.038061      0.018226
     18.04584      0.06575     37.64884        -0.002540     -0.145900      0.059015
      0.17837      9.09758     37.96253        -0.002515      0.028301     -0.161303
      9.06037      0.01697     37.63711        -0.101593     -0.207757      0.015451
      9.01643      8.97025     37.73174        -0.095167      0.216742     -0.018306
      4.61832      4.48117     37.75437        -0.258311     -0.018869      0.035409
      4.51012     13.65686     37.69161        -0.205063     -0.098152     -0.046229
     13.51688      4.52757     37.85776         0.168550     -0.023897     -0.066554
     13.52124     13.68279     37.79121         0.080044     -0.073650     -0.088205
      0.00001      0.00001     44.04300         0.051775     -0.013810     -0.000187
     -0.00245      9.03141     44.04300         0.064949     -0.039552      0.262848
      9.03041      0.00001     44.04300         0.025697      0.017595     -0.059241
      9.02795      9.03141     44.04300        -0.016982     -0.036434      0.093625
      4.51397      4.51569     44.04275        -0.031804      0.024815      0.056018
      4.51151     13.54709     44.04275        -0.053317      0.004418      0.022905
     13.54437      4.51569     44.04275        -0.032752     -0.017661      0.234335
     13.54191     13.54709     44.04275        -0.046819      0.006313      0.097447
      0.00000      0.00000     50.44728         0.015289      0.014083     -0.631321
     -0.00246      9.03140     50.44728         0.013506     -0.016290     -0.669600
      9.03040      0.00000     50.44728        -0.013919      0.016808     -0.633014
      9.02794      9.03140     50.44728        -0.016842     -0.014787     -0.645629
      4.51397      4.51570     50.44728        -0.005199      0.010138     -0.648472
      4.51151     13.54710     50.44728        -0.004268     -0.011094     -0.633343
     13.54437      4.51570     50.44728         0.002771      0.010139     -0.635640
     13.54191     13.54710     50.44728         0.004987     -0.009898     -0.576463
 -----------------------------------------------------------------------------------
    total drift:                                0.136898      0.042654     -0.199299


--------------------------------------------------------------------------------------------------------



  FREE ENERGIE OF THE ION-ELECTRON SYSTEM (eV)
  ---------------------------------------------------
  free  energy   TOTEN  =     -1571.53569928 eV

  energy  without entropy=    -1571.53569928  energy(sigma->0) =    -1571.53569928
 


--------------------------------------------------------------------------------------------------------


    POTLOK:  cpu time    0.5092: real time    0.5091


--------------------------------------------------------------------------------------------------------


     LOOP+:  cpu time  324.6214: real time  324.9307
 vacuum level on the upper side and lower side of the slab         2.347         1.538
    4ORBIT:  cpu time    0.0000: real time    0.0000

 total amount of memory used by VASP MPI-rank0  8653581. kBytes
=======================================================================

   base      :      30000. kBytes
   nonlr-proj:      53619. kBytes
   fftplans  :     249280. kBytes
   grid      :     701440. kBytes
   one-center:       2636. kBytes
   wavefun   :    7616606. kBytes
 
  
  
 General timing and accounting informations for this job:
 ========================================================
  
                  Total CPU time used (sec):      538.053
                            User time (sec):      431.323
                          System time (sec):      106.730
                         Elapsed time (sec):      539.619
  
                   Maximum memory used (kb):    10310616.
                   Average memory used (kb):          N/A
  
                          Minor page faults:      3756819
                          Major page faults:           14
                 Voluntary context switches:        11296
