<?xml version="1.0" encoding="ISO-8859-1"?>
<modeling>
 <generator>
  <i name="program" type="string">vasp </i>
  <i name="version" type="string">6.2.1  </i>
  <i name="subversion" type="string">16May21 (build Nov 15 2021 14:57:28) complex                          parallel </i>
  <i name="platform" type="string">LinuxPGI </i>
  <i name="date" type="string">2023 07 30 </i>
  <i name="time" type="string">09:55:08 </i>
 </generator>
 <incar>
  <i type="string" name="SYSTEM">PSC</i>
  <i type="int" name="ISTART">     1</i>
  <i type="string" name="PREC">Normal</i>
  <i name="BMIX">      0.01000000</i>
  <i name="AMIN">      0.01000000</i>
  <i type="int" name="ICHARG">     1</i>
  <i type="int" name="NELM">   600</i>
  <i type="int" name="ISYM">     0</i>
  <i name="ENCUT">    500.00000000</i>
  <i type="string" name="LREAL">Auto</i>
  <i type="int" name="ISMEAR">     0</i>
  <i name="SIGMA">      0.05000000</i>
  <i type="logical" name="LWAVE"> F  </i>
  <i type="logical" name="LVTOT"> T  </i>
  <i type="logical" name="GGA_COMPAT"> F  </i>
  <i type="logical" name="LDIPOL"> T  </i>
  <i type="int" name="IDIPOL">     3</i>
  <i type="int" name="IVDW">    12</i>
 </incar>
 <primitive_cell>
  <structure name="primitive_cell" >
   <crystal>
    <varray name="basis" >
     <v>      18.06080055       0.00000000       0.00000000 </v>
     <v>      -0.00491865      18.06279945       0.00000000 </v>
     <v>       0.00000000       0.00000000      62.48749924 </v>
    </varray>
    <i name="volume">  20385.21054034 </i>
    <varray name="rec_basis" >
     <v>       0.05536853       0.00001508      -0.00000000 </v>
     <v>       0.00000000       0.05536240       0.00000000 </v>
     <v>       0.00000000      -0.00000000       0.01600320 </v>
    </varray>
   </crystal>
   <varray name="positions" >
    <v>       0.43337391       0.27414521       0.58393375 </v>
    <v>       0.42607053       0.77124704       0.58100042 </v>
    <v>       0.93981369       0.29517427       0.58373126 </v>
    <v>       0.95018950       0.80592309       0.58166651 </v>
    <v>       0.30405765       0.05048839       0.58222064 </v>
    <v>       0.30537653       0.56675340       0.57766699 </v>
    <v>       0.77664789       0.06621432       0.58218395 </v>
    <v>       0.09217893       0.17910678       0.56107224 </v>
    <v>       0.08811973       0.67902798       0.55902893 </v>
    <v>       0.59715331       0.18462311       0.56016746 </v>
    <v>       0.61158901       0.72208952       0.55988243 </v>
    <v>       0.36092711       0.04093583       0.55918014 </v>
    <v>       0.30136431       0.59962182       0.55115315 </v>
    <v>       0.83234600       0.07815368       0.55924638 </v>
    <v>       0.06743583       0.22217593       0.58520262 </v>
    <v>       0.03321870       0.69138497       0.58170296 </v>
    <v>       0.54313097       0.18644380       0.58373156 </v>
    <v>       0.55483295       0.70790363       0.58180265 </v>
    <v>       0.24156946       0.44507281       0.58452866 </v>
    <v>       0.18166615       0.98794066       0.58140798 </v>
    <v>       0.68901746       0.96001002       0.58190966 </v>
    <v>       0.41605378       0.31917423       0.55971907 </v>
    <v>       0.40679748       0.82049478       0.55781573 </v>
    <v>       0.89765963       0.28686943       0.55860416 </v>
    <v>       0.95309431       0.85975594       0.55836223 </v>
    <v>       0.19873352       0.40132352       0.56252761 </v>
    <v>       0.15808723       0.93971544       0.55767593 </v>
    <v>       0.69028891       0.90161404       0.55883510 </v>
    <v>       0.51823337       0.26481620       0.54230372 </v>
    <v>       0.52050181       0.79276638       0.54202150 </v>
    <v>       0.98603441       0.21211213       0.54310637 </v>
    <v>       0.04418913       0.78703666       0.54225744 </v>
    <v>       0.23448764       0.49802885       0.53909281 </v>
    <v>       0.27235081       0.97029763       0.54159124 </v>
    <v>       0.78048726       0.97305010       0.54245963 </v>
    <v>       0.43887344       0.29154818       0.67456784 </v>
    <v>       0.43762836       0.81525065       0.67222131 </v>
    <v>       0.95274552       0.29102498       0.67770141 </v>
    <v>       0.94161592       0.79926847       0.67639102 </v>
    <v>       0.30112440       0.05326493       0.67465520 </v>
    <v>       0.29930946       0.55589777       0.67571688 </v>
    <v>       0.80756953       0.04988803       0.67534308 </v>
    <v>       0.80750606       0.55436975       0.67447536 </v>
    <v>       0.08366531       0.17137033       0.64751269 </v>
    <v>       0.08901748       0.68753258       0.65243689 </v>
    <v>       0.57923027       0.17420673       0.64752417 </v>
    <v>       0.56815570       0.66521410       0.65706648 </v>
    <v>       0.17655435       0.41639587       0.65088812 </v>
    <v>       0.17180685       0.92134650       0.65008425 </v>
    <v>       0.66455693       0.41669623       0.65637121 </v>
    <v>       0.66411534       0.93237987       0.65016648 </v>
    <v>       0.06091406       0.19063714       0.67371819 </v>
    <v>       0.04823518       0.69896181       0.67707066 </v>
    <v>       0.54167251       0.18732431       0.67282726 </v>
    <v>       0.53385012       0.70667344       0.68010038 </v>
    <v>       0.20080831       0.44759886       0.67636636 </v>
    <v>       0.19722303       0.95247014       0.67548252 </v>
    <v>       0.70426614       0.44827583       0.68023444 </v>
    <v>       0.69367998       0.95775149       0.67570833 </v>
    <v>       0.42224775       0.33164399       0.65009005 </v>
    <v>       0.42559128       0.83346828       0.64514723 </v>
    <v>       0.92073283       0.32235946       0.65306946 </v>
    <v>       0.92735888       0.83954398       0.65180939 </v>
    <v>       0.33065107       0.07665584       0.64881013 </v>
    <v>       0.32583959       0.58163438       0.65013327 </v>
    <v>       0.83741996       0.07317622       0.64970557 </v>
    <v>       0.81506280       0.58025166       0.64800266 </v>
    <v>       0.99693887       0.25316295       0.63250999 </v>
    <v>       0.02053844       0.77463042       0.63514223 </v>
    <v>       0.50742527       0.26517419       0.63126426 </v>
    <v>       0.50745190       0.74045103       0.63373222 </v>
    <v>       0.25281331       0.99443395       0.63176894 </v>
    <v>       0.25015004       0.49684745       0.63255926 </v>
    <v>       0.75090664       0.99953198       0.63203779 </v>
    <v>       0.73046513       0.49882736       0.63494591 </v>
    <v>       0.44874502       0.30128397       0.76888902 </v>
    <v>       0.44874501       0.80128391       0.76888902 </v>
    <v>       0.94874497       0.30128397       0.76888902 </v>
    <v>       0.94874501       0.80128391       0.76888902 </v>
    <v>       0.30127600       0.05129450       0.76887296 </v>
    <v>       0.30127601       0.55129450       0.76887296 </v>
    <v>       0.80127594       0.05129450       0.76887296 </v>
    <v>       0.80127598       0.55129450       0.76887296 </v>
    <v>       0.07877100       0.17118050       0.74344197 </v>
    <v>       0.07877101       0.67118045       0.74344197 </v>
    <v>       0.57877100       0.17118050       0.74344197 </v>
    <v>       0.57877099       0.67118045       0.74344197 </v>
    <v>       0.17119950       0.42117448       0.74342103 </v>
    <v>       0.17119950       0.92117451       0.74342103 </v>
    <v>       0.67119951       0.42117448       0.74342103 </v>
    <v>       0.67119950       0.92117451       0.74342103 </v>
    <v>       0.05125600       0.19871499       0.76888902 </v>
    <v>       0.05125600       0.69871493       0.76888902 </v>
    <v>       0.55125603       0.19871499       0.76888902 </v>
    <v>       0.55125602       0.69871493       0.76888902 </v>
    <v>       0.19872349       0.44870397       0.76887205 </v>
    <v>       0.19872349       0.94870397       0.76887205 </v>
    <v>       0.69872352       0.44870397       0.76887205 </v>
    <v>       0.69872351       0.94870397       0.76887205 </v>
    <v>       0.42123152       0.32881747       0.74344197 </v>
    <v>       0.42123151       0.82881744       0.74344197 </v>
    <v>       0.92123147       0.32881747       0.74344197 </v>
    <v>       0.92123151       0.82881744       0.74344197 </v>
    <v>       0.32880050       0.07882500       0.74342103 </v>
    <v>       0.32880049       0.57882496       0.74342103 </v>
    <v>       0.82880048       0.07882500       0.74342103 </v>
    <v>       0.82880052       0.57882496       0.74342103 </v>
    <v>       0.00000350       0.25000148       0.72582199 </v>
    <v>       0.00000350       0.75000145       0.72582199 </v>
    <v>       0.50000351       0.25000148       0.72582199 </v>
    <v>       0.50000350       0.75000145       0.72582199 </v>
    <v>       0.25000050       0.00000000       0.72580398 </v>
    <v>       0.25000052       0.50000000       0.72580398 </v>
    <v>       0.75000050       0.00000000       0.72580398 </v>
    <v>       0.75000049       0.50000000       0.72580398 </v>
    <v>       0.77676383       0.51441208       0.52206279 </v>
    <v>       0.86893797       0.51444767       0.53494934 </v>
    <v>       0.76500554       0.63018884       0.54058694 </v>
    <v>       0.76984055       0.63250766       0.56825898 </v>
    <v>       0.68026376       0.46320069       0.56186714 </v>
    <v>       0.67596642       0.55851369       0.56838059 </v>
    <v>       0.80893464       0.43098775       0.57367511 </v>
    <v>       0.87279047       0.50340271       0.57443533 </v>
    <v>       0.85790855       0.39218670       0.54478340 </v>
    <v>       0.76125344       0.38457794       0.54040301 </v>
    <v>       0.77377790       0.39131989       0.50321060 </v>
    <v>       0.86484093       0.42851730       0.50418226 </v>
    <v>       0.89416251       0.63104189       0.53497724 </v>
    <v>       0.91568280       0.61201276       0.56176879 </v>
    <v>       0.87334880       0.69804334       0.55413055 </v>
    <v>       0.59423661       0.53327734       0.53720364 </v>
    <v>       0.66688973       0.48648938       0.52312154 </v>
    <v>       0.66924430       0.58518033       0.52703028 </v>
    <v>       0.73276807       0.47988899       0.60108275 </v>
    <v>       0.75298042       0.57099955       0.59256255 </v>
    <v>       0.81615820       0.52554099       0.60863327 </v>
    <v>       0.83717258       0.27152396       0.52056848 </v>
    <v>       0.84319138       0.28932046       0.49275420 </v>
    <v>       0.93773286       0.18366846       0.50365750 </v>
    <v>       0.97235476       0.41862955       0.51487972 </v>
    <v>       0.07265650       0.16513114       0.50525010 </v>
    <v>       0.10284158       0.39949978       0.51736990 </v>
    <v>       0.15889967       0.27129999       0.51239362 </v>
    <v>       0.99332118       0.23142735       0.56021202 </v>
    <v>       0.02224295       0.77047017       0.55742143 </v>
    <v>       0.50478189       0.25168348       0.55890537 </v>
    <v>       0.50751136       0.77052614       0.55774321 </v>
    <v>       0.25014668       0.50157918       0.55601477 </v>
    <v>       0.25912471       0.99087092       0.55764480 </v>
    <v>       0.76078151       0.99089183       0.55826687 </v>
    <v>       0.00172029       0.24777033       0.64991441 </v>
    <v>       0.00789123       0.76464009       0.65139585 </v>
    <v>       0.49999005       0.25410536       0.64793404 </v>
    <v>       0.49716299       0.75061322       0.65039119 </v>
    <v>       0.25213762       0.49983532       0.64976082 </v>
    <v>       0.25110107       0.99945725       0.64870824 </v>
    <v>       0.73958796       0.49810277       0.65216957 </v>
    <v>       0.75175547       0.00288152       0.64921280 </v>
    <v>       0.49998898       0.24999498       0.74327702 </v>
    <v>       0.49998903       0.74999496       0.74327702 </v>
    <v>       0.99998898       0.24999498       0.74327702 </v>
    <v>       0.99998903       0.74999496       0.74327702 </v>
    <v>       0.25000050       0.00000100       0.74325596 </v>
    <v>       0.25000052       0.50000100       0.74325596 </v>
    <v>       0.75000050       0.00000100       0.74325596 </v>
    <v>       0.75000049       0.50000100       0.74325596 </v>
    <v>       0.94299032       0.30433958       0.50895858 </v>
    <v>       0.97478554       0.23102696       0.50583408 </v>
    <v>       0.99106146       0.36272861       0.51159967 </v>
    <v>       0.05080080       0.22097281       0.50690421 </v>
    <v>       0.06907986       0.35071365       0.51321239 </v>
    <v>       0.09866347       0.28090933       0.51118119 </v>
    <v>       0.81172586       0.49137787       0.53520904 </v>
    <v>       0.79669117       0.60989493       0.55431180 </v>
    <v>       0.69481167       0.51966044       0.55596142 </v>
    <v>       0.81327061       0.49132449       0.57487603 </v>
    <v>       0.81240432       0.41029507       0.53477047 </v>
    <v>       0.82760301       0.38406873       0.51133485 </v>
    <v>       0.87434226       0.63776684       0.55150105 </v>
    <v>       0.65475584       0.53221879       0.53459063 </v>
    <v>       0.77676068       0.51664009       0.59553342 </v>
    <v>       0.86043314       0.30997727       0.50847472 </v>
    <v>       0.05450800       0.20884361       0.56951247 </v>
    <v>       0.04865855       0.71111642       0.56668433 </v>
    <v>       0.54870881       0.20328364       0.56824622 </v>
    <v>       0.55901404       0.72864346       0.56686368 </v>
    <v>       0.44884841       0.28305651       0.56784295 </v>
    <v>       0.44429764       0.78794579       0.56548914 </v>
    <v>       0.94106344       0.27304802       0.56832980 </v>
    <v>       0.97229159       0.81292259       0.56631298 </v>
    <v>       0.22869686       0.44642216       0.56896036 </v>
    <v>       0.19584992       0.97166544       0.56663561 </v>
    <v>       0.70945258       0.94987892       0.56730658 </v>
    <v>       0.31013988       0.03013204       0.56741714 </v>
    <v>       0.28711814       0.55866564       0.56250478 </v>
    <v>       0.79177087       0.04814062       0.56767403 </v>
    <v>       0.05246344       0.19960878       0.65785369 </v>
    <v>       0.05130975       0.71292854       0.66124279 </v>
    <v>       0.54388090       0.20083581       0.65698724 </v>
    <v>       0.53431127       0.70518164       0.66331565 </v>
    <v>       0.20636218       0.45066239       0.65948048 </v>
    <v>       0.20290955       0.95441475       0.65863454 </v>
    <v>       0.70244170       0.45381759       0.66419449 </v>
    <v>       0.69902811       0.96096333       0.65884100 </v>
    <v>       0.45214812       0.29339794       0.65804135 </v>
    <v>       0.45176100       0.80132715       0.65612818 </v>
    <v>       0.95716140       0.28804449       0.66113871 </v>
    <v>       0.95586849       0.80266547       0.66103456 </v>
    <v>       0.29808228       0.04743250       0.65786797 </v>
    <v>       0.29368545       0.54741878       0.65888734 </v>
    <v>       0.80115800       0.04303142       0.65838303 </v>
    <v>       0.79028860       0.54732221       0.65897336 </v>
    <v>       0.04586250       0.20411950       0.75272599 </v>
    <v>       0.04586250       0.70411946       0.75272599 </v>
    <v>       0.54586251       0.20411950       0.75272599 </v>
    <v>       0.54586250       0.70411946       0.75272599 </v>
    <v>       0.20411900       0.45410100       0.75270499 </v>
    <v>       0.20411899       0.95410095       0.75270499 </v>
    <v>       0.70411898       0.45410100       0.75270499 </v>
    <v>       0.70411896       0.95410095       0.75270499 </v>
    <v>       0.45414002       0.29588849       0.75272697 </v>
    <v>       0.45414001       0.79588852       0.75272697 </v>
    <v>       0.95414002       0.29588849       0.75272697 </v>
    <v>       0.95414006       0.79588852       0.75272697 </v>
    <v>       0.29588249       0.04590050       0.75270499 </v>
    <v>       0.29588248       0.54590053       0.75270499 </v>
    <v>       0.79588244       0.04590050       0.75270499 </v>
    <v>       0.79588248       0.54590053       0.75270499 </v>
    <v>       0.78124597       0.52806087       0.55546468 </v>
    <v>       0.49699283       0.00209323       0.55221012 </v>
    <v>       0.46925253       0.48038618       0.55567889 </v>
    <v>       0.99256173       0.00570306       0.55102006 </v>
    <v>       0.02636518       0.49429531       0.55863163 </v>
    <v>       0.25701928       0.24603582       0.55449976 </v>
    <v>       0.24489528       0.75903197       0.55149135 </v>
    <v>       0.73693786       0.22823890       0.55540070 </v>
    <v>       0.72220809       0.77806987       0.54622162 </v>
    <v>       0.00572366       0.00204847       0.65453405 </v>
    <v>       0.00330437       0.50315192       0.65664122 </v>
    <v>       0.50326347       0.00330354       0.65413334 </v>
    <v>       0.50050423       0.49948348       0.65528347 </v>
    <v>       0.24827425       0.24797360       0.65517352 </v>
    <v>       0.24902021       0.75047785       0.65460365 </v>
    <v>       0.74159799       0.24880469       0.65561538 </v>
    <v>       0.74987455       0.75958973       0.65305603 </v>
    <v>       0.14614067       0.10184800       0.60870402 </v>
    <v>       0.14930393       0.60509404       0.60881562 </v>
    <v>       0.64027575       0.10514636       0.60891049 </v>
    <v>       0.61616142       0.63520631       0.61463685 </v>
    <v>       0.35758467       0.38846039       0.61128950 </v>
    <v>       0.35811088       0.89189649       0.60819977 </v>
    <v>       0.88384662       0.36880565       0.61456689 </v>
    <v>       0.85594891       0.89515981       0.60733241 </v>
    <v>       0.11210845       0.35478486       0.61016794 </v>
    <v>       0.10889165       0.85994554       0.60735665 </v>
    <v>       0.61527336       0.36605933       0.60691674 </v>
    <v>       0.61057117       0.86326092       0.60997173 </v>
    <v>       0.39422201       0.14048867       0.61013412 </v>
    <v>       0.38709856       0.64580323       0.60601415 </v>
    <v>       0.89073065       0.13450299       0.61031421 </v>
    <v>       0.91224862       0.66302051       0.61388499 </v>
    <v>       0.00000000       0.00000000       0.75492797 </v>
    <v>       0.00000000       0.50000000       0.75492797 </v>
    <v>       0.50000000       0.00000000       0.75492797 </v>
    <v>       0.49999999       0.50000000       0.75492797 </v>
    <v>       0.25000050       0.25000000       0.75493902 </v>
    <v>       0.25000051       0.74999997       0.75493902 </v>
    <v>       0.75000047       0.25000000       0.75493902 </v>
    <v>       0.75000046       0.74999997       0.75493902 </v>
    <v>       0.13579050       0.11421000       0.70478299 </v>
    <v>       0.13579050       0.61420998       0.70478299 </v>
    <v>       0.63579045       0.11421000       0.70478299 </v>
    <v>       0.63579049       0.61420998       0.70478299 </v>
    <v>       0.36420952       0.38578999       0.70478299 </v>
    <v>       0.36420950       0.88578996       0.70478299 </v>
    <v>       0.86420954       0.38578999       0.70478299 </v>
    <v>       0.86420953       0.88578996       0.70478299 </v>
    <v>       0.11421799       0.36421899       0.70478098 </v>
    <v>       0.11421799       0.86421899       0.70478098 </v>
    <v>       0.61421800       0.36421899       0.70478098 </v>
    <v>       0.61421799       0.86421899       0.70478098 </v>
    <v>       0.38578201       0.13578149       0.70478202 </v>
    <v>       0.38578200       0.63578149       0.70478202 </v>
    <v>       0.88578199       0.13578149       0.70478202 </v>
    <v>       0.88578203       0.63578149       0.70478202 </v>
    <v>       0.13466700       0.11533200       0.80125603 </v>
    <v>       0.13466699       0.61533199       0.80125603 </v>
    <v>       0.63466699       0.11533200       0.80125603 </v>
    <v>       0.63466698       0.61533199       0.80125603 </v>
    <v>       0.36533300       0.38466799       0.80125603 </v>
    <v>       0.36533299       0.88466796       0.80125603 </v>
    <v>       0.86533295       0.38466799       0.80125603 </v>
    <v>       0.86533294       0.88466796       0.80125603 </v>
    <v>       0.11532850       0.36533700       0.80126500 </v>
    <v>       0.11532850       0.86533698       0.80126500 </v>
    <v>       0.61532850       0.36533700       0.80126500 </v>
    <v>       0.61532849       0.86533698       0.80126500 </v>
    <v>       0.38467151       0.13466300       0.80126500 </v>
    <v>       0.38467150       0.63466297       0.80126500 </v>
    <v>       0.88467149       0.13466300       0.80126500 </v>
    <v>       0.88467153       0.63466297       0.80126500 </v>
    <v>       0.99917265       0.00364024       0.60250198 </v>
    <v>       0.01001311       0.50366416       0.60752196 </v>
    <v>       0.50165987       0.00093962       0.60231420 </v>
    <v>       0.49936162       0.49661456       0.60382866 </v>
    <v>       0.25577703       0.24808843       0.60419079 </v>
    <v>       0.24992476       0.75607657       0.60318638 </v>
    <v>       0.74847806       0.25065699       0.60584530 </v>
    <v>       0.74885756       0.75751198       0.60478033 </v>
    <v>       0.00000050       0.00000050       0.70482896 </v>
    <v>       0.00000050       0.50000048       0.70482896 </v>
    <v>       0.50000048       0.00000050       0.70482896 </v>
    <v>       0.50000046       0.50000048       0.70482896 </v>
    <v>       0.24999999       0.24999947       0.70482499 </v>
    <v>       0.25000001       0.74999950       0.70482499 </v>
    <v>       0.74999999       0.24999947       0.70482499 </v>
    <v>       0.74999998       0.74999950       0.70482499 </v>
    <v>       0.00000000       0.00000000       0.80731797 </v>
    <v>       0.00000000       0.50000000       0.80731797 </v>
    <v>       0.50000000       0.00000000       0.80731797 </v>
    <v>       0.49999999       0.50000000       0.80731797 </v>
    <v>       0.24999999       0.25000000       0.80731797 </v>
    <v>       0.25000001       0.74999997       0.80731797 </v>
    <v>       0.74999999       0.25000000       0.80731797 </v>
    <v>       0.74999998       0.74999997       0.80731797 </v>
   </varray>
  </structure>
  <varray name="primitive_index" >
   <v type="int" >        1 </v>
   <v type="int" >        2 </v>
   <v type="int" >        3 </v>
   <v type="int" >        4 </v>
   <v type="int" >        5 </v>
   <v type="int" >        6 </v>
   <v type="int" >        7 </v>
   <v type="int" >        8 </v>
   <v type="int" >        9 </v>
   <v type="int" >       10 </v>
   <v type="int" >       11 </v>
   <v type="int" >       12 </v>
   <v type="int" >       13 </v>
   <v type="int" >       14 </v>
   <v type="int" >       15 </v>
   <v type="int" >       16 </v>
   <v type="int" >       17 </v>
   <v type="int" >       18 </v>
   <v type="int" >       19 </v>
   <v type="int" >       20 </v>
   <v type="int" >       21 </v>
   <v type="int" >       22 </v>
   <v type="int" >       23 </v>
   <v type="int" >       24 </v>
   <v type="int" >       25 </v>
   <v type="int" >       26 </v>
   <v type="int" >       27 </v>
   <v type="int" >       28 </v>
   <v type="int" >       29 </v>
   <v type="int" >       30 </v>
   <v type="int" >       31 </v>
   <v type="int" >       32 </v>
   <v type="int" >       33 </v>
   <v type="int" >       34 </v>
   <v type="int" >       35 </v>
   <v type="int" >       36 </v>
   <v type="int" >       37 </v>
   <v type="int" >       38 </v>
   <v type="int" >       39 </v>
   <v type="int" >       40 </v>
   <v type="int" >       41 </v>
   <v type="int" >       42 </v>
   <v type="int" >       43 </v>
   <v type="int" >       44 </v>
   <v type="int" >       45 </v>
   <v type="int" >       46 </v>
   <v type="int" >       47 </v>
   <v type="int" >       48 </v>
   <v type="int" >       49 </v>
   <v type="int" >       50 </v>
   <v type="int" >       51 </v>
   <v type="int" >       52 </v>
   <v type="int" >       53 </v>
   <v type="int" >       54 </v>
   <v type="int" >       55 </v>
   <v type="int" >       56 </v>
   <v type="int" >       57 </v>
   <v type="int" >       58 </v>
   <v type="int" >       59 </v>
   <v type="int" >       60 </v>
   <v type="int" >       61 </v>
   <v type="int" >       62 </v>
   <v type="int" >       63 </v>
   <v type="int" >       64 </v>
   <v type="int" >       65 </v>
   <v type="int" >       66 </v>
   <v type="int" >       67 </v>
   <v type="int" >       68 </v>
   <v type="int" >       69 </v>
   <v type="int" >       70 </v>
   <v type="int" >       71 </v>
   <v type="int" >       72 </v>
   <v type="int" >       73 </v>
   <v type="int" >       74 </v>
   <v type="int" >       75 </v>
   <v type="int" >       76 </v>
   <v type="int" >       77 </v>
   <v type="int" >       78 </v>
   <v type="int" >       79 </v>
   <v type="int" >       80 </v>
   <v type="int" >       81 </v>
   <v type="int" >       82 </v>
   <v type="int" >       83 </v>
   <v type="int" >       84 </v>
   <v type="int" >       85 </v>
   <v type="int" >       86 </v>
   <v type="int" >       87 </v>
   <v type="int" >       88 </v>
   <v type="int" >       89 </v>
   <v type="int" >       90 </v>
   <v type="int" >       91 </v>
   <v type="int" >       92 </v>
   <v type="int" >       93 </v>
   <v type="int" >       94 </v>
   <v type="int" >       95 </v>
   <v type="int" >       96 </v>
   <v type="int" >       97 </v>
   <v type="int" >       98 </v>
   <v type="int" >       99 </v>
   <v type="int" >      100 </v>
   <v type="int" >      101 </v>
   <v type="int" >      102 </v>
   <v type="int" >      103 </v>
   <v type="int" >      104 </v>
   <v type="int" >      105 </v>
   <v type="int" >      106 </v>
   <v type="int" >      107 </v>
   <v type="int" >      108 </v>
   <v type="int" >      109 </v>
   <v type="int" >      110 </v>
   <v type="int" >      111 </v>
   <v type="int" >      112 </v>
   <v type="int" >      113 </v>
   <v type="int" >      114 </v>
   <v type="int" >      115 </v>
   <v type="int" >      116 </v>
   <v type="int" >      117 </v>
   <v type="int" >      118 </v>
   <v type="int" >      119 </v>
   <v type="int" >      120 </v>
   <v type="int" >      121 </v>
   <v type="int" >      122 </v>
   <v type="int" >      123 </v>
   <v type="int" >      124 </v>
   <v type="int" >      125 </v>
   <v type="int" >      126 </v>
   <v type="int" >      127 </v>
   <v type="int" >      128 </v>
   <v type="int" >      129 </v>
   <v type="int" >      130 </v>
   <v type="int" >      131 </v>
   <v type="int" >      132 </v>
   <v type="int" >      133 </v>
   <v type="int" >      134 </v>
   <v type="int" >      135 </v>
   <v type="int" >      136 </v>
   <v type="int" >      137 </v>
   <v type="int" >      138 </v>
   <v type="int" >      139 </v>
   <v type="int" >      140 </v>
   <v type="int" >      141 </v>
   <v type="int" >      142 </v>
   <v type="int" >      143 </v>
   <v type="int" >      144 </v>
   <v type="int" >      145 </v>
   <v type="int" >      146 </v>
   <v type="int" >      147 </v>
   <v type="int" >      148 </v>
   <v type="int" >      149 </v>
   <v type="int" >      150 </v>
   <v type="int" >      151 </v>
   <v type="int" >      152 </v>
   <v type="int" >      153 </v>
   <v type="int" >      154 </v>
   <v type="int" >      155 </v>
   <v type="int" >      156 </v>
   <v type="int" >      157 </v>
   <v type="int" >      158 </v>
   <v type="int" >      159 </v>
   <v type="int" >      160 </v>
   <v type="int" >      161 </v>
   <v type="int" >      162 </v>
   <v type="int" >      163 </v>
   <v type="int" >      164 </v>
   <v type="int" >      165 </v>
   <v type="int" >      166 </v>
   <v type="int" >      167 </v>
   <v type="int" >      168 </v>
   <v type="int" >      169 </v>
   <v type="int" >      170 </v>
   <v type="int" >      171 </v>
   <v type="int" >      172 </v>
   <v type="int" >      173 </v>
   <v type="int" >      174 </v>
   <v type="int" >      175 </v>
   <v type="int" >      176 </v>
   <v type="int" >      177 </v>
   <v type="int" >      178 </v>
   <v type="int" >      179 </v>
   <v type="int" >      180 </v>
   <v type="int" >      181 </v>
   <v type="int" >      182 </v>
   <v type="int" >      183 </v>
   <v type="int" >      184 </v>
   <v type="int" >      185 </v>
   <v type="int" >      186 </v>
   <v type="int" >      187 </v>
   <v type="int" >      188 </v>
   <v type="int" >      189 </v>
   <v type="int" >      190 </v>
   <v type="int" >      191 </v>
   <v type="int" >      192 </v>
   <v type="int" >      193 </v>
   <v type="int" >      194 </v>
   <v type="int" >      195 </v>
   <v type="int" >      196 </v>
   <v type="int" >      197 </v>
   <v type="int" >      198 </v>
   <v type="int" >      199 </v>
   <v type="int" >      200 </v>
   <v type="int" >      201 </v>
   <v type="int" >      202 </v>
   <v type="int" >      203 </v>
   <v type="int" >      204 </v>
   <v type="int" >      205 </v>
   <v type="int" >      206 </v>
   <v type="int" >      207 </v>
   <v type="int" >      208 </v>
   <v type="int" >      209 </v>
   <v type="int" >      210 </v>
   <v type="int" >      211 </v>
   <v type="int" >      212 </v>
   <v type="int" >      213 </v>
   <v type="int" >      214 </v>
   <v type="int" >      215 </v>
   <v type="int" >      216 </v>
   <v type="int" >      217 </v>
   <v type="int" >      218 </v>
   <v type="int" >      219 </v>
   <v type="int" >      220 </v>
   <v type="int" >      221 </v>
   <v type="int" >      222 </v>
   <v type="int" >      223 </v>
   <v type="int" >      224 </v>
   <v type="int" >      225 </v>
   <v type="int" >      226 </v>
   <v type="int" >      227 </v>
   <v type="int" >      228 </v>
   <v type="int" >      229 </v>
   <v type="int" >      230 </v>
   <v type="int" >      231 </v>
   <v type="int" >      232 </v>
   <v type="int" >      233 </v>
   <v type="int" >      234 </v>
   <v type="int" >      235 </v>
   <v type="int" >      236 </v>
   <v type="int" >      237 </v>
   <v type="int" >      238 </v>
   <v type="int" >      239 </v>
   <v type="int" >      240 </v>
   <v type="int" >      241 </v>
   <v type="int" >      242 </v>
   <v type="int" >      243 </v>
   <v type="int" >      244 </v>
   <v type="int" >      245 </v>
   <v type="int" >      246 </v>
   <v type="int" >      247 </v>
   <v type="int" >      248 </v>
   <v type="int" >      249 </v>
   <v type="int" >      250 </v>
   <v type="int" >      251 </v>
   <v type="int" >      252 </v>
   <v type="int" >      253 </v>
   <v type="int" >      254 </v>
   <v type="int" >      255 </v>
   <v type="int" >      256 </v>
   <v type="int" >      257 </v>
   <v type="int" >      258 </v>
   <v type="int" >      259 </v>
   <v type="int" >      260 </v>
   <v type="int" >      261 </v>
   <v type="int" >      262 </v>
   <v type="int" >      263 </v>
   <v type="int" >      264 </v>
   <v type="int" >      265 </v>
   <v type="int" >      266 </v>
   <v type="int" >      267 </v>
   <v type="int" >      268 </v>
   <v type="int" >      269 </v>
   <v type="int" >      270 </v>
   <v type="int" >      271 </v>
   <v type="int" >      272 </v>
   <v type="int" >      273 </v>
   <v type="int" >      274 </v>
   <v type="int" >      275 </v>
   <v type="int" >      276 </v>
   <v type="int" >      277 </v>
   <v type="int" >      278 </v>
   <v type="int" >      279 </v>
   <v type="int" >      280 </v>
   <v type="int" >      281 </v>
   <v type="int" >      282 </v>
   <v type="int" >      283 </v>
   <v type="int" >      284 </v>
   <v type="int" >      285 </v>
   <v type="int" >      286 </v>
   <v type="int" >      287 </v>
   <v type="int" >      288 </v>
   <v type="int" >      289 </v>
   <v type="int" >      290 </v>
   <v type="int" >      291 </v>
   <v type="int" >      292 </v>
   <v type="int" >      293 </v>
   <v type="int" >      294 </v>
   <v type="int" >      295 </v>
   <v type="int" >      296 </v>
   <v type="int" >      297 </v>
   <v type="int" >      298 </v>
   <v type="int" >      299 </v>
   <v type="int" >      300 </v>
   <v type="int" >      301 </v>
   <v type="int" >      302 </v>
   <v type="int" >      303 </v>
   <v type="int" >      304 </v>
   <v type="int" >      305 </v>
   <v type="int" >      306 </v>
   <v type="int" >      307 </v>
   <v type="int" >      308 </v>
   <v type="int" >      309 </v>
   <v type="int" >      310 </v>
   <v type="int" >      311 </v>
   <v type="int" >      312 </v>
   <v type="int" >      313 </v>
   <v type="int" >      314 </v>
   <v type="int" >      315 </v>
   <v type="int" >      316 </v>
   <v type="int" >      317 </v>
   <v type="int" >      318 </v>
   <v type="int" >      319 </v>
   <v type="int" >      320 </v>
   <v type="int" >      321 </v>
   <v type="int" >      322 </v>
   <v type="int" >      323 </v>
   <v type="int" >      324 </v>
   <v type="int" >      325 </v>
  </varray>
 </primitive_cell>
 <kpoints>
  <generation param="Gamma">
   <v type="int" name="divisions">       3        3        1 </v>
   <v name="usershift">      0.00000000       0.00000000       0.00000000 </v>
   <v name="genvec1">      0.33333333       0.00000000       0.00000000 </v>
   <v name="genvec2">      0.00000000       0.33333333       0.00000000 </v>
   <v name="genvec3">      0.00000000       0.00000000       1.00000000 </v>
   <v name="shift">      0.00000000       0.00000000       0.00000000 </v>
  </generation>
  <varray name="kpointlist" >
   <v>       0.00000000       0.00000000       0.00000000 </v>
   <v>       0.33333333       0.00000000       0.00000000 </v>
   <v>       0.00000000       0.33333333       0.00000000 </v>
   <v>       0.33333333       0.33333333       0.00000000 </v>
   <v>      -0.33333333       0.33333333       0.00000000 </v>
  </varray>
  <varray name="weights" >
   <v>       0.11111111 </v>
   <v>       0.22222222 </v>
   <v>       0.22222222 </v>
   <v>       0.22222222 </v>
   <v>       0.22222222 </v>
  </varray>
 </kpoints>
 <parameters>
  <separator name="general" >
   <i type="string" name="SYSTEM">PSC</i>
   <i type="logical" name="LCOMPAT"> F  </i>
  </separator>
  <separator name="electronic" >
   <i type="string" name="PREC">normal</i>
   <i name="ENMAX">    500.00000000</i>
   <i name="ENAUG">    644.87300000</i>
   <i name="EDIFF">      0.00010000</i>
   <i type="int" name="IALGO">    38</i>
   <i type="int" name="IWAVPR">    10</i>
   <i type="int" name="NBANDS">   732</i>
   <i type="int" name="NBANDSLOW">    -1</i>
   <i type="int" name="NBANDSHIGH">    -1</i>
   <i name="NELECT">   1134.00000000</i>
   <i type="int" name="TURBO">     0</i>
   <i type="int" name="IRESTART">     0</i>
   <i type="int" name="NREBOOT">     0</i>
   <i type="int" name="NMIN">     0</i>
   <i name="EREF">      0.00000000</i>
   <separator name="electronic smearing" >
    <i type="int" name="ISMEAR">     0</i>
    <i name="SIGMA">      0.05000000</i>
    <i name="KSPACING">      0.50000000</i>
    <i type="logical" name="KGAMMA"> T  </i>
    <i type="logical" name="KBLOWUP"> T  </i>
   </separator>
   <separator name="electronic projectors" >
    <i type="logical" name="LREAL"> T  </i>
    <v name="ROPT">     -0.00050000     -0.00050000     -0.00050000     -0.00050000     -0.00050000</v>
    <i type="int" name="LMAXPAW">  -100</i>
    <i type="int" name="LMAXMIX">     2</i>
    <i type="logical" name="NLSPLINE"> F  </i>
   </separator>
   <separator name="electronic startup" >
    <i type="int" name="ISTART">     0</i>
    <i type="int" name="ICHARG">     1</i>
    <i type="int" name="INIWAV">     1</i>
   </separator>
   <separator name="electronic spin" >
    <i type="int" name="ISPIN">     1</i>
    <i type="logical" name="LNONCOLLINEAR"> F  </i>
    <v name="MAGMOM">      1.00000000      1.00000000      1.00000000      1.00000000      1.00000000      1.00000000      1.00000000      1.00000000      1.00000000      1.00000000      1.00000000      1.00000000      1.00000000      1.00000000      1.00000000      1.00000000      1.00000000      1.00000000      1.00000000      1.00000000
      1.00000000      1.00000000      1.00000000      1.00000000      1.00000000      1.00000000      1.00000000      1.00000000      1.00000000      1.00000000      1.00000000      1.00000000      1.00000000      1.00000000      1.00000000      1.00000000      1.00000000      1.00000000      1.00000000      1.00000000
      1.00000000      1.00000000      1.00000000      1.00000000      1.00000000      1.00000000      1.00000000      1.00000000      1.00000000      1.00000000      1.00000000      1.00000000      1.00000000      1.00000000      1.00000000      1.00000000      1.00000000      1.00000000      1.00000000      1.00000000
      1.00000000      1.00000000      1.00000000      1.00000000      1.00000000      1.00000000      1.00000000      1.00000000      1.00000000      1.00000000      1.00000000      1.00000000      1.00000000      1.00000000      1.00000000      1.00000000      1.00000000      1.00000000      1.00000000      1.00000000
      1.00000000      1.00000000      1.00000000      1.00000000      1.00000000      1.00000000      1.00000000      1.00000000      1.00000000      1.00000000      1.00000000      1.00000000      1.00000000      1.00000000      1.00000000      1.00000000      1.00000000      1.00000000      1.00000000      1.00000000
      1.00000000      1.00000000      1.00000000      1.00000000      1.00000000      1.00000000      1.00000000      1.00000000      1.00000000      1.00000000      1.00000000      1.00000000      1.00000000      1.00000000      1.00000000      1.00000000      1.00000000      1.00000000      1.00000000      1.00000000
      1.00000000      1.00000000      1.00000000      1.00000000      1.00000000      1.00000000      1.00000000      1.00000000      1.00000000      1.00000000      1.00000000      1.00000000      1.00000000      1.00000000      1.00000000      1.00000000      1.00000000      1.00000000      1.00000000      1.00000000
      1.00000000      1.00000000      1.00000000      1.00000000      1.00000000      1.00000000      1.00000000      1.00000000      1.00000000      1.00000000      1.00000000      1.00000000      1.00000000      1.00000000      1.00000000      1.00000000      1.00000000      1.00000000      1.00000000      1.00000000
      1.00000000      1.00000000      1.00000000      1.00000000      1.00000000      1.00000000      1.00000000      1.00000000      1.00000000      1.00000000      1.00000000      1.00000000      1.00000000      1.00000000      1.00000000      1.00000000      1.00000000      1.00000000      1.00000000      1.00000000
      1.00000000      1.00000000      1.00000000      1.00000000      1.00000000      1.00000000      1.00000000      1.00000000      1.00000000      1.00000000      1.00000000      1.00000000      1.00000000      1.00000000      1.00000000      1.00000000      1.00000000      1.00000000      1.00000000      1.00000000
      1.00000000      1.00000000      1.00000000      1.00000000      1.00000000      1.00000000      1.00000000      1.00000000      1.00000000      1.00000000      1.00000000      1.00000000      1.00000000      1.00000000      1.00000000      1.00000000      1.00000000      1.00000000      1.00000000      1.00000000
      1.00000000      1.00000000      1.00000000      1.00000000      1.00000000      1.00000000      1.00000000      1.00000000      1.00000000      1.00000000      1.00000000      1.00000000      1.00000000      1.00000000      1.00000000      1.00000000      1.00000000      1.00000000      1.00000000      1.00000000
      1.00000000      1.00000000      1.00000000      1.00000000      1.00000000      1.00000000      1.00000000      1.00000000      1.00000000      1.00000000      1.00000000      1.00000000      1.00000000      1.00000000      1.00000000      1.00000000      1.00000000      1.00000000      1.00000000      1.00000000
      1.00000000      1.00000000      1.00000000      1.00000000      1.00000000      1.00000000      1.00000000      1.00000000      1.00000000      1.00000000      1.00000000      1.00000000      1.00000000      1.00000000      1.00000000      1.00000000      1.00000000      1.00000000      1.00000000      1.00000000
      1.00000000      1.00000000      1.00000000      1.00000000      1.00000000      1.00000000      1.00000000      1.00000000      1.00000000      1.00000000      1.00000000      1.00000000      1.00000000      1.00000000      1.00000000      1.00000000      1.00000000      1.00000000      1.00000000      1.00000000
      1.00000000      1.00000000      1.00000000      1.00000000      1.00000000      1.00000000      1.00000000      1.00000000      1.00000000      1.00000000      1.00000000      1.00000000      1.00000000      1.00000000      1.00000000      1.00000000      1.00000000      1.00000000      1.00000000      1.00000000
      1.00000000      1.00000000      1.00000000      1.00000000      1.00000000</v>
    <i name="NUPDOWN">     -1.00000000</i>
    <i type="logical" name="LSORBIT"> F  </i>
    <v name="SAXIS">      0.00000000      0.00000000      1.00000000</v>
    <i type="logical" name="LSPIRAL"> F  </i>
    <v name="QSPIRAL">      0.00000000      0.00000000      0.00000000</v>
    <i type="logical" name="LZEROZ"> F  </i>
   </separator>
   <separator name="electronic exchange-correlation" >
    <i type="logical" name="LASPH"> F  </i>
    <i type="logical" name="LMETAGGA"> F  </i>
   </separator>
   <separator name="electronic convergence" >
    <i type="int" name="NELM">   600</i>
    <i type="int" name="NELMDL">     0</i>
    <i type="int" name="NELMIN">     2</i>
    <i name="ENINI">    500.00000000</i>
    <separator name="electronic convergence detail" >
     <i type="logical" name="LDIAG"> T  </i>
     <i type="logical" name="LSUBROT"> F  </i>
     <i name="WEIMIN">      0.00000000</i>
     <i name="EBREAK">      0.00000003</i>
     <i name="DEPER">      0.30000000</i>
     <i type="int" name="NRMM">     4</i>
     <i name="TIME">      0.40000000</i>
    </separator>
   </separator>
   <separator name="electronic mixer" >
    <i name="AMIX">      0.40000000</i>
    <i name="BMIX">      0.01000000</i>
    <i name="AMIN">      0.01000000</i>
    <i name="AMIX_MAG">      1.60000000</i>
    <i name="BMIX_MAG">      0.01000000</i>
    <separator name="electronic mixer details" >
     <i type="int" name="IMIX">     4</i>
     <i type="logical" name="MIXFIRST"> F  </i>
     <i type="int" name="MAXMIX">   -45</i>
     <i name="WC">    100.00000000</i>
     <i type="int" name="INIMIX">     1</i>
     <i type="int" name="MIXPRE">     1</i>
     <i type="int" name="MREMOVE">     5</i>
    </separator>
   </separator>
   <separator name="electronic dipolcorrection" >
    <i type="logical" name="LDIPOL"> T  </i>
    <i type="logical" name="LMONO"> F  </i>
    <i type="int" name="IDIPOL">     3</i>
    <i name="EPSILON">      1.00000000</i>
    <v name="DIPOL">   -100.00000000   -100.00000000   -100.00000000</v>
    <i name="EFIELD">      0.00000000</i>
   </separator>
  </separator>
  <separator name="grids" >
   <i type="int" name="NGX">   100</i>
   <i type="int" name="NGY">   100</i>
   <i type="int" name="NGZ">   350</i>
   <i type="int" name="NGXF">   200</i>
   <i type="int" name="NGYF">   200</i>
   <i type="int" name="NGZF">   700</i>
   <i type="logical" name="ADDGRID"> F  </i>
  </separator>
  <separator name="ionic" >
   <i type="int" name="NSW">     0</i>
   <i type="int" name="IBRION">    -1</i>
   <i type="int" name="MDALGO">     0</i>
   <i type="int" name="ISIF">     2</i>
   <i name="PSTRESS">      0.00000000</i>
   <i name="EDIFFG">      0.00100000</i>
   <i type="int" name="NFREE">     0</i>
   <i name="POTIM">      0.50000000</i>
   <i name="SMASS">     -3.00000000</i>
   <i name="SCALEE">      1.00000000</i>
  </separator>
  <separator name="ionic md" >
   <i name="TEBEG">      0.00010000</i>
   <i name="TEEND">      0.00010000</i>
   <i type="int" name="NBLOCK">     1</i>
   <i type="int" name="KBLOCK">     1</i>
   <i type="int" name="NPACO">   256</i>
   <i name="APACO">     16.00000000</i>
  </separator>
  <separator name="symmetry" >
   <i type="int" name="ISYM">     0</i>
   <i name="SYMPREC">      0.00001000</i>
  </separator>
  <separator name="dos" >
   <i type="int" name="LORBIT">     0</i>
   <v name="RWIGS">     -1.00000000     -1.00000000     -1.00000000     -1.00000000     -1.00000000</v>
   <i type="int" name="NEDOS">   301</i>
   <i name="EMIN">     10.00000000</i>
   <i name="EMAX">    -10.00000000</i>
   <i name="EFERMI">      0.00000000</i>
  </separator>
  <separator name="writing" >
   <i type="int" name="NWRITE">     2</i>
   <i type="logical" name="LWAVE"> F  </i>
   <i type="logical" name="LDOWNSAMPLE"> F  </i>
   <i type="logical" name="LCHARG"> T  </i>
   <i type="logical" name="LPARD"> F  </i>
   <i type="logical" name="LVTOT"> T  </i>
   <i type="logical" name="LVHAR"> F  </i>
   <i type="logical" name="LELF"> F  </i>
   <i type="logical" name="LOPTICS"> F  </i>
   <v name="STM">      0.00000000      0.00000000      0.00000000      0.00000000      0.00000000      0.00000000      0.00000000</v>
  </separator>
  <separator name="performance" >
   <i type="int" name="NPAR">     4</i>
   <i type="int" name="NSIM">     4</i>
   <i type="int" name="NBLK">    -1</i>
   <i type="logical" name="LPLANE"> T  </i>
   <i type="logical" name="LSCALAPACK"> T  </i>
   <i type="logical" name="LSCAAWARE"> F  </i>
   <i type="logical" name="LSCALU"> F  </i>
   <i type="logical" name="LASYNC"> F  </i>
   <i type="logical" name="LORBITALREAL"> F  </i>
  </separator>
  <separator name="miscellaneous" >
   <i type="int" name="IDIOT">     3</i>
   <i type="int" name="PHON_NSTRUCT">    -1</i>
   <i type="logical" name="LMUSIC"> F  </i>
   <v name="POMASS">      1.00000000     12.01100000     14.00100000    126.90400000    207.20000000</v>
   <v name="DARWINR">      0.00000000      0.00000000      0.00000000      0.00000000      0.00000000</v>
   <v name="DARWINV">      1.00000000      1.00000000      1.00000000      1.00000000      1.00000000</v>
   <i type="logical" name="LCORR"> T  </i>
  </separator>
  <i type="logical" name="GGA_COMPAT"> F  </i>
  <i type="logical" name="LBERRY"> F  </i>
  <i type="int" name="ICORELEVEL">     0</i>
  <i type="logical" name="LDAU"> F  </i>
  <i type="int" name="I_CONSTRAINED_M">     0</i>
  <separator name="electronic exchange-correlation" >
   <i type="string" name="GGA">--</i>
   <i type="int" name="VOSKOWN">     0</i>
   <i type="logical" name="LHFCALC"> F  </i>
   <i type="string" name="PRECFOCK"></i>
   <i type="logical" name="LSYMGRAD"> F  </i>
   <i type="logical" name="LHFONE"> F  </i>
   <i type="logical" name="LRHFCALC"> F  </i>
   <i type="logical" name="LTHOMAS"> F  </i>
   <i type="logical" name="LMODELHF"> F  </i>
   <i type="logical" name="LFOCKACE"> F  </i>
   <i name="ENCUT4O">     -1.00000000</i>
   <i type="int" name="EXXOEP">     0</i>
   <i type="int" name="FOURORBIT">     0</i>
   <i name="AEXX">      0.00000000</i>
   <i name="HFALPHA">      0.00000000</i>
   <i name="MCALPHA">      0.00000000</i>
   <i name="ALDAX">      1.00000000</i>
   <i name="AGGAX">      1.00000000</i>
   <i name="ALDAC">      1.00000000</i>
   <i name="AGGAC">      1.00000000</i>
   <i type="int" name="NKREDX">     1</i>
   <i type="int" name="NKREDY">     1</i>
   <i type="int" name="NKREDZ">     1</i>
   <i type="logical" name="SHIFTRED"> F  </i>
   <i type="logical" name="ODDONLY"> F  </i>
   <i type="logical" name="EVENONLY"> F  </i>
   <i type="int" name="LMAXFOCK">     0</i>
   <i type="int" name="NMAXFOCKAE">     0</i>
   <i type="logical" name="LFOCKAEDFT"> F  </i>
   <i name="HFSCREEN">      0.00000000</i>
   <i name="HFSCREENC">      0.00000000</i>
   <i type="int" name="NBANDSGWLOW">     0</i>
  </separator>
  <separator name="vdW DFT" >
   <i type="logical" name="LUSE_VDW"> F  </i>
   <i name="Zab_VDW">     -0.84910000</i>
   <i name="PARAM1">      0.12340000</i>
   <i name="PARAM2">      1.00000000</i>
   <i name="PARAM3">      0.00000000</i>
  </separator>
  <separator name="model GW" >
   <i type="int" name="MODEL_GW">     0</i>
   <i name="MODEL_EPS0">     37.63423484</i>
   <i name="MODEL_ALPHA">      1.00000000</i>
  </separator>
  <separator name="linear response parameters" >
   <i type="logical" name="LEPSILON"> F  </i>
   <i type="logical" name="LRPA"> F  </i>
   <i type="logical" name="LNABLA"> F  </i>
   <i type="logical" name="LVEL"> F  </i>
   <i type="int" name="KINTER">     0</i>
   <i name="CSHIFT">      0.10000000</i>
   <i name="OMEGAMAX">     -1.00000000</i>
   <i name="DEG_THRESHOLD">      0.00200000</i>
   <i name="RTIME">     -0.10000000</i>
   <i name="WPLASMAI">      0.00000000</i>
   <v name="DFIELD">      0.00000000      0.00000000      0.00000000</v>
   <v name="WPLASMA">      0.00000000      0.00000000      0.00000000      0.00000000      0.00000000      0.00000000      0.00000000      0.00000000      0.00000000</v>
  </separator>
  <separator name="orbital magnetization" >
   <i type="logical" name="NUCIND"> F  </i>
   <v name="MAGPOS">      0.00000000      0.00000000      0.00000000</v>
   <i type="logical" name="LNICSALL"> T  </i>
   <i type="logical" name="ORBITALMAG"> F  </i>
   <i type="logical" name="LMAGBLOCH"> F  </i>
   <i type="logical" name="LCHIMAG"> F  </i>
   <i type="logical" name="LGAUGE"> T  </i>
   <i type="int" name="MAGATOM">     0</i>
   <v name="MAGDIPOL">      0.00000000      0.00000000      0.00000000</v>
   <v name="AVECCONST">      0.00000000      0.00000000      0.00000000</v>
  </separator>
  <separator name="response functions" >
   <i type="logical" name="LFINITE_TEMPERATURE"> F  </i>
   <i type="logical" name="LADDER"> F  </i>
   <i type="logical" name="LRPAFORCE"> F  </i>
   <i type="logical" name="LFXC"> F  </i>
   <i type="logical" name="LHARTREE"> T  </i>
   <i type="int" name="IBSE">     0</i>
   <v type="int" name="KPOINT">    -1     0     0     0</v>
   <i type="logical" name="LTCTC"> F  </i>
   <i type="logical" name="LTCTE"> F  </i>
   <i type="logical" name="LTETE"> F  </i>
   <i type="logical" name="LTRIPLET"> F  </i>
   <i type="logical" name="LFXCEPS"> F  </i>
   <i type="logical" name="LFXHEG"> F  </i>
   <i type="int" name="NATURALO">     2</i>
   <i type="logical" name="LHOLEGF"> F  </i>
   <i type="logical" name="L2ORDER"> F  </i>
   <i type="logical" name="LDMP1"> F  </i>
   <i type="logical" name="LMP2LT"> F  </i>
   <i type="logical" name="LSMP2LT"> F  </i>
   <i type="logical" name="LGWLF"> F  </i>
   <i name="ENCUTGW">     -2.00000000</i>
   <i name="ENCUTGWSOFT">     -2.00000000</i>
   <i name="ENCUTLF">     -1.00000000</i>
   <i type="logical" name="LESF_SPLINES"> F  </i>
   <i type="int" name="LMAXMP2">    -1</i>
   <i name="SCISSOR">      0.00000000</i>
   <i type="int" name="NOMEGA">     0</i>
   <i type="int" name="NOMEGAR">     0</i>
   <i type="int" name="NBANDSGW">    -1</i>
   <i type="int" name="NBANDSO">    -1</i>
   <i type="int" name="NBANDSV">    -1</i>
   <i type="int" name="NELM">   600</i>
   <i type="int" name="NELMHF">     1</i>
   <i type="int" name="DIM">     3</i>
   <i type="int" name="IESPILON">     4</i>
   <i type="int" name="ANTIRES">     0</i>
   <i name="OMEGAMAX">    -30.00000000</i>
   <i name="OMEGAMIN">    -30.00000000</i>
   <i name="OMEGATL">   -200.00000000</i>
   <i type="int" name="OMEGAGRID">     0</i>
   <i name="CSHIFT">     -0.10000000</i>
   <i type="logical" name="LSELFENERGY"> F  </i>
   <i type="logical" name="LSPECTRAL"> F  </i>
   <i type="logical" name="LSPECTRALGW"> F  </i>
   <i type="logical" name="LSINGLES"> F  </i>
   <i type="logical" name="LFERMIGW"> F  </i>
   <i type="logical" name="ODDONLYGW"> F  </i>
   <i type="logical" name="EVENONLYGW"> F  </i>
   <i type="int" name="NKREDLFX">     1</i>
   <i type="int" name="NKREDLFY">     1</i>
   <i type="int" name="NKREDLFZ">     1</i>
   <i type="int" name="MAXMEM">  2800</i>
   <i type="int" name="TELESCOPE">     0</i>
   <i type="int" name="NTAUPAR">    -1</i>
   <i type="int" name="NOMEGAPAR">    -1</i>
   <i name="DAMP_NEWTON">      0.80000001</i>
   <i name="LAMBDA">      1.00000000</i>
  </separator>
  <separator name="External order field" >
   <i name="OFIELD_KAPPA">      0.00000000</i>
   <v name="OFIELD_K">      0.00000000      0.00000000      0.00000000</v>
   <i name="OFIELD_Q6_NEAR">      0.00000000</i>
   <i name="OFIELD_Q6_FAR">      0.00000000</i>
   <i name="OFIELD_A">      0.00000000</i>
  </separator>
 </parameters>
 <atominfo>
  <atoms>     325 </atoms>
  <types>       5 </types>
  <array name="atoms" >
   <dimension dim="1">ion</dimension>
   <field type="string">element</field>
   <field type="int">atomtype</field>
   <set>
    <rc><c>H </c><c>   1</c></rc>
    <rc><c>H </c><c>   1</c></rc>
    <rc><c>H </c><c>   1</c></rc>
    <rc><c>H </c><c>   1</c></rc>
    <rc><c>H </c><c>   1</c></rc>
    <rc><c>H </c><c>   1</c></rc>
    <rc><c>H </c><c>   1</c></rc>
    <rc><c>H </c><c>   1</c></rc>
    <rc><c>H </c><c>   1</c></rc>
    <rc><c>H </c><c>   1</c></rc>
    <rc><c>H </c><c>   1</c></rc>
    <rc><c>H </c><c>   1</c></rc>
    <rc><c>H </c><c>   1</c></rc>
    <rc><c>H </c><c>   1</c></rc>
    <rc><c>H </c><c>   1</c></rc>
    <rc><c>H </c><c>   1</c></rc>
    <rc><c>H </c><c>   1</c></rc>
    <rc><c>H </c><c>   1</c></rc>
    <rc><c>H </c><c>   1</c></rc>
    <rc><c>H </c><c>   1</c></rc>
    <rc><c>H </c><c>   1</c></rc>
    <rc><c>H </c><c>   1</c></rc>
    <rc><c>H </c><c>   1</c></rc>
    <rc><c>H </c><c>   1</c></rc>
    <rc><c>H </c><c>   1</c></rc>
    <rc><c>H </c><c>   1</c></rc>
    <rc><c>H </c><c>   1</c></rc>
    <rc><c>H </c><c>   1</c></rc>
    <rc><c>H </c><c>   1</c></rc>
    <rc><c>H </c><c>   1</c></rc>
    <rc><c>H </c><c>   1</c></rc>
    <rc><c>H </c><c>   1</c></rc>
    <rc><c>H </c><c>   1</c></rc>
    <rc><c>H </c><c>   1</c></rc>
    <rc><c>H </c><c>   1</c></rc>
    <rc><c>H </c><c>   1</c></rc>
    <rc><c>H </c><c>   1</c></rc>
    <rc><c>H </c><c>   1</c></rc>
    <rc><c>H </c><c>   1</c></rc>
    <rc><c>H </c><c>   1</c></rc>
    <rc><c>H </c><c>   1</c></rc>
    <rc><c>H </c><c>   1</c></rc>
    <rc><c>H </c><c>   1</c></rc>
    <rc><c>H </c><c>   1</c></rc>
    <rc><c>H </c><c>   1</c></rc>
    <rc><c>H </c><c>   1</c></rc>
    <rc><c>H </c><c>   1</c></rc>
    <rc><c>H </c><c>   1</c></rc>
    <rc><c>H </c><c>   1</c></rc>
    <rc><c>H </c><c>   1</c></rc>
    <rc><c>H </c><c>   1</c></rc>
    <rc><c>H </c><c>   1</c></rc>
    <rc><c>H </c><c>   1</c></rc>
    <rc><c>H </c><c>   1</c></rc>
    <rc><c>H </c><c>   1</c></rc>
    <rc><c>H </c><c>   1</c></rc>
    <rc><c>H </c><c>   1</c></rc>
    <rc><c>H </c><c>   1</c></rc>
    <rc><c>H </c><c>   1</c></rc>
    <rc><c>H </c><c>   1</c></rc>
    <rc><c>H </c><c>   1</c></rc>
    <rc><c>H </c><c>   1</c></rc>
    <rc><c>H </c><c>   1</c></rc>
    <rc><c>H </c><c>   1</c></rc>
    <rc><c>H </c><c>   1</c></rc>
    <rc><c>H </c><c>   1</c></rc>
    <rc><c>H </c><c>   1</c></rc>
    <rc><c>H </c><c>   1</c></rc>
    <rc><c>H </c><c>   1</c></rc>
    <rc><c>H </c><c>   1</c></rc>
    <rc><c>H </c><c>   1</c></rc>
    <rc><c>H </c><c>   1</c></rc>
    <rc><c>H </c><c>   1</c></rc>
    <rc><c>H </c><c>   1</c></rc>
    <rc><c>H </c><c>   1</c></rc>
    <rc><c>H </c><c>   1</c></rc>
    <rc><c>H </c><c>   1</c></rc>
    <rc><c>H </c><c>   1</c></rc>
    <rc><c>H </c><c>   1</c></rc>
    <rc><c>H </c><c>   1</c></rc>
    <rc><c>H </c><c>   1</c></rc>
    <rc><c>H </c><c>   1</c></rc>
    <rc><c>H </c><c>   1</c></rc>
    <rc><c>H </c><c>   1</c></rc>
    <rc><c>H </c><c>   1</c></rc>
    <rc><c>H </c><c>   1</c></rc>
    <rc><c>H </c><c>   1</c></rc>
    <rc><c>H </c><c>   1</c></rc>
    <rc><c>H </c><c>   1</c></rc>
    <rc><c>H </c><c>   1</c></rc>
    <rc><c>H </c><c>   1</c></rc>
    <rc><c>H </c><c>   1</c></rc>
    <rc><c>H </c><c>   1</c></rc>
    <rc><c>H </c><c>   1</c></rc>
    <rc><c>H </c><c>   1</c></rc>
    <rc><c>H </c><c>   1</c></rc>
    <rc><c>H </c><c>   1</c></rc>
    <rc><c>H </c><c>   1</c></rc>
    <rc><c>H </c><c>   1</c></rc>
    <rc><c>H </c><c>   1</c></rc>
    <rc><c>H </c><c>   1</c></rc>
    <rc><c>H </c><c>   1</c></rc>
    <rc><c>H </c><c>   1</c></rc>
    <rc><c>H </c><c>   1</c></rc>
    <rc><c>H </c><c>   1</c></rc>
    <rc><c>H </c><c>   1</c></rc>
    <rc><c>H </c><c>   1</c></rc>
    <rc><c>H </c><c>   1</c></rc>
    <rc><c>H </c><c>   1</c></rc>
    <rc><c>H </c><c>   1</c></rc>
    <rc><c>H </c><c>   1</c></rc>
    <rc><c>H </c><c>   1</c></rc>
    <rc><c>H </c><c>   1</c></rc>
    <rc><c>H </c><c>   1</c></rc>
    <rc><c>H </c><c>   1</c></rc>
    <rc><c>H </c><c>   1</c></rc>
    <rc><c>H </c><c>   1</c></rc>
    <rc><c>H </c><c>   1</c></rc>
    <rc><c>H </c><c>   1</c></rc>
    <rc><c>H </c><c>   1</c></rc>
    <rc><c>H </c><c>   1</c></rc>
    <rc><c>H </c><c>   1</c></rc>
    <rc><c>H </c><c>   1</c></rc>
    <rc><c>H </c><c>   1</c></rc>
    <rc><c>H </c><c>   1</c></rc>
    <rc><c>H </c><c>   1</c></rc>
    <rc><c>H </c><c>   1</c></rc>
    <rc><c>H </c><c>   1</c></rc>
    <rc><c>H </c><c>   1</c></rc>
    <rc><c>H </c><c>   1</c></rc>
    <rc><c>H </c><c>   1</c></rc>
    <rc><c>H </c><c>   1</c></rc>
    <rc><c>H </c><c>   1</c></rc>
    <rc><c>H </c><c>   1</c></rc>
    <rc><c>H </c><c>   1</c></rc>
    <rc><c>H </c><c>   1</c></rc>
    <rc><c>H </c><c>   1</c></rc>
    <rc><c>H </c><c>   1</c></rc>
    <rc><c>H </c><c>   1</c></rc>
    <rc><c>H </c><c>   1</c></rc>
    <rc><c>H </c><c>   1</c></rc>
    <rc><c>H </c><c>   1</c></rc>
    <rc><c>H </c><c>   1</c></rc>
    <rc><c>C </c><c>   2</c></rc>
    <rc><c>C </c><c>   2</c></rc>
    <rc><c>C </c><c>   2</c></rc>
    <rc><c>C </c><c>   2</c></rc>
    <rc><c>C </c><c>   2</c></rc>
    <rc><c>C </c><c>   2</c></rc>
    <rc><c>C </c><c>   2</c></rc>
    <rc><c>C </c><c>   2</c></rc>
    <rc><c>C </c><c>   2</c></rc>
    <rc><c>C </c><c>   2</c></rc>
    <rc><c>C </c><c>   2</c></rc>
    <rc><c>C </c><c>   2</c></rc>
    <rc><c>C </c><c>   2</c></rc>
    <rc><c>C </c><c>   2</c></rc>
    <rc><c>C </c><c>   2</c></rc>
    <rc><c>C </c><c>   2</c></rc>
    <rc><c>C </c><c>   2</c></rc>
    <rc><c>C </c><c>   2</c></rc>
    <rc><c>C </c><c>   2</c></rc>
    <rc><c>C </c><c>   2</c></rc>
    <rc><c>C </c><c>   2</c></rc>
    <rc><c>C </c><c>   2</c></rc>
    <rc><c>C </c><c>   2</c></rc>
    <rc><c>C </c><c>   2</c></rc>
    <rc><c>C </c><c>   2</c></rc>
    <rc><c>C </c><c>   2</c></rc>
    <rc><c>C </c><c>   2</c></rc>
    <rc><c>C </c><c>   2</c></rc>
    <rc><c>C </c><c>   2</c></rc>
    <rc><c>C </c><c>   2</c></rc>
    <rc><c>C </c><c>   2</c></rc>
    <rc><c>C </c><c>   2</c></rc>
    <rc><c>C </c><c>   2</c></rc>
    <rc><c>C </c><c>   2</c></rc>
    <rc><c>C </c><c>   2</c></rc>
    <rc><c>C </c><c>   2</c></rc>
    <rc><c>C </c><c>   2</c></rc>
    <rc><c>C </c><c>   2</c></rc>
    <rc><c>C </c><c>   2</c></rc>
    <rc><c>N </c><c>   3</c></rc>
    <rc><c>N </c><c>   3</c></rc>
    <rc><c>N </c><c>   3</c></rc>
    <rc><c>N </c><c>   3</c></rc>
    <rc><c>N </c><c>   3</c></rc>
    <rc><c>N </c><c>   3</c></rc>
    <rc><c>N </c><c>   3</c></rc>
    <rc><c>N </c><c>   3</c></rc>
    <rc><c>N </c><c>   3</c></rc>
    <rc><c>N </c><c>   3</c></rc>
    <rc><c>N </c><c>   3</c></rc>
    <rc><c>N </c><c>   3</c></rc>
    <rc><c>N </c><c>   3</c></rc>
    <rc><c>N </c><c>   3</c></rc>
    <rc><c>N </c><c>   3</c></rc>
    <rc><c>N </c><c>   3</c></rc>
    <rc><c>N </c><c>   3</c></rc>
    <rc><c>N </c><c>   3</c></rc>
    <rc><c>N </c><c>   3</c></rc>
    <rc><c>N </c><c>   3</c></rc>
    <rc><c>N </c><c>   3</c></rc>
    <rc><c>N </c><c>   3</c></rc>
    <rc><c>N </c><c>   3</c></rc>
    <rc><c>N </c><c>   3</c></rc>
    <rc><c>N </c><c>   3</c></rc>
    <rc><c>N </c><c>   3</c></rc>
    <rc><c>N </c><c>   3</c></rc>
    <rc><c>N </c><c>   3</c></rc>
    <rc><c>N </c><c>   3</c></rc>
    <rc><c>N </c><c>   3</c></rc>
    <rc><c>N </c><c>   3</c></rc>
    <rc><c>N </c><c>   3</c></rc>
    <rc><c>N </c><c>   3</c></rc>
    <rc><c>N </c><c>   3</c></rc>
    <rc><c>N </c><c>   3</c></rc>
    <rc><c>N </c><c>   3</c></rc>
    <rc><c>N </c><c>   3</c></rc>
    <rc><c>N </c><c>   3</c></rc>
    <rc><c>N </c><c>   3</c></rc>
    <rc><c>N </c><c>   3</c></rc>
    <rc><c>N </c><c>   3</c></rc>
    <rc><c>N </c><c>   3</c></rc>
    <rc><c>N </c><c>   3</c></rc>
    <rc><c>N </c><c>   3</c></rc>
    <rc><c>N </c><c>   3</c></rc>
    <rc><c>N </c><c>   3</c></rc>
    <rc><c>N </c><c>   3</c></rc>
    <rc><c>I </c><c>   4</c></rc>
    <rc><c>I </c><c>   4</c></rc>
    <rc><c>I </c><c>   4</c></rc>
    <rc><c>I </c><c>   4</c></rc>
    <rc><c>I </c><c>   4</c></rc>
    <rc><c>I </c><c>   4</c></rc>
    <rc><c>I </c><c>   4</c></rc>
    <rc><c>I </c><c>   4</c></rc>
    <rc><c>I </c><c>   4</c></rc>
    <rc><c>I </c><c>   4</c></rc>
    <rc><c>I </c><c>   4</c></rc>
    <rc><c>I </c><c>   4</c></rc>
    <rc><c>I </c><c>   4</c></rc>
    <rc><c>I </c><c>   4</c></rc>
    <rc><c>I </c><c>   4</c></rc>
    <rc><c>I </c><c>   4</c></rc>
    <rc><c>I </c><c>   4</c></rc>
    <rc><c>I </c><c>   4</c></rc>
    <rc><c>I </c><c>   4</c></rc>
    <rc><c>I </c><c>   4</c></rc>
    <rc><c>I </c><c>   4</c></rc>
    <rc><c>I </c><c>   4</c></rc>
    <rc><c>I </c><c>   4</c></rc>
    <rc><c>I </c><c>   4</c></rc>
    <rc><c>I </c><c>   4</c></rc>
    <rc><c>I </c><c>   4</c></rc>
    <rc><c>I </c><c>   4</c></rc>
    <rc><c>I </c><c>   4</c></rc>
    <rc><c>I </c><c>   4</c></rc>
    <rc><c>I </c><c>   4</c></rc>
    <rc><c>I </c><c>   4</c></rc>
    <rc><c>I </c><c>   4</c></rc>
    <rc><c>I </c><c>   4</c></rc>
    <rc><c>I </c><c>   4</c></rc>
    <rc><c>I </c><c>   4</c></rc>
    <rc><c>I </c><c>   4</c></rc>
    <rc><c>I </c><c>   4</c></rc>
    <rc><c>I </c><c>   4</c></rc>
    <rc><c>I </c><c>   4</c></rc>
    <rc><c>I </c><c>   4</c></rc>
    <rc><c>I </c><c>   4</c></rc>
    <rc><c>I </c><c>   4</c></rc>
    <rc><c>I </c><c>   4</c></rc>
    <rc><c>I </c><c>   4</c></rc>
    <rc><c>I </c><c>   4</c></rc>
    <rc><c>I </c><c>   4</c></rc>
    <rc><c>I </c><c>   4</c></rc>
    <rc><c>I </c><c>   4</c></rc>
    <rc><c>I </c><c>   4</c></rc>
    <rc><c>I </c><c>   4</c></rc>
    <rc><c>I </c><c>   4</c></rc>
    <rc><c>I </c><c>   4</c></rc>
    <rc><c>I </c><c>   4</c></rc>
    <rc><c>I </c><c>   4</c></rc>
    <rc><c>I </c><c>   4</c></rc>
    <rc><c>I </c><c>   4</c></rc>
    <rc><c>I </c><c>   4</c></rc>
    <rc><c>I </c><c>   4</c></rc>
    <rc><c>I </c><c>   4</c></rc>
    <rc><c>I </c><c>   4</c></rc>
    <rc><c>I </c><c>   4</c></rc>
    <rc><c>I </c><c>   4</c></rc>
    <rc><c>I </c><c>   4</c></rc>
    <rc><c>I </c><c>   4</c></rc>
    <rc><c>I </c><c>   4</c></rc>
    <rc><c>I </c><c>   4</c></rc>
    <rc><c>I </c><c>   4</c></rc>
    <rc><c>I </c><c>   4</c></rc>
    <rc><c>I </c><c>   4</c></rc>
    <rc><c>I </c><c>   4</c></rc>
    <rc><c>I </c><c>   4</c></rc>
    <rc><c>I </c><c>   4</c></rc>
    <rc><c>Pb</c><c>   5</c></rc>
    <rc><c>Pb</c><c>   5</c></rc>
    <rc><c>Pb</c><c>   5</c></rc>
    <rc><c>Pb</c><c>   5</c></rc>
    <rc><c>Pb</c><c>   5</c></rc>
    <rc><c>Pb</c><c>   5</c></rc>
    <rc><c>Pb</c><c>   5</c></rc>
    <rc><c>Pb</c><c>   5</c></rc>
    <rc><c>Pb</c><c>   5</c></rc>
    <rc><c>Pb</c><c>   5</c></rc>
    <rc><c>Pb</c><c>   5</c></rc>
    <rc><c>Pb</c><c>   5</c></rc>
    <rc><c>Pb</c><c>   5</c></rc>
    <rc><c>Pb</c><c>   5</c></rc>
    <rc><c>Pb</c><c>   5</c></rc>
    <rc><c>Pb</c><c>   5</c></rc>
    <rc><c>Pb</c><c>   5</c></rc>
    <rc><c>Pb</c><c>   5</c></rc>
    <rc><c>Pb</c><c>   5</c></rc>
    <rc><c>Pb</c><c>   5</c></rc>
    <rc><c>Pb</c><c>   5</c></rc>
    <rc><c>Pb</c><c>   5</c></rc>
    <rc><c>Pb</c><c>   5</c></rc>
    <rc><c>Pb</c><c>   5</c></rc>
   </set>
  </array>
  <array name="atomtypes" >
   <dimension dim="1">type</dimension>
   <field type="int">atomspertype</field>
   <field type="string">element</field>
   <field>mass</field>
   <field>valence</field>
   <field type="string">pseudopotential</field>
   <set>
    <rc><c> 143</c><c>H </c><c>      1.00000000</c><c>      1.00000000</c><c>  PAW_PBE H 15Jun2001                   </c></rc>
    <rc><c>  39</c><c>C </c><c>     12.01100000</c><c>      4.00000000</c><c>  PAW_PBE C 08Apr2002                   </c></rc>
    <rc><c>  47</c><c>N </c><c>     14.00100000</c><c>      5.00000000</c><c>  PAW_PBE N 08Apr2002                   </c></rc>
    <rc><c>  72</c><c>I </c><c>    126.90400000</c><c>      7.00000000</c><c>  PAW_PBE I 08Apr2002                   </c></rc>
    <rc><c>  24</c><c>Pb</c><c>    207.20000000</c><c>      4.00000000</c><c>  PAW_PBE Pb 08Apr2002                  </c></rc>
   </set>
  </array>
 </atominfo>
 <structure name="initialpos" >
  <crystal>
   <varray name="basis" >
    <v>      18.06080055       0.00000000       0.00000000 </v>
    <v>      -0.00491865      18.06279945       0.00000000 </v>
    <v>       0.00000000       0.00000000      62.48749924 </v>
   </varray>
   <i name="volume">  20385.21054034 </i>
   <varray name="rec_basis" >
    <v>       0.05536853       0.00001508      -0.00000000 </v>
    <v>       0.00000000       0.05536240       0.00000000 </v>
    <v>       0.00000000      -0.00000000       0.01600320 </v>
   </varray>
  </crystal>
  <varray name="positions" >
   <v>       0.43337391       0.27414521       0.58393375 </v>
   <v>       0.42607053       0.77124704       0.58100042 </v>
   <v>       0.93981369       0.29517427       0.58373126 </v>
   <v>       0.95018950       0.80592309       0.58166651 </v>
   <v>       0.30405765       0.05048839       0.58222064 </v>
   <v>       0.30537653       0.56675340       0.57766699 </v>
   <v>       0.77664789       0.06621432       0.58218395 </v>
   <v>       0.09217893       0.17910678       0.56107224 </v>
   <v>       0.08811973       0.67902798       0.55902893 </v>
   <v>       0.59715331       0.18462311       0.56016746 </v>
   <v>       0.61158901       0.72208952       0.55988243 </v>
   <v>       0.36092711       0.04093583       0.55918014 </v>
   <v>       0.30136431       0.59962182       0.55115315 </v>
   <v>       0.83234600       0.07815368       0.55924638 </v>
   <v>       0.06743583       0.22217593       0.58520262 </v>
   <v>       0.03321870       0.69138497       0.58170296 </v>
   <v>       0.54313097       0.18644380       0.58373156 </v>
   <v>       0.55483295       0.70790363       0.58180265 </v>
   <v>       0.24156946       0.44507281       0.58452866 </v>
   <v>       0.18166615       0.98794066       0.58140798 </v>
   <v>       0.68901746       0.96001002       0.58190966 </v>
   <v>       0.41605378       0.31917423       0.55971907 </v>
   <v>       0.40679748       0.82049478       0.55781573 </v>
   <v>       0.89765963       0.28686943       0.55860416 </v>
   <v>       0.95309431       0.85975594       0.55836223 </v>
   <v>       0.19873352       0.40132352       0.56252761 </v>
   <v>       0.15808723       0.93971544       0.55767593 </v>
   <v>       0.69028891       0.90161404       0.55883510 </v>
   <v>       0.51823337       0.26481620       0.54230372 </v>
   <v>       0.52050181       0.79276638       0.54202150 </v>
   <v>       0.98603441       0.21211213       0.54310637 </v>
   <v>       0.04418913       0.78703666       0.54225744 </v>
   <v>       0.23448764       0.49802885       0.53909281 </v>
   <v>       0.27235081       0.97029763       0.54159124 </v>
   <v>       0.78048726       0.97305010       0.54245963 </v>
   <v>       0.43887344       0.29154818       0.67456784 </v>
   <v>       0.43762836       0.81525065       0.67222131 </v>
   <v>       0.95274552       0.29102498       0.67770141 </v>
   <v>       0.94161592       0.79926847       0.67639102 </v>
   <v>       0.30112440       0.05326493       0.67465520 </v>
   <v>       0.29930946       0.55589777       0.67571688 </v>
   <v>       0.80756953       0.04988803       0.67534308 </v>
   <v>       0.80750606       0.55436975       0.67447536 </v>
   <v>       0.08366531       0.17137033       0.64751269 </v>
   <v>       0.08901748       0.68753258       0.65243689 </v>
   <v>       0.57923027       0.17420673       0.64752417 </v>
   <v>       0.56815570       0.66521410       0.65706648 </v>
   <v>       0.17655435       0.41639587       0.65088812 </v>
   <v>       0.17180685       0.92134650       0.65008425 </v>
   <v>       0.66455693       0.41669623       0.65637121 </v>
   <v>       0.66411534       0.93237987       0.65016648 </v>
   <v>       0.06091406       0.19063714       0.67371819 </v>
   <v>       0.04823518       0.69896181       0.67707066 </v>
   <v>       0.54167251       0.18732431       0.67282726 </v>
   <v>       0.53385012       0.70667344       0.68010038 </v>
   <v>       0.20080831       0.44759886       0.67636636 </v>
   <v>       0.19722303       0.95247014       0.67548252 </v>
   <v>       0.70426614       0.44827583       0.68023444 </v>
   <v>       0.69367998       0.95775149       0.67570833 </v>
   <v>       0.42224775       0.33164399       0.65009005 </v>
   <v>       0.42559128       0.83346828       0.64514723 </v>
   <v>       0.92073283       0.32235946       0.65306946 </v>
   <v>       0.92735888       0.83954398       0.65180939 </v>
   <v>       0.33065107       0.07665584       0.64881013 </v>
   <v>       0.32583959       0.58163438       0.65013327 </v>
   <v>       0.83741996       0.07317622       0.64970557 </v>
   <v>       0.81506280       0.58025166       0.64800266 </v>
   <v>       0.99693887       0.25316295       0.63250999 </v>
   <v>       0.02053844       0.77463042       0.63514223 </v>
   <v>       0.50742527       0.26517419       0.63126426 </v>
   <v>       0.50745190       0.74045103       0.63373222 </v>
   <v>       0.25281331       0.99443395       0.63176894 </v>
   <v>       0.25015004       0.49684745       0.63255926 </v>
   <v>       0.75090664       0.99953198       0.63203779 </v>
   <v>       0.73046513       0.49882736       0.63494591 </v>
   <v>       0.44874502       0.30128397       0.76888902 </v>
   <v>       0.44874501       0.80128391       0.76888902 </v>
   <v>       0.94874497       0.30128397       0.76888902 </v>
   <v>       0.94874501       0.80128391       0.76888902 </v>
   <v>       0.30127600       0.05129450       0.76887296 </v>
   <v>       0.30127601       0.55129450       0.76887296 </v>
   <v>       0.80127594       0.05129450       0.76887296 </v>
   <v>       0.80127598       0.55129450       0.76887296 </v>
   <v>       0.07877100       0.17118050       0.74344197 </v>
   <v>       0.07877101       0.67118045       0.74344197 </v>
   <v>       0.57877100       0.17118050       0.74344197 </v>
   <v>       0.57877099       0.67118045       0.74344197 </v>
   <v>       0.17119950       0.42117448       0.74342103 </v>
   <v>       0.17119950       0.92117451       0.74342103 </v>
   <v>       0.67119951       0.42117448       0.74342103 </v>
   <v>       0.67119950       0.92117451       0.74342103 </v>
   <v>       0.05125600       0.19871499       0.76888902 </v>
   <v>       0.05125600       0.69871493       0.76888902 </v>
   <v>       0.55125603       0.19871499       0.76888902 </v>
   <v>       0.55125602       0.69871493       0.76888902 </v>
   <v>       0.19872349       0.44870397       0.76887205 </v>
   <v>       0.19872349       0.94870397       0.76887205 </v>
   <v>       0.69872352       0.44870397       0.76887205 </v>
   <v>       0.69872351       0.94870397       0.76887205 </v>
   <v>       0.42123152       0.32881747       0.74344197 </v>
   <v>       0.42123151       0.82881744       0.74344197 </v>
   <v>       0.92123147       0.32881747       0.74344197 </v>
   <v>       0.92123151       0.82881744       0.74344197 </v>
   <v>       0.32880050       0.07882500       0.74342103 </v>
   <v>       0.32880049       0.57882496       0.74342103 </v>
   <v>       0.82880048       0.07882500       0.74342103 </v>
   <v>       0.82880052       0.57882496       0.74342103 </v>
   <v>       0.00000350       0.25000148       0.72582199 </v>
   <v>       0.00000350       0.75000145       0.72582199 </v>
   <v>       0.50000351       0.25000148       0.72582199 </v>
   <v>       0.50000350       0.75000145       0.72582199 </v>
   <v>       0.25000050       0.00000000       0.72580398 </v>
   <v>       0.25000052       0.50000000       0.72580398 </v>
   <v>       0.75000050       0.00000000       0.72580398 </v>
   <v>       0.75000049       0.50000000       0.72580398 </v>
   <v>       0.77676383       0.51441208       0.52206279 </v>
   <v>       0.86893797       0.51444767       0.53494934 </v>
   <v>       0.76500554       0.63018884       0.54058694 </v>
   <v>       0.76984055       0.63250766       0.56825898 </v>
   <v>       0.68026376       0.46320069       0.56186714 </v>
   <v>       0.67596642       0.55851369       0.56838059 </v>
   <v>       0.80893464       0.43098775       0.57367511 </v>
   <v>       0.87279047       0.50340271       0.57443533 </v>
   <v>       0.85790855       0.39218670       0.54478340 </v>
   <v>       0.76125344       0.38457794       0.54040301 </v>
   <v>       0.77377790       0.39131989       0.50321060 </v>
   <v>       0.86484093       0.42851730       0.50418226 </v>
   <v>       0.89416251       0.63104189       0.53497724 </v>
   <v>       0.91568280       0.61201276       0.56176879 </v>
   <v>       0.87334880       0.69804334       0.55413055 </v>
   <v>       0.59423661       0.53327734       0.53720364 </v>
   <v>       0.66688973       0.48648938       0.52312154 </v>
   <v>       0.66924430       0.58518033       0.52703028 </v>
   <v>       0.73276807       0.47988899       0.60108275 </v>
   <v>       0.75298042       0.57099955       0.59256255 </v>
   <v>       0.81615820       0.52554099       0.60863327 </v>
   <v>       0.83717258       0.27152396       0.52056848 </v>
   <v>       0.84319138       0.28932046       0.49275420 </v>
   <v>       0.93773286       0.18366846       0.50365750 </v>
   <v>       0.97235476       0.41862955       0.51487972 </v>
   <v>       0.07265650       0.16513114       0.50525010 </v>
   <v>       0.10284158       0.39949978       0.51736990 </v>
   <v>       0.15889967       0.27129999       0.51239362 </v>
   <v>       0.99332118       0.23142735       0.56021202 </v>
   <v>       0.02224295       0.77047017       0.55742143 </v>
   <v>       0.50478189       0.25168348       0.55890537 </v>
   <v>       0.50751136       0.77052614       0.55774321 </v>
   <v>       0.25014668       0.50157918       0.55601477 </v>
   <v>       0.25912471       0.99087092       0.55764480 </v>
   <v>       0.76078151       0.99089183       0.55826687 </v>
   <v>       0.00172029       0.24777033       0.64991441 </v>
   <v>       0.00789123       0.76464009       0.65139585 </v>
   <v>       0.49999005       0.25410536       0.64793404 </v>
   <v>       0.49716299       0.75061322       0.65039119 </v>
   <v>       0.25213762       0.49983532       0.64976082 </v>
   <v>       0.25110107       0.99945725       0.64870824 </v>
   <v>       0.73958796       0.49810277       0.65216957 </v>
   <v>       0.75175547       0.00288152       0.64921280 </v>
   <v>       0.49998898       0.24999498       0.74327702 </v>
   <v>       0.49998903       0.74999496       0.74327702 </v>
   <v>       0.99998898       0.24999498       0.74327702 </v>
   <v>       0.99998903       0.74999496       0.74327702 </v>
   <v>       0.25000050       0.00000100       0.74325596 </v>
   <v>       0.25000052       0.50000100       0.74325596 </v>
   <v>       0.75000050       0.00000100       0.74325596 </v>
   <v>       0.75000049       0.50000100       0.74325596 </v>
   <v>       0.94299032       0.30433958       0.50895858 </v>
   <v>       0.97478554       0.23102696       0.50583408 </v>
   <v>       0.99106146       0.36272861       0.51159967 </v>
   <v>       0.05080080       0.22097281       0.50690421 </v>
   <v>       0.06907986       0.35071365       0.51321239 </v>
   <v>       0.09866347       0.28090933       0.51118119 </v>
   <v>       0.81172586       0.49137787       0.53520904 </v>
   <v>       0.79669117       0.60989493       0.55431180 </v>
   <v>       0.69481167       0.51966044       0.55596142 </v>
   <v>       0.81327061       0.49132449       0.57487603 </v>
   <v>       0.81240432       0.41029507       0.53477047 </v>
   <v>       0.82760301       0.38406873       0.51133485 </v>
   <v>       0.87434226       0.63776684       0.55150105 </v>
   <v>       0.65475584       0.53221879       0.53459063 </v>
   <v>       0.77676068       0.51664009       0.59553342 </v>
   <v>       0.86043314       0.30997727       0.50847472 </v>
   <v>       0.05450800       0.20884361       0.56951247 </v>
   <v>       0.04865855       0.71111642       0.56668433 </v>
   <v>       0.54870881       0.20328364       0.56824622 </v>
   <v>       0.55901404       0.72864346       0.56686368 </v>
   <v>       0.44884841       0.28305651       0.56784295 </v>
   <v>       0.44429764       0.78794579       0.56548914 </v>
   <v>       0.94106344       0.27304802       0.56832980 </v>
   <v>       0.97229159       0.81292259       0.56631298 </v>
   <v>       0.22869686       0.44642216       0.56896036 </v>
   <v>       0.19584992       0.97166544       0.56663561 </v>
   <v>       0.70945258       0.94987892       0.56730658 </v>
   <v>       0.31013988       0.03013204       0.56741714 </v>
   <v>       0.28711814       0.55866564       0.56250478 </v>
   <v>       0.79177087       0.04814062       0.56767403 </v>
   <v>       0.05246344       0.19960878       0.65785369 </v>
   <v>       0.05130975       0.71292854       0.66124279 </v>
   <v>       0.54388090       0.20083581       0.65698724 </v>
   <v>       0.53431127       0.70518164       0.66331565 </v>
   <v>       0.20636218       0.45066239       0.65948048 </v>
   <v>       0.20290955       0.95441475       0.65863454 </v>
   <v>       0.70244170       0.45381759       0.66419449 </v>
   <v>       0.69902811       0.96096333       0.65884100 </v>
   <v>       0.45214812       0.29339794       0.65804135 </v>
   <v>       0.45176100       0.80132715       0.65612818 </v>
   <v>       0.95716140       0.28804449       0.66113871 </v>
   <v>       0.95586849       0.80266547       0.66103456 </v>
   <v>       0.29808228       0.04743250       0.65786797 </v>
   <v>       0.29368545       0.54741878       0.65888734 </v>
   <v>       0.80115800       0.04303142       0.65838303 </v>
   <v>       0.79028860       0.54732221       0.65897336 </v>
   <v>       0.04586250       0.20411950       0.75272599 </v>
   <v>       0.04586250       0.70411946       0.75272599 </v>
   <v>       0.54586251       0.20411950       0.75272599 </v>
   <v>       0.54586250       0.70411946       0.75272599 </v>
   <v>       0.20411900       0.45410100       0.75270499 </v>
   <v>       0.20411899       0.95410095       0.75270499 </v>
   <v>       0.70411898       0.45410100       0.75270499 </v>
   <v>       0.70411896       0.95410095       0.75270499 </v>
   <v>       0.45414002       0.29588849       0.75272697 </v>
   <v>       0.45414001       0.79588852       0.75272697 </v>
   <v>       0.95414002       0.29588849       0.75272697 </v>
[...]
   <v>       0.59715331       0.18462311       0.56016746 </v>
   <v>       0.61158901       0.72208952       0.55988243 </v>
   <v>       0.36092711       0.04093583       0.55918014 </v>
   <v>       0.30136431       0.59962182       0.55115315 </v>
   <v>       0.83234600       0.07815368       0.55924638 </v>
   <v>       0.06743583       0.22217593       0.58520262 </v>
   <v>       0.03321870       0.69138497       0.58170296 </v>
   <v>       0.54313097       0.18644380       0.58373156 </v>
   <v>       0.55483295       0.70790363       0.58180265 </v>
   <v>       0.24156946       0.44507281       0.58452866 </v>
   <v>       0.18166615       0.98794066       0.58140798 </v>
   <v>       0.68901746       0.96001002       0.58190966 </v>
   <v>       0.41605378       0.31917423       0.55971907 </v>
   <v>       0.40679748       0.82049478       0.55781573 </v>
   <v>       0.89765963       0.28686943       0.55860416 </v>
   <v>       0.95309431       0.85975594       0.55836223 </v>
   <v>       0.19873352       0.40132352       0.56252761 </v>
   <v>       0.15808723       0.93971544       0.55767593 </v>
   <v>       0.69028891       0.90161404       0.55883510 </v>
   <v>       0.51823337       0.26481620       0.54230372 </v>
   <v>       0.52050181       0.79276638       0.54202150 </v>
   <v>       0.98603441       0.21211213       0.54310637 </v>
   <v>       0.04418913       0.78703666       0.54225744 </v>
   <v>       0.23448764       0.49802885       0.53909281 </v>
   <v>       0.27235081       0.97029763       0.54159124 </v>
   <v>       0.78048726       0.97305010       0.54245963 </v>
   <v>       0.43887344       0.29154818       0.67456784 </v>
   <v>       0.43762836       0.81525065       0.67222131 </v>
   <v>       0.95274552       0.29102498       0.67770141 </v>
   <v>       0.94161592       0.79926847       0.67639102 </v>
   <v>       0.30112440       0.05326493       0.67465520 </v>
   <v>       0.29930946       0.55589777       0.67571688 </v>
   <v>       0.80756953       0.04988803       0.67534308 </v>
   <v>       0.80750606       0.55436975       0.67447536 </v>
   <v>       0.08366531       0.17137033       0.64751269 </v>
   <v>       0.08901748       0.68753258       0.65243689 </v>
   <v>       0.57923027       0.17420673       0.64752417 </v>
   <v>       0.56815570       0.66521410       0.65706648 </v>
   <v>       0.17655435       0.41639587       0.65088812 </v>
   <v>       0.17180685       0.92134650       0.65008425 </v>
   <v>       0.66455693       0.41669623       0.65637121 </v>
   <v>       0.66411534       0.93237987       0.65016648 </v>
   <v>       0.06091406       0.19063714       0.67371819 </v>
   <v>       0.04823518       0.69896181       0.67707066 </v>
   <v>       0.54167251       0.18732431       0.67282726 </v>
   <v>       0.53385012       0.70667344       0.68010038 </v>
   <v>       0.20080831       0.44759886       0.67636636 </v>
   <v>       0.19722303       0.95247014       0.67548252 </v>
   <v>       0.70426614       0.44827583       0.68023444 </v>
   <v>       0.69367998       0.95775149       0.67570833 </v>
   <v>       0.42224775       0.33164399       0.65009005 </v>
   <v>       0.42559128       0.83346828       0.64514723 </v>
   <v>       0.92073283       0.32235946       0.65306946 </v>
   <v>       0.92735888       0.83954398       0.65180939 </v>
   <v>       0.33065107       0.07665584       0.64881013 </v>
   <v>       0.32583959       0.58163438       0.65013327 </v>
   <v>       0.83741996       0.07317622       0.64970557 </v>
   <v>       0.81506280       0.58025166       0.64800266 </v>
   <v>       0.99693887       0.25316295       0.63250999 </v>
   <v>       0.02053844       0.77463042       0.63514223 </v>
   <v>       0.50742527       0.26517419       0.63126426 </v>
   <v>       0.50745190       0.74045103       0.63373222 </v>
   <v>       0.25281331       0.99443395       0.63176894 </v>
   <v>       0.25015004       0.49684745       0.63255926 </v>
   <v>       0.75090664       0.99953198       0.63203779 </v>
   <v>       0.73046513       0.49882736       0.63494591 </v>
   <v>       0.44874502       0.30128397       0.76888902 </v>
   <v>       0.44874501       0.80128391       0.76888902 </v>
   <v>       0.94874497       0.30128397       0.76888902 </v>
   <v>       0.94874501       0.80128391       0.76888902 </v>
   <v>       0.30127600       0.05129450       0.76887296 </v>
   <v>       0.30127601       0.55129450       0.76887296 </v>
   <v>       0.80127594       0.05129450       0.76887296 </v>
   <v>       0.80127598       0.55129450       0.76887296 </v>
   <v>       0.07877100       0.17118050       0.74344197 </v>
   <v>       0.07877101       0.67118045       0.74344197 </v>
   <v>       0.57877100       0.17118050       0.74344197 </v>
   <v>       0.57877099       0.67118045       0.74344197 </v>
   <v>       0.17119950       0.42117448       0.74342103 </v>
   <v>       0.17119950       0.92117451       0.74342103 </v>
   <v>       0.67119951       0.42117448       0.74342103 </v>
   <v>       0.67119950       0.92117451       0.74342103 </v>
   <v>       0.05125600       0.19871499       0.76888902 </v>
   <v>       0.05125600       0.69871493       0.76888902 </v>
   <v>       0.55125603       0.19871499       0.76888902 </v>
   <v>       0.55125602       0.69871493       0.76888902 </v>
   <v>       0.19872349       0.44870397       0.76887205 </v>
   <v>       0.19872349       0.94870397       0.76887205 </v>
   <v>       0.69872352       0.44870397       0.76887205 </v>
   <v>       0.69872351       0.94870397       0.76887205 </v>
   <v>       0.42123152       0.32881747       0.74344197 </v>
   <v>       0.42123151       0.82881744       0.74344197 </v>
   <v>       0.92123147       0.32881747       0.74344197 </v>
   <v>       0.92123151       0.82881744       0.74344197 </v>
   <v>       0.32880050       0.07882500       0.74342103 </v>
   <v>       0.32880049       0.57882496       0.74342103 </v>
   <v>       0.82880048       0.07882500       0.74342103 </v>
   <v>       0.82880052       0.57882496       0.74342103 </v>
   <v>       0.00000350       0.25000148       0.72582199 </v>
   <v>       0.00000350       0.75000145       0.72582199 </v>
   <v>       0.50000351       0.25000148       0.72582199 </v>
   <v>       0.50000350       0.75000145       0.72582199 </v>
   <v>       0.25000050       0.00000000       0.72580398 </v>
   <v>       0.25000052       0.50000000       0.72580398 </v>
   <v>       0.75000050       0.00000000       0.72580398 </v>
   <v>       0.75000049       0.50000000       0.72580398 </v>
   <v>       0.77676383       0.51441208       0.52206279 </v>
   <v>       0.86893797       0.51444767       0.53494934 </v>
   <v>       0.76500554       0.63018884       0.54058694 </v>
   <v>       0.76984055       0.63250766       0.56825898 </v>
   <v>       0.68026376       0.46320069       0.56186714 </v>
   <v>       0.67596642       0.55851369       0.56838059 </v>
   <v>       0.80893464       0.43098775       0.57367511 </v>
   <v>       0.87279047       0.50340271       0.57443533 </v>
   <v>       0.85790855       0.39218670       0.54478340 </v>
   <v>       0.76125344       0.38457794       0.54040301 </v>
   <v>       0.77377790       0.39131989       0.50321060 </v>
   <v>       0.86484093       0.42851730       0.50418226 </v>
   <v>       0.89416251       0.63104189       0.53497724 </v>
   <v>       0.91568280       0.61201276       0.56176879 </v>
   <v>       0.87334880       0.69804334       0.55413055 </v>
   <v>       0.59423661       0.53327734       0.53720364 </v>
   <v>       0.66688973       0.48648938       0.52312154 </v>
   <v>       0.66924430       0.58518033       0.52703028 </v>
   <v>       0.73276807       0.47988899       0.60108275 </v>
   <v>       0.75298042       0.57099955       0.59256255 </v>
   <v>       0.81615820       0.52554099       0.60863327 </v>
   <v>       0.83717258       0.27152396       0.52056848 </v>
   <v>       0.84319138       0.28932046       0.49275420 </v>
   <v>       0.93773286       0.18366846       0.50365750 </v>
   <v>       0.97235476       0.41862955       0.51487972 </v>
   <v>       0.07265650       0.16513114       0.50525010 </v>
   <v>       0.10284158       0.39949978       0.51736990 </v>
   <v>       0.15889967       0.27129999       0.51239362 </v>
   <v>       0.99332118       0.23142735       0.56021202 </v>
   <v>       0.02224295       0.77047017       0.55742143 </v>
   <v>       0.50478189       0.25168348       0.55890537 </v>
   <v>       0.50751136       0.77052614       0.55774321 </v>
   <v>       0.25014668       0.50157918       0.55601477 </v>
   <v>       0.25912471       0.99087092       0.55764480 </v>
   <v>       0.76078151       0.99089183       0.55826687 </v>
   <v>       0.00172029       0.24777033       0.64991441 </v>
   <v>       0.00789123       0.76464009       0.65139585 </v>
   <v>       0.49999005       0.25410536       0.64793404 </v>
   <v>       0.49716299       0.75061322       0.65039119 </v>
   <v>       0.25213762       0.49983532       0.64976082 </v>
   <v>       0.25110107       0.99945725       0.64870824 </v>
   <v>       0.73958796       0.49810277       0.65216957 </v>
   <v>       0.75175547       0.00288152       0.64921280 </v>
   <v>       0.49998898       0.24999498       0.74327702 </v>
   <v>       0.49998903       0.74999496       0.74327702 </v>
   <v>       0.99998898       0.24999498       0.74327702 </v>
   <v>       0.99998903       0.74999496       0.74327702 </v>
   <v>       0.25000050       0.00000100       0.74325596 </v>
   <v>       0.25000052       0.50000100       0.74325596 </v>
   <v>       0.75000050       0.00000100       0.74325596 </v>
   <v>       0.75000049       0.50000100       0.74325596 </v>
   <v>       0.94299032       0.30433958       0.50895858 </v>
   <v>       0.97478554       0.23102696       0.50583408 </v>
   <v>       0.99106146       0.36272861       0.51159967 </v>
   <v>       0.05080080       0.22097281       0.50690421 </v>
   <v>       0.06907986       0.35071365       0.51321239 </v>
   <v>       0.09866347       0.28090933       0.51118119 </v>
   <v>       0.81172586       0.49137787       0.53520904 </v>
   <v>       0.79669117       0.60989493       0.55431180 </v>
   <v>       0.69481167       0.51966044       0.55596142 </v>
   <v>       0.81327061       0.49132449       0.57487603 </v>
   <v>       0.81240432       0.41029507       0.53477047 </v>
   <v>       0.82760301       0.38406873       0.51133485 </v>
   <v>       0.87434226       0.63776684       0.55150105 </v>
   <v>       0.65475584       0.53221879       0.53459063 </v>
   <v>       0.77676068       0.51664009       0.59553342 </v>
   <v>       0.86043314       0.30997727       0.50847472 </v>
   <v>       0.05450800       0.20884361       0.56951247 </v>
   <v>       0.04865855       0.71111642       0.56668433 </v>
   <v>       0.54870881       0.20328364       0.56824622 </v>
   <v>       0.55901404       0.72864346       0.56686368 </v>
   <v>       0.44884841       0.28305651       0.56784295 </v>
   <v>       0.44429764       0.78794579       0.56548914 </v>
   <v>       0.94106344       0.27304802       0.56832980 </v>
   <v>       0.97229159       0.81292259       0.56631298 </v>
   <v>       0.22869686       0.44642216       0.56896036 </v>
   <v>       0.19584992       0.97166544       0.56663561 </v>
   <v>       0.70945258       0.94987892       0.56730658 </v>
   <v>       0.31013988       0.03013204       0.56741714 </v>
   <v>       0.28711814       0.55866564       0.56250478 </v>
   <v>       0.79177087       0.04814062       0.56767403 </v>
   <v>       0.05246344       0.19960878       0.65785369 </v>
   <v>       0.05130975       0.71292854       0.66124279 </v>
   <v>       0.54388090       0.20083581       0.65698724 </v>
   <v>       0.53431127       0.70518164       0.66331565 </v>
   <v>       0.20636218       0.45066239       0.65948048 </v>
   <v>       0.20290955       0.95441475       0.65863454 </v>
   <v>       0.70244170       0.45381759       0.66419449 </v>
   <v>       0.69902811       0.96096333       0.65884100 </v>
   <v>       0.45214812       0.29339794       0.65804135 </v>
   <v>       0.45176100       0.80132715       0.65612818 </v>
   <v>       0.95716140       0.28804449       0.66113871 </v>
   <v>       0.95586849       0.80266547       0.66103456 </v>
   <v>       0.29808228       0.04743250       0.65786797 </v>
   <v>       0.29368545       0.54741878       0.65888734 </v>
   <v>       0.80115800       0.04303142       0.65838303 </v>
   <v>       0.79028860       0.54732221       0.65897336 </v>
   <v>       0.04586250       0.20411950       0.75272599 </v>
   <v>       0.04586250       0.70411946       0.75272599 </v>
   <v>       0.54586251       0.20411950       0.75272599 </v>
   <v>       0.54586250       0.70411946       0.75272599 </v>
   <v>       0.20411900       0.45410100       0.75270499 </v>
   <v>       0.20411899       0.95410095       0.75270499 </v>
   <v>       0.70411898       0.45410100       0.75270499 </v>
   <v>       0.70411896       0.95410095       0.75270499 </v>
   <v>       0.45414002       0.29588849       0.75272697 </v>
   <v>       0.45414001       0.79588852       0.75272697 </v>
   <v>       0.95414002       0.29588849       0.75272697 </v>
   <v>       0.95414006       0.79588852       0.75272697 </v>
   <v>       0.29588249       0.04590050       0.75270499 </v>
   <v>       0.29588248       0.54590053       0.75270499 </v>
   <v>       0.79588244       0.04590050       0.75270499 </v>
   <v>       0.79588248       0.54590053       0.75270499 </v>
   <v>       0.78124597       0.52806087       0.55546468 </v>
   <v>       0.49699283       0.00209323       0.55221012 </v>
   <v>       0.46925253       0.48038618       0.55567889 </v>
   <v>       0.99256173       0.00570306       0.55102006 </v>
   <v>       0.02636518       0.49429531       0.55863163 </v>
   <v>       0.25701928       0.24603582       0.55449976 </v>
   <v>       0.24489528       0.75903197       0.55149135 </v>
   <v>       0.73693786       0.22823890       0.55540070 </v>
   <v>       0.72220809       0.77806987       0.54622162 </v>
   <v>       0.00572366       0.00204847       0.65453405 </v>
   <v>       0.00330437       0.50315192       0.65664122 </v>
   <v>       0.50326347       0.00330354       0.65413334 </v>
   <v>       0.50050423       0.49948348       0.65528347 </v>
   <v>       0.24827425       0.24797360       0.65517352 </v>
   <v>       0.24902021       0.75047785       0.65460365 </v>
   <v>       0.74159799       0.24880469       0.65561538 </v>
   <v>       0.74987455       0.75958973       0.65305603 </v>
   <v>       0.14614067       0.10184800       0.60870402 </v>
   <v>       0.14930393       0.60509404       0.60881562 </v>
   <v>       0.64027575       0.10514636       0.60891049 </v>
   <v>       0.61616142       0.63520631       0.61463685 </v>
   <v>       0.35758467       0.38846039       0.61128950 </v>
   <v>       0.35811088       0.89189649       0.60819977 </v>
   <v>       0.88384662       0.36880565       0.61456689 </v>
   <v>       0.85594891       0.89515981       0.60733241 </v>
   <v>       0.11210845       0.35478486       0.61016794 </v>
   <v>       0.10889165       0.85994554       0.60735665 </v>
   <v>       0.61527336       0.36605933       0.60691674 </v>
   <v>       0.61057117       0.86326092       0.60997173 </v>
   <v>       0.39422201       0.14048867       0.61013412 </v>
   <v>       0.38709856       0.64580323       0.60601415 </v>
   <v>       0.89073065       0.13450299       0.61031421 </v>
   <v>       0.91224862       0.66302051       0.61388499 </v>
   <v>       0.00000000       0.00000000       0.75492797 </v>
   <v>       0.00000000       0.50000000       0.75492797 </v>
   <v>       0.50000000       0.00000000       0.75492797 </v>
   <v>       0.49999999       0.50000000       0.75492797 </v>
   <v>       0.25000050       0.25000000       0.75493902 </v>
   <v>       0.25000051       0.74999997       0.75493902 </v>
   <v>       0.75000047       0.25000000       0.75493902 </v>
   <v>       0.75000046       0.74999997       0.75493902 </v>
   <v>       0.13579050       0.11421000       0.70478299 </v>
   <v>       0.13579050       0.61420998       0.70478299 </v>
   <v>       0.63579045       0.11421000       0.70478299 </v>
   <v>       0.63579049       0.61420998       0.70478299 </v>
   <v>       0.36420952       0.38578999       0.70478299 </v>
   <v>       0.36420950       0.88578996       0.70478299 </v>
   <v>       0.86420954       0.38578999       0.70478299 </v>
   <v>       0.86420953       0.88578996       0.70478299 </v>
   <v>       0.11421799       0.36421899       0.70478098 </v>
   <v>       0.11421799       0.86421899       0.70478098 </v>
   <v>       0.61421800       0.36421899       0.70478098 </v>
   <v>       0.61421799       0.86421899       0.70478098 </v>
   <v>       0.38578201       0.13578149       0.70478202 </v>
   <v>       0.38578200       0.63578149       0.70478202 </v>
   <v>       0.88578199       0.13578149       0.70478202 </v>
   <v>       0.88578203       0.63578149       0.70478202 </v>
   <v>       0.13466700       0.11533200       0.80125603 </v>
   <v>       0.13466699       0.61533199       0.80125603 </v>
   <v>       0.63466699       0.11533200       0.80125603 </v>
   <v>       0.63466698       0.61533199       0.80125603 </v>
   <v>       0.36533300       0.38466799       0.80125603 </v>
   <v>       0.36533299       0.88466796       0.80125603 </v>
   <v>       0.86533295       0.38466799       0.80125603 </v>
   <v>       0.86533294       0.88466796       0.80125603 </v>
   <v>       0.11532850       0.36533700       0.80126500 </v>
   <v>       0.11532850       0.86533698       0.80126500 </v>
   <v>       0.61532850       0.36533700       0.80126500 </v>
   <v>       0.61532849       0.86533698       0.80126500 </v>
   <v>       0.38467151       0.13466300       0.80126500 </v>
   <v>       0.38467150       0.63466297       0.80126500 </v>
   <v>       0.88467149       0.13466300       0.80126500 </v>
   <v>       0.88467153       0.63466297       0.80126500 </v>
   <v>       0.99917265       0.00364024       0.60250198 </v>
   <v>       0.01001311       0.50366416       0.60752196 </v>
   <v>       0.50165987       0.00093962       0.60231420 </v>
   <v>       0.49936162       0.49661456       0.60382866 </v>
   <v>       0.25577703       0.24808843       0.60419079 </v>
   <v>       0.24992476       0.75607657       0.60318638 </v>
   <v>       0.74847806       0.25065699       0.60584530 </v>
   <v>       0.74885756       0.75751198       0.60478033 </v>
   <v>       0.00000050       0.00000050       0.70482896 </v>
   <v>       0.00000050       0.50000048       0.70482896 </v>
   <v>       0.50000048       0.00000050       0.70482896 </v>
   <v>       0.50000046       0.50000048       0.70482896 </v>
   <v>       0.24999999       0.24999947       0.70482499 </v>
   <v>       0.25000001       0.74999950       0.70482499 </v>
   <v>       0.74999999       0.24999947       0.70482499 </v>
   <v>       0.74999998       0.74999950       0.70482499 </v>
   <v>       0.00000000       0.00000000       0.80731797 </v>
   <v>       0.00000000       0.50000000       0.80731797 </v>
   <v>       0.50000000       0.00000000       0.80731797 </v>
   <v>       0.49999999       0.50000000       0.80731797 </v>
   <v>       0.24999999       0.25000000       0.80731797 </v>
   <v>       0.25000001       0.74999997       0.80731797 </v>
   <v>       0.74999999       0.25000000       0.80731797 </v>
   <v>       0.74999998       0.74999997       0.80731797 </v>
  </varray>
 </structure>
</modeling>
