 vasp.6.2.1 16May21 (build Nov 15 2021 14:57:28) complex                         
 executed on             LinuxPGI date 2023.07.30  14:02:23
 running on    4 total cores
 distrk:  each k-point on    4 cores,    1 groups
 distr:  one band on NCORE=   1 cores,    4 groups


--------------------------------------------------------------------------------------------------------


 INCAR:
   SYSTEM = PSC
   ISTART = 1
   ICHARG = 1
   PREC = Normal
   ENCUT = 500
   GGA_COMPAT = F
   NELM = 600
   ISYM = 0
   LREAL = Auto
   ISMEAR = 0
   SIGMA = 0.05
   AMIN = 0.01
   BMIX = 0.01
   LVTOT = T
   LWAVE = F
   LDIPOL = T
   IDIPOL = 3
   LVDW = T
   IVDW = 12

 POTCAR:    PAW_PBE H 15Jun2001                   
 POTCAR:    PAW_PBE C 08Apr2002                   
 POTCAR:    PAW_PBE N 08Apr2002                   
 POTCAR:    PAW_PBE I 08Apr2002                   
 POTCAR:    PAW_PBE Pb 08Apr2002                  
 WARNING: For LVTOT=.TRUE., VASP.5.x writes the TOTAL local potential to the
     file LOCPOT. If you want only the Hartree contributions, use LVHAR=.TRUE.
     instead. 

 POTCAR:    PAW_PBE H 15Jun2001                   
   SHA256 =  030f79b5d3ab3cf0e668861823c8fb652ff669f3e15e46930bd03bfd63a607b6 H/POTCAR              
   COPYR  = (c) Copyright 15Jun2001 Georg Kresse                                                    
   COPYR  = This file is part of the software VASP. Any use, copying, and all other rights are regul
   COPYR  = If you do not have a valid VASP license, you may not use, copy or distribute this file. 
   VRHFIN =H: ultrasoft test                                                                        
   LEXCH  = PE                                                                                      
   EATOM  =    12.4884 eV,    0.9179 Ry                                                             
                                                                                                    
   TITEL  = PAW_PBE H 15Jun2001                                                                     
   LULTRA =        F    use ultrasoft PP ?                                                          
   IUNSCR =        0    unscreen: 0-lin 1-nonlin 2-no                                               
   RPACOR =    0.000    partial core radius                                                         
   POMASS =    1.000; ZVAL   =    1.000    mass and valenz                                          
   RCORE  =    1.100    outmost cutoff radius                                                       
   RWIGS  =    0.700; RWIGS  =    0.370    wigner-seitz radius (au A)                               
   ENMAX  =  250.000; ENMIN  =  200.000 eV                                                          
   RCLOC  =    0.701    cutoff for local pot                                                        
   LCOR   =        T    correct aug charges                                                         
   LPAW   =        T    paw PP                                                                      
   EAUG   =  400.000                                                                                
   RMAX   =    1.123    core radius for proj-oper                                                   
   RAUG   =    1.200    factor for augmentation sphere                                              
   RDEP   =    1.112    radius for radial grids                                                     
   RDEPT  =    0.926    core radius for aug-charge                                                  
                                                                                                    
   Atomic configuration                                                                             
    2 entries                                                                                       
     n  l   j            E        occ.                                                              
     1  0  0.50        -6.4927   1.0000                                                             
     2  1  0.50        -3.4015   0.0000                                                             
   Description                                                                                      
     l       E           TYP  RCUT    TYP  RCUT                                                     
     0     -6.4927494     23  1.100                                                                 
     0      6.8029130     23  1.100                                                                 
     1     -4.0817478     23  1.100                                                                 
  local pseudopotential read in
  atomic valenz-charges read in
  non local Contribution for L=            0  read in
    real space projection operators read in
  non local Contribution for L=            0  read in
    real space projection operators read in
  non local Contribution for L=            1  read in
    real space projection operators read in
    PAW grid and wavefunctions read in
 
   number of l-projection  operators is LMAX  =            3
   number of lm-projection operators is LMMAX =            5
 
 POTCAR:    PAW_PBE C 08Apr2002                   
   SHA256 =  253f7b50bb8d59471dbedb8285d89021f4a42ed1a2c5d38a03a736e69125dd95 C/POTCAR              
   COPYR  = (c) Copyright 08Apr2002 Georg Kresse                                                    
   COPYR  = This file is part of the software VASP. Any use, copying, and all other rights are regul
   COPYR  = If you do not have a valid VASP license, you may not use, copy or distribute this file. 
   VRHFIN =C: s2p2                                                                                  
   LEXCH  = PE                                                                                      
   EATOM  =   147.1560 eV,   10.8157 Ry                                                             
                                                                                                    
   TITEL  = PAW_PBE C 08Apr2002                                                                     
   LULTRA =        F    use ultrasoft PP ?                                                          
   IUNSCR =        1    unscreen: 0-lin 1-nonlin 2-no                                               
   RPACOR =    1.200    partial core radius                                                         
   POMASS =   12.011; ZVAL   =    4.000    mass and valenz                                          
   RCORE  =    1.500    outmost cutoff radius                                                       
   RWIGS  =    1.630; RWIGS  =    0.863    wigner-seitz radius (au A)                               
   ENMAX  =  400.000; ENMIN  =  300.000 eV                                                          
   ICORE  =        2    local potential                                                             
   LCOR   =        T    correct aug charges                                                         
   LPAW   =        T    paw PP                                                                      
   EAUG   =  644.873                                                                                
   DEXC   =    0.000                                                                                
   RMAX   =    1.529    core radius for proj-oper                                                   
   RAUG   =    1.300    factor for augmentation sphere                                              
   RDEP   =    1.501    radius for radial grids                                                     
   RDEPT  =    1.300    core radius for aug-charge                                                  
                                                                                                    
   Atomic configuration                                                                             
    4 entries                                                                                       
     n  l   j            E        occ.                                                              
     1  0  0.50      -273.3789   2.0000                                                             
     2  0  0.50       -13.7508   2.0000                                                             
     2  1  0.50        -5.2854   2.0000                                                             
     3  2  1.50        -5.4423   0.0000                                                             
   Description                                                                                      
     l       E           TYP  RCUT    TYP  RCUT                                                     
     0    -13.7508458     23  1.200                                                                 
     0     -8.2022199     23  1.200                                                                 
     1     -5.2854383     23  1.500                                                                 
     1     34.0145650     23  1.500                                                                 
     2     -5.4423304      7  1.500                                                                 
  local pseudopotential read in
  partial core-charges read in
  partial kinetic energy density read in
  atomic valenz-charges read in
  non local Contribution for L=            0  read in
    real space projection operators read in
  non local Contribution for L=            0  read in
    real space projection operators read in
  non local Contribution for L=            1  read in
    real space projection operators read in
  non local Contribution for L=            1  read in
    real space projection operators read in
    PAW grid and wavefunctions read in
 
   number of l-projection  operators is LMAX  =            4
   number of lm-projection operators is LMMAX =            8
 
 POTCAR:    PAW_PBE N 08Apr2002                   
   SHA256 =  e053789ff3a61a86a1b75d8a110fcc91f86041011e7b0817c7c99e4e8a6349d7 N/POTCAR              
   COPYR  = (c) Copyright 08Apr2002 Georg Kresse                                                    
   COPYR  = This file is part of the software VASP. Any use, copying, and all other rights are regul
   COPYR  = If you do not have a valid VASP license, you may not use, copy or distribute this file. 
   VRHFIN =N: s2p3                                                                                  
   LEXCH  = PE                                                                                      
   EATOM  =   264.5486 eV,   19.4438 Ry                                                             
                                                                                                    
   TITEL  = PAW_PBE N 08Apr2002                                                                     
   LULTRA =        F    use ultrasoft PP ?                                                          
   IUNSCR =        1    unscreen: 0-lin 1-nonlin 2-no                                               
   RPACOR =    1.200    partial core radius                                                         
   POMASS =   14.001; ZVAL   =    5.000    mass and valenz                                          
   RCORE  =    1.500    outmost cutoff radius                                                       
   RWIGS  =    1.400; RWIGS  =    0.741    wigner-seitz radius (au A)                               
   ENMAX  =  400.000; ENMIN  =  300.000 eV                                                          
   ICORE  =        2    local potential                                                             
   LCOR   =        T    correct aug charges                                                         
   LPAW   =        T    paw PP                                                                      
   EAUG   =  627.112                                                                                
   DEXC   =    0.000                                                                                
   RMAX   =    1.529    core radius for proj-oper                                                   
   RAUG   =    1.300    factor for augmentation sphere                                              
   RDEP   =    1.514    radius for radial grids                                                     
   RDEPT  =    1.338    core radius for aug-charge                                                  
                                                                                                    
   Atomic configuration                                                                             
    4 entries                                                                                       
     n  l   j            E        occ.                                                              
     1  0  0.50      -384.7179   2.0000                                                             
     2  0  0.50       -18.5828   2.0000                                                             
     2  1  0.50        -7.0898   3.0000                                                             
     3  2  1.50        -6.8029   0.0000                                                             
   Description                                                                                      
     l       E           TYP  RCUT    TYP  RCUT                                                     
     0    -18.5828119     23  1.200                                                                 
     0    -13.5018863     23  1.200                                                                 
     1     -7.0897853     23  1.500                                                                 
     1      9.5240782     23  1.500                                                                 
     2     -6.8029130      7  1.500                                                                 
  local pseudopotential read in
  partial core-charges read in
  partial kinetic energy density read in
  atomic valenz-charges read in
  non local Contribution for L=            0  read in
    real space projection operators read in
  non local Contribution for L=            0  read in
    real space projection operators read in
  non local Contribution for L=            1  read in
    real space projection operators read in
  non local Contribution for L=            1  read in
    real space projection operators read in
    PAW grid and wavefunctions read in
 
   number of l-projection  operators is LMAX  =            4
   number of lm-projection operators is LMMAX =            8
 
 POTCAR:    PAW_PBE I 08Apr2002                   
   SHA256 =  e40f3f59b681c1fc3e3091736183c4589116986673d2b852a5012aec72758799 I/POTCAR              
   COPYR  = (c) Copyright 08Apr2002 Georg Kresse                                                    
   COPYR  = This file is part of the software VASP. Any use, copying, and all other rights are regul
   COPYR  = If you do not have a valid VASP license, you may not use, copy or distribute this file. 
   VRHFIN =I : s2p5                                                                                 
   LEXCH  = PE                                                                                      
   EATOM  =   315.8678 eV,   23.2156 Ry                                                             
                                                                                                    
   TITEL  = PAW_PBE I 08Apr2002                                                                     
   LULTRA =        F    use ultrasoft PP ?                                                          
   IUNSCR =        1    unscreen: 0-lin 1-nonlin 2-no                                               
   RPACOR =    2.200    partial core radius                                                         
   POMASS =  126.904; ZVAL   =    7.000    mass and valenz                                          
   RCORE  =    2.300    outmost cutoff radius                                                       
   RWIGS  =    2.810; RWIGS  =    1.487    wigner-seitz radius (au A)                               
   ENMAX  =  175.647; ENMIN  =  131.735 eV                                                          
   ICORE  =        3    local potential                                                             
   LCOR   =        T    correct aug charges                                                         
   LPAW   =        T    paw PP                                                                      
   EAUG   =  370.139                                                                                
   DEXC   =    0.000                                                                                
   RMAX   =    2.359    core radius for proj-oper                                                   
   RAUG   =    1.300    factor for augmentation sphere                                              
   RDEP   =    2.392    radius for radial grids                                                     
   RDEPT  =    2.170    core radius for aug-charge                                                  
                                                                                                    
   Atomic configuration                                                                             
   13 entries                                                                                       
     n  l   j            E        occ.                                                              
     1  0  0.50    -32976.3739   2.0000                                                             
     2  0  0.50     -5094.5933   2.0000                                                             
     2  1  1.50     -4572.0131   6.0000                                                             
     3  0  0.50     -1028.2813   2.0000                                                             
     3  1  1.50      -859.0250   6.0000                                                             
     3  2  2.50      -605.7620  10.0000                                                             
     4  0  0.50      -180.5540   2.0000                                                             
     4  1  1.50      -127.5306   6.0000                                                             
     4  2  2.50       -50.2720  10.0000                                                             
     5  0  0.50       -17.4058   2.0000                                                             
     5  1  0.50        -7.0851   5.0000                                                             
     5  2  1.50        -7.0750   0.0000                                                             
     4  3  2.50        -7.0750   0.0000                                                             
   Description                                                                                      
     l       E           TYP  RCUT    TYP  RCUT                                                     
     0    -17.4058016     23  2.300                                                                 
     0    -18.7663842     23  2.300                                                                 
     1     -7.0850686     23  2.300                                                                 
     1     -4.2150896     23  2.300                                                                 
     2     -7.0750295     23  2.300                                                                 
     3     -1.3605826     23  2.300                                                                 
  local pseudopotential read in
  partial core-charges read in
  partial kinetic energy density read in
  atomic valenz-charges read in
  non local Contribution for L=            0  read in
    real space projection operators read in
  non local Contribution for L=            0  read in
    real space projection operators read in
  non local Contribution for L=            1  read in
    real space projection operators read in
  non local Contribution for L=            1  read in
    real space projection operators read in
  non local Contribution for L=            2  read in
    real space projection operators read in
    PAW grid and wavefunctions read in
 
   number of l-projection  operators is LMAX  =            5
   number of lm-projection operators is LMMAX =           13
 
 POTCAR:    PAW_PBE Pb 08Apr2002                  
   SHA256 =  797118a27cf1bcd06b9881c67a26cdde129e3cd1a551dd4a281f9681ce847303 Pb/POTCAR             
   COPYR  = (c) Copyright 08Apr2002 Georg Kresse                                                    
   COPYR  = This file is part of the software VASP. Any use, copying, and all other rights are regul
   COPYR  = If you do not have a valid VASP license, you may not use, copy or distribute this file. 
   VRHFIN =Pb:                                                                                      
   LEXCH  = PE                                                                                      
   EATOM  =    96.9868 eV,    7.1283 Ry                                                             
                                                                                                    
   TITEL  = PAW_PBE Pb 08Apr2002                                                                    
   LULTRA =        F    use ultrasoft PP ?                                                          
   IUNSCR =        1    unscreen: 0-lin 1-nonlin 2-no                                               
   RPACOR =    2.200    partial core radius                                                         
   POMASS =  207.200; ZVAL   =    4.000    mass and valenz                                          
   RCORE  =    3.100    outmost cutoff radius                                                       
   RWIGS  =    3.260; RWIGS  =    1.725    wigner-seitz radius (au A)                               
   ENMAX  =   97.973; ENMIN  =   73.480 eV                                                          
   ICORE  =        3    local potential                                                             
   LCOR   =        T    correct aug charges                                                         
   LPAW   =        T    paw PP                                                                      
   EAUG   =  234.873                                                                                
   DEXC   =    0.000                                                                                
   RMAX   =    3.158    core radius for proj-oper                                                   
   RAUG   =    1.300    factor for augmentation sphere                                              
   RDEP   =    3.202    radius for radial grids                                                     
   RDEPT  =    2.659    core radius for aug-charge                                                  
                                                                                                    
   Atomic configuration                                                                             
   17 entries                                                                                       
     n  l   j            E        occ.                                                              
     1  0  0.50    -88091.8466   2.0000                                                             
     2  0  0.50    -15753.4197   2.0000                                                             
     2  1  1.50    -13508.1797   6.0000                                                             
     3  0  0.50     -3781.7194   2.0000                                                             
     3  1  1.50     -3138.2529   6.0000                                                             
     3  2  2.50     -2483.2977  10.0000                                                             
     4  0  0.50      -856.2895   2.0000                                                             
     4  1  1.50      -645.4943   6.0000                                                             
     4  2  2.50      -401.8768  10.0000                                                             
     4  3  3.50      -132.9059  14.0000                                                             
     5  0  0.50      -144.0950   2.0000                                                             
     5  1  1.50       -85.7879   6.0000                                                             
     5  2  2.50       -21.1769  10.0000                                                             
     6  0  0.50       -12.0372   2.0000                                                             
     6  1  1.50        -3.4971   2.0000                                                             
     6  2  2.50        -1.3606   0.0000                                                             
     5  3  2.50        -2.7212   0.0000                                                             
   Description                                                                                      
     l       E           TYP  RCUT    TYP  RCUT                                                     
     0    -12.0371566     23  3.100                                                                 
     0    -13.3977392     23  3.100                                                                 
     1     -3.4971341     23  3.100                                                                 
     1     -5.4423304     23  3.100                                                                 
     2     -1.3605826     23  3.100                                                                 
     3     -1.3605826     23  3.100                                                                 
  local pseudopotential read in
  partial core-charges read in
  partial kinetic energy density read in
  atomic valenz-charges read in
  non local Contribution for L=            0  read in
    real space projection operators read in
  non local Contribution for L=            0  read in
    real space projection operators read in
  non local Contribution for L=            1  read in
    real space projection operators read in
  non local Contribution for L=            1  read in
    real space projection operators read in
  non local Contribution for L=            2  read in
    real space projection operators read in
    PAW grid and wavefunctions read in
 
   number of l-projection  operators is LMAX  =            5
   number of lm-projection operators is LMMAX =           13
 
 Optimization of the real space projectors (new method)

 maximal supplied QI-value         = 34.20
 optimisation between [QCUT,QGAM] = [ 11.29, 22.57] = [ 35.68,142.71] Ry 
 Optimized for a Real-space Cutoff    1.16 Angstroem

   l    n(q)    QCUT    max X(q) W(low)/X(q) W(high)/X(q)  e(spline) 
   0      8    11.287    19.460    0.40E-03    0.73E-03    0.16E-06
   0      8    11.287    12.209    0.38E-03    0.70E-03    0.15E-06
   1      7    11.287     4.655    0.22E-03    0.25E-04    0.22E-06
 Optimization of the real space projectors (new method)

 maximal supplied QI-value         = 25.13
 optimisation between [QCUT,QGAM] = [ 11.31, 22.87] = [ 35.82,146.48] Ry 
 Optimized for a Real-space Cutoff    1.00 Angstroem

   l    n(q)    QCUT    max X(q) W(low)/X(q) W(high)/X(q)  e(spline) 
   0      7    11.310   115.676    0.43E-03    0.13E-02    0.19E-06
   0      7    11.310    87.132    0.43E-03    0.13E-02    0.18E-06
   1      6    11.310     4.429    0.42E-03    0.74E-03    0.11E-06
   1      6    11.310     2.733    0.34E-03    0.55E-03    0.92E-07
 Optimization of the real space projectors (new method)

 maximal supplied QI-value         = 25.13
 optimisation between [QCUT,QGAM] = [ 11.31, 22.87] = [ 35.82,146.48] Ry 
 Optimized for a Real-space Cutoff    1.27 Angstroem

   l    n(q)    QCUT    max X(q) W(low)/X(q) W(high)/X(q)  e(spline) 
   0      9    11.310    79.467    0.75E-04    0.16E-03    0.36E-06
   0      9    11.310    66.151    0.74E-04    0.16E-03    0.36E-06
   1      8    11.310    17.416    0.35E-03    0.12E-03    0.95E-06
   1      8    11.310    12.382    0.37E-03    0.13E-03    0.98E-06
 Optimization of the real space projectors (new method)

 maximal supplied QI-value         = 16.25
 optimisation between [QCUT,QGAM] = [ 11.38, 22.75] = [ 36.24,144.96] Ry 
 Optimized for a Real-space Cutoff    1.31 Angstroem

   l    n(q)    QCUT    max X(q) W(low)/X(q) W(high)/X(q)  e(spline) 
   0      9    11.376   194.483    0.24E-03    0.23E-03    0.67E-07
   0      9    11.376   190.334    0.23E-03    0.22E-03    0.65E-07
   1      8    11.376   116.687    0.25E-03    0.63E-04    0.16E-06
   1      8    11.376    88.696    0.25E-03    0.61E-04    0.16E-06
   2      8    11.376     4.877    0.17E-03    0.14E-03    0.29E-07
 Optimization of the real space projectors (new method)

 maximal supplied QI-value         = 12.09
 optimisation between [QCUT,QGAM] = [ 11.37, 22.86] = [ 36.19,146.31] Ry 
 Optimized for a Real-space Cutoff    1.66 Angstroem

   l    n(q)    QCUT    max X(q) W(low)/X(q) W(high)/X(q)  e(spline) 
   0     11    11.369   135.111    0.12E-03    0.69E-04    0.19E-05
   0     11    11.369   146.850    0.11E-03    0.65E-04    0.18E-05
   1     11    11.369   148.016    0.17E-03    0.32E-03    0.89E-06
   1     11    11.369   122.989    0.17E-03    0.32E-03    0.91E-06
   2     10    11.369     8.916    0.12E-03    0.45E-04    0.33E-06
  PAW_PBE H 15Jun2001                   :
 energy of atom  1       EATOM=  -12.4884
 kinetic energy error for atom=    0.0020 (will be added to EATOM!!)
  PAW_PBE C 08Apr2002                   :
 energy of atom  2       EATOM= -147.1560
 kinetic energy error for atom=    0.0076 (will be added to EATOM!!)
  PAW_PBE N 08Apr2002                   :
 energy of atom  3       EATOM= -264.5486
 kinetic energy error for atom=    0.0138 (will be added to EATOM!!)
  PAW_PBE I 08Apr2002                   :
 energy of atom  4       EATOM= -315.8678
 kinetic energy error for atom=    0.0009 (will be added to EATOM!!)
  PAW_PBE Pb 08Apr2002                  :
 energy of atom  5       EATOM=  -96.9868
 kinetic energy error for atom=    0.0000 (will be added to EATOM!!)
 
 
 POSCAR:  H  C  N  I Pb
  positions in cartesian coordinates
  No initial velocities read in
 exchange correlation table for  LEXCH =        8
   RHO(1)=    0.500       N(1)  =     2000
   RHO(2)=  100.500       N(2)  =     4000
 


--------------------------------------------------------------------------------------------------------


 ion  position               nearest neighbor table
   1  0.408  0.282  0.563- 187 1.03
   2  0.415  0.697  0.572- 188 1.03
   3  0.927  0.292  0.580- 189 1.03
   4  0.930  0.816  0.573- 190 1.03
   5  0.324  0.092  0.564- 194 1.03
   6  0.322  0.575  0.569- 195 1.03
   7  0.802  0.102  0.566- 196 1.03
   8  0.110  0.241  0.562- 183 1.02
   9  0.078  0.681  0.570- 184 1.02
  10  0.587  0.188  0.565- 185 1.02
  11  0.600  0.757  0.559- 186 1.03
  12  0.378  0.018  0.554- 194 1.03
  13  0.254  0.623  0.555- 195 1.03
  14  0.876  0.046  0.557- 196 1.03
  15  0.064  0.288  0.582- 183 1.03
  16  0.993  0.695  0.582- 184 1.03
  17  0.493  0.173  0.571- 185 1.03
  18  0.551  0.692  0.574- 186 1.03
  19  0.308  0.438  0.572- 191 1.03
  20  0.189  0.068  0.569- 192 1.03
  21  0.682  0.034  0.573- 193 1.03
  22  0.454  0.364  0.556- 187 1.03
  23  0.375  0.763  0.555- 188 1.03
  24  0.885  0.243  0.560- 189 1.02
  25  0.977  0.873  0.555- 190 1.03
  26  0.235  0.398  0.559- 191 1.02
  27  0.155  0.985  0.560- 192 1.02
  28  0.680  0.941  0.565- 193 1.03
  29  0.570  0.308  0.555- 146 1.09
  30  0.492  0.810  0.545- 147 1.09
  31  0.000  0.203  0.545- 144 1.10
  32  0.072  0.790  0.550- 145 1.09
  33  0.190  0.513  0.546- 148 1.09
  34  0.272  0.942  0.550- 149 1.09
  35  0.801  0.941  0.554- 150 1.09
  36  0.454  0.295  0.673- 205 1.01
  37  0.442  0.813  0.671- 206 1.02
  38  0.959  0.283  0.677- 207 1.02
  39  0.914  0.739  0.666- 208 1.02
  40  0.298  0.042  0.675- 209 1.02
  41  0.302  0.560  0.673- 210 1.02
  42  0.798  0.053  0.675- 211 1.02
  43  0.832  0.485  0.668- 212 1.02
  44  0.091  0.171  0.647- 197 1.02
  45  0.107  0.700  0.654- 198 1.02
  46  0.578  0.164  0.647- 199 1.02
  47  0.575  0.675  0.652- 200 1.03
  48  0.186  0.412  0.651- 201 1.03
  49  0.163  0.930  0.646- 202 1.03
  50  0.637  0.473  0.653- 203 1.02
  51  0.674  0.918  0.650- 204 1.03
  52  0.064  0.189  0.673- 197 1.01
  53  0.027  0.657  0.663- 198 1.02
  54  0.545  0.187  0.672- 199 1.02
  55  0.543  0.714  0.675- 200 1.01
  56  0.216  0.447  0.676- 201 1.01
  57  0.186  0.954  0.672- 202 1.02
  58  0.700  0.435  0.671- 203 1.02
  59  0.698  0.950  0.675- 204 1.02
  60  0.438  0.338  0.648- 205 1.02
  61  0.416  0.829  0.644- 206 1.02
  62  0.926  0.320  0.653- 207 1.03
  63  0.926  0.830  0.658- 208 1.02
  64  0.341  0.062  0.651- 209 1.02
  65  0.320  0.590  0.647- 210 1.02
  66  0.828  0.079  0.650- 211 1.03
  67  0.845  0.554  0.648- 212 1.02
  68  0.006  0.252  0.632- 151 1.09
  69  0.049  0.813  0.648- 152 1.10
  70  0.513  0.257  0.630- 153 1.10
  71  0.498  0.744  0.630- 154 1.10
  72  0.259  0.994  0.631- 156 1.09
  73  0.249  0.499  0.632- 155 1.09
  74  0.753  0.995  0.632- 158 1.09
  75  0.723  0.551  0.637- 157 1.10
  76  0.449  0.301  0.769- 221 1.02
  77  0.449  0.801  0.769- 222 1.02
  78  0.949  0.301  0.769- 223 1.02
  79  0.949  0.801  0.769- 224 1.02
  80  0.301  0.051  0.769- 225 1.02
  81  0.301  0.551  0.769- 226 1.02
  82  0.801  0.051  0.769- 227 1.02
  83  0.801  0.551  0.769- 228 1.02
  84  0.079  0.171  0.743- 213 1.02
  85  0.079  0.671  0.743- 214 1.02
  86  0.579  0.171  0.743- 215 1.02
  87  0.579  0.671  0.743- 216 1.02
  88  0.171  0.421  0.743- 217 1.02
  89  0.171  0.921  0.743- 218 1.02
  90  0.671  0.421  0.743- 219 1.02
  91  0.671  0.921  0.743- 220 1.02
  92  0.051  0.199  0.769- 213 1.02
  93  0.051  0.699  0.769- 214 1.02
  94  0.551  0.199  0.769- 215 1.02
  95  0.551  0.699  0.769- 216 1.02
  96  0.199  0.449  0.769- 217 1.02
  97  0.199  0.949  0.769- 218 1.02
  98  0.699  0.449  0.769- 219 1.02
  99  0.699  0.949  0.769- 220 1.02
 100  0.421  0.329  0.743- 221 1.02
 101  0.421  0.829  0.743- 222 1.02
 102  0.921  0.329  0.743- 223 1.02
 103  0.921  0.829  0.743- 224 1.02
 104  0.329  0.079  0.743- 225 1.02
 105  0.329  0.579  0.743- 226 1.02
 106  0.829  0.079  0.743- 227 1.02
 107  0.829  0.579  0.743- 228 1.02
 108  0.000  0.250  0.726- 161 1.09
 109  0.000  0.750  0.726- 162 1.09
 110  0.500  0.250  0.726- 159 1.09
 111  0.500  0.750  0.726- 160 1.09
 112  0.250  0.000  0.726- 163 1.09
 113  0.250  0.500  0.726- 164 1.09
 114  0.750  0.000  0.726- 165 1.09
 115  0.750  0.500  0.726- 166 1.09
 116  0.800  0.508  0.514- 173 1.10
 117  0.878  0.501  0.531- 173 1.10
 118  0.760  0.620  0.532- 174 1.09
 119  0.758  0.623  0.560- 174 1.09
 120  0.687  0.445  0.550- 175 1.10
 121  0.669  0.537  0.558- 175 1.10
 122  0.796  0.424  0.566- 176 1.10
 123  0.865  0.495  0.569- 176 1.10
 124  0.857  0.374  0.539- 177 1.10
 125  0.763  0.377  0.532- 177 1.10
 126  0.784  0.383  0.495- 178 1.10
 127  0.877  0.409  0.498- 178 1.10
 128  0.897  0.618  0.531- 179 1.10
 129  0.901  0.605  0.560- 179 1.09
 130  0.865  0.689  0.549- 179 1.10
 131  0.600  0.511  0.526- 180 1.10
 132  0.680  0.484  0.511- 180 1.10
 133  0.667  0.578  0.519- 180 1.10
 134  0.707  0.504  0.587- 181 1.09
 135  0.777  0.572  0.591- 181 1.09
 136  0.787  0.482  0.601- 181 1.10
 137  0.821  0.257  0.512- 182 1.10
 138  0.847  0.274  0.486- 182 1.10
 139  0.925  0.160  0.499- 168 1.09
 140  0.973  0.384  0.518- 169 1.09
 141  0.056  0.126  0.504- 170 1.09
 142  0.103  0.351  0.522- 171 1.09
 143  0.147  0.223  0.516- 172 1.09
 144  0.998  0.238  0.560-  31 1.10 183 1.31 189 1.31
 145  0.026  0.775  0.561-  32 1.09 184 1.31 190 1.32
 146  0.522  0.275  0.559-  29 1.09 185 1.32 187 1.32
 147  0.488  0.763  0.556-  30 1.09 186 1.31 188 1.32
 148  0.241  0.510  0.556-  33 1.09 195 1.31 191 1.32
 149  0.267  0.998  0.556-  34 1.09 194 1.31 192 1.31
 150  0.778  0.993  0.560-  35 1.09 196 1.31 193 1.31
 151  0.009  0.245  0.650-  68 1.09 197 1.31 207 1.31
 152  0.018  0.767  0.655-  69 1.10 198 1.30 208 1.32
 153  0.508  0.251  0.647-  70 1.10 199 1.31 205 1.32
 154  0.496  0.752  0.648-  71 1.10 206 1.32 200 1.32
 155  0.253  0.500  0.649-  73 1.09 201 1.31 210 1.32
 156  0.252  0.996  0.648-  72 1.09 202 1.31 209 1.31
 157  0.740  0.514  0.650-  75 1.10 203 1.31 212 1.31
 158  0.751  0.998  0.650-  74 1.09 204 1.30 211 1.32
 159  0.500  0.250  0.743- 110 1.09 221 1.31 215 1.31
 160  0.500  0.750  0.743- 111 1.09 222 1.31 216 1.31
 161  1.000  0.250  0.743- 108 1.09 223 1.31 213 1.31
 162  1.000  0.750  0.743- 109 1.09 224 1.31 214 1.31
 163  0.250  0.000  0.743- 112 1.09 225 1.31 218 1.31
 164  0.250  0.500  0.743- 113 1.09 226 1.31 217 1.31
 165  0.750  0.000  0.743- 114 1.09 227 1.31 220 1.31
 166  0.750  0.500  0.743- 115 1.09 228 1.31 219 1.31
 167  0.938  0.274  0.507- 168 1.40 169 1.41 182 1.52
 168  0.964  0.202  0.504- 139 1.09 167 1.40 170 1.40
 169  0.990  0.328  0.514- 140 1.09 171 1.40 167 1.41
 170  0.038  0.183  0.506- 141 1.09 172 1.39 168 1.40
 171  0.064  0.309  0.517- 142 1.09 169 1.40 172 1.40
 172  0.089  0.237  0.513- 143 1.09 170 1.39 171 1.40
 173  0.821  0.483  0.529- 116 1.10 117 1.10 229 1.51 177 1.52
 174  0.789  0.601  0.546- 119 1.09 118 1.09 179 1.52 229 1.52
 175  0.695  0.503  0.545- 121 1.10 120 1.10 180 1.52 229 1.53
 176  0.805  0.484  0.568- 123 1.10 122 1.10 181 1.51 229 1.53
 177  0.817  0.398  0.528- 125 1.10 124 1.10 173 1.52 178 1.53
 178  0.834  0.374  0.505- 127 1.10 126 1.10 177 1.53 182 1.54
 179  0.868  0.629  0.546- 129 1.09 128 1.10 130 1.10 174 1.52
 180  0.660  0.520  0.524- 132 1.10 131 1.10 133 1.10 175 1.52
 181  0.766  0.513  0.588- 134 1.09 135 1.09 136 1.10 176 1.51
 182  0.857  0.292  0.503- 137 1.10 138 1.10 167 1.52 178 1.54
 183  0.061  0.256  0.569-   8 1.02  15 1.03 144 1.31
 184  0.031  0.711  0.570-   9 1.02  16 1.03 145 1.31
 185  0.533  0.205  0.564-  10 1.02  17 1.03 146 1.32
 186  0.550  0.733  0.563-  11 1.03  18 1.03 147 1.31
 187  0.456  0.308  0.559-  22 1.03   1 1.03 146 1.32
 188  0.422  0.738  0.561-  23 1.03   2 1.03 147 1.32
 189  0.933  0.259  0.567-  24 1.02   3 1.03 144 1.31
 190  0.970  0.821  0.562-   4 1.03  25 1.03 145 1.32
 191  0.264  0.445  0.562-  26 1.02  19 1.03 148 1.32
 192  0.200  0.019  0.562-  27 1.02  20 1.03 149 1.31
 193  0.708  0.991  0.566-  21 1.03  28 1.03 150 1.31
 194  0.326  0.040  0.558-   5 1.03  12 1.03 149 1.31
 195  0.276  0.572  0.560-   6 1.03  13 1.03 148 1.31
 196  0.821  0.051  0.561-   7 1.03  14 1.03 150 1.31
 197  0.057  0.199  0.657-  52 1.01  44 1.02 151 1.31
 198  0.052  0.704  0.657-  53 1.02  45 1.02 152 1.30
 199  0.546  0.197  0.656-  54 1.02  46 1.02 153 1.31
 200  0.540  0.711  0.659-  55 1.01  47 1.03 154 1.32
 201  0.216  0.450  0.660-  56 1.01  48 1.03 155 1.31
 202  0.197  0.958  0.656-  57 1.02  49 1.03 156 1.31
 203  0.690  0.471  0.658-  58 1.02  50 1.02 157 1.31
 204  0.705  0.953  0.659-  59 1.02  51 1.03 158 1.30
 205  0.464  0.297  0.657-  36 1.01  60 1.02 153 1.32
 206  0.448  0.801  0.655-  37 1.02  61 1.02 154 1.32
 207  0.962  0.285  0.661-  38 1.02  62 1.03 151 1.31
 208  0.948  0.779  0.660-  63 1.02  39 1.02 152 1.32
 209  0.299  0.036  0.659-  40 1.02  64 1.02 156 1.31
 210  0.294  0.553  0.657-  41 1.02  65 1.02 155 1.32
 211  0.794  0.047  0.659-  42 1.02  66 1.03 158 1.32
 212  0.810  0.518  0.656-  67 1.02  43 1.02 157 1.31
 213  0.046  0.204  0.753-  92 1.02  84 1.02 161 1.31
 214  0.046  0.704  0.753-  93 1.02  85 1.02 162 1.31
 215  0.546  0.204  0.753-  94 1.02  86 1.02 159 1.31
 216  0.546  0.704  0.753-  95 1.02  87 1.02 160 1.31
 217  0.204  0.454  0.753-  96 1.02  88 1.02 164 1.31
 218  0.204  0.954  0.753-  97 1.02  89 1.02 163 1.31
 219  0.704  0.454  0.753-  98 1.02  90 1.02 166 1.31
 220  0.704  0.954  0.753-  99 1.02  91 1.02 165 1.31
 221  0.454  0.296  0.753-  76 1.02 100 1.02 159 1.31
 222  0.454  0.796  0.753-  77 1.02 101 1.02 160 1.31
 223  0.954  0.296  0.753-  78 1.02 102 1.02 161 1.31
 224  0.954  0.796  0.753-  79 1.02 103 1.02 162 1.31
 225  0.296  0.046  0.753-  80 1.02 104 1.02 163 1.31
 226  0.296  0.546  0.753-  81 1.02 105 1.02 164 1.31
 227  0.796  0.046  0.753-  82 1.02 106 1.02 165 1.31
 228  0.796  0.546  0.753-  83 1.02 107 1.02 166 1.31
 229  0.778  0.518  0.547- 173 1.51 174 1.52 175 1.53 176 1.53
 230  0.510  0.980  0.553- 304 3.16
 231  0.472  0.509  0.553- 305 3.13
 232  0.008  0.013  0.551- 302 3.33
 233  0.032  0.490  0.554- 303 3.12
 234  0.257  0.241  0.555- 306 3.21
 235  0.230  0.767  0.551- 307 3.28
 236  0.735  0.228  0.555- 308 3.22
 237  0.729  0.796  0.554- 309 3.26
 238  0.996  0.984  0.654- 302 3.15 310 3.18
 239  0.008  0.504  0.655- 311 3.10 303 3.21
 240  0.497  0.001  0.654- 312 3.15 304 3.21
 241  0.495  0.501  0.654- 313 3.17 305 3.22
 242  0.263  0.241  0.655- 306 3.10 314 3.11
 243  0.246  0.754  0.654- 307 3.16 315 3.20
 244  0.744  0.262  0.655- 316 3.10 308 3.10
 245  0.749  0.735  0.655- 317 3.13 309 3.15
 246  0.136  0.118  0.609- 306 3.21 302 3.22
 247  0.147  0.608  0.606- 303 3.15 307 3.21
 248  0.640  0.112  0.609- 308 3.20 304 3.30
 249  0.618  0.631  0.608- 305 3.20 309 3.32
 250  0.368  0.385  0.608- 305 3.18 306 3.19
 251  0.365  0.886  0.606- 304 3.15 307 3.19
 252  0.887  0.365  0.612- 308 3.27 303 3.34
 253  0.863  0.891  0.606- 309 3.15 302 3.21
 254  0.126  0.369  0.611- 306 3.21 303 3.22
 255  0.116  0.873  0.606- 307 3.13 302 3.23
 256  0.616  0.368  0.602- 305 3.18 308 3.20
 257  0.615  0.863  0.612- 309 3.13 304 3.18
 258  0.396  0.140  0.604- 306 3.22 304 3.25
 259  0.379  0.633  0.608- 305 3.25 307 3.31
 260  0.882  0.133  0.612- 302 3.15 308 3.25
 261  0.902  0.648  0.610- 303 3.30 309 3.40
 262  0.000  0.000  0.755- 310 3.13 318 3.27
 263  0.000  0.500  0.755- 311 3.13 319 3.27
 264  0.500  0.000  0.755- 312 3.13 320 3.27
 265  0.500  0.500  0.755- 313 3.13 321 3.27
 266  0.250  0.250  0.755- 314 3.13 322 3.27
 267  0.250  0.750  0.755- 315 3.13 323 3.27
 268  0.750  0.250  0.755- 316 3.13 324 3.27
 269  0.750  0.750  0.755- 317 3.13 325 3.27
 270  0.136  0.114  0.705- 310 3.20 314 3.20
 271  0.136  0.614  0.705- 311 3.20 315 3.20
 272  0.636  0.114  0.705- 312 3.20 316 3.20
 273  0.636  0.614  0.705- 313 3.20 317 3.20
 274  0.364  0.386  0.705- 313 3.20 314 3.20
 275  0.364  0.886  0.705- 312 3.20 315 3.20
 276  0.864  0.386  0.705- 311 3.20 316 3.20
 277  0.864  0.886  0.705- 310 3.20 317 3.20
 278  0.114  0.364  0.705- 314 3.21 311 3.21
 279  0.114  0.864  0.705- 315 3.21 310 3.21
 280  0.614  0.364  0.705- 316 3.21 313 3.21
 281  0.614  0.864  0.705- 317 3.21 312 3.21
 282  0.386  0.136  0.705- 314 3.21 312 3.21
 283  0.386  0.636  0.705- 315 3.21 313 3.21
 284  0.886  0.136  0.705- 316 3.21 310 3.21
 285  0.886  0.636  0.705- 317 3.21 311 3.21
 286  0.135  0.115  0.801- 318 3.22 322 3.22
 287  0.135  0.615  0.801- 319 3.22 323 3.22
 288  0.635  0.115  0.801- 320 3.22 324 3.22
 289  0.635  0.615  0.801- 321 3.22 325 3.22
 290  0.365  0.385  0.801- 321 3.22 322 3.22
 291  0.365  0.885  0.801- 320 3.22 323 3.22
 292  0.865  0.385  0.801- 319 3.22 324 3.22
 293  0.865  0.885  0.801- 318 3.22 325 3.22
 294  0.115  0.365  0.801- 319 3.23 322 3.23
 295  0.115  0.865  0.801- 318 3.23 323 3.23
 296  0.615  0.365  0.801- 321 3.23 324 3.23
 297  0.615  0.865  0.801- 320 3.23 325 3.23
 298  0.385  0.135  0.801- 320 3.23 322 3.23
 299  0.385  0.635  0.801- 321 3.23 323 3.23
 300  0.885  0.135  0.801- 318 3.23 324 3.23
 301  0.885  0.635  0.801- 319 3.23 325 3.23
 302  0.998  0.007  0.604- 260 3.15 238 3.15 253 3.21 246 3.22 255 3.23 232 3.33
 303  0.010  0.502  0.604- 233 3.12 247 3.15 239 3.21 254 3.22 261 3.30 252 3.34
 304  0.502  0.994  0.603- 251 3.15 230 3.16 257 3.18 240 3.21 258 3.25 248 3.30
 305  0.499  0.500  0.603- 231 3.13 256 3.18 250 3.18 249 3.20 241 3.22 259 3.25
 306  0.255  0.249  0.606- 242 3.10 250 3.19 234 3.21 246 3.21 254 3.21 258 3.22
 307  0.245  0.757  0.603- 255 3.13 243 3.16 251 3.19 247 3.21 235 3.28 259 3.31
 308  0.748  0.251  0.606- 244 3.10 248 3.20 256 3.20 236 3.22 260 3.25 252 3.27
 309  0.750  0.758  0.605- 257 3.13 253 3.15 245 3.15 237 3.26 249 3.32 261 3.40
 310  0.000  0.000  0.705- 262 3.13 238 3.18 270 3.20 277 3.20 279 3.21 284 3.21
 311  0.000  0.500  0.705- 239 3.10 263 3.13 271 3.20 276 3.20 278 3.21 285 3.21
 312  0.500  0.000  0.705- 264 3.13 240 3.15 272 3.20 275 3.20 281 3.21 282 3.21
 313  0.500  0.500  0.705- 265 3.13 241 3.17 273 3.20 274 3.20 280 3.21 283 3.21
 314  0.250  0.250  0.705- 242 3.11 266 3.13 270 3.20 274 3.20 282 3.21 278 3.21
 315  0.250  0.750  0.705- 267 3.13 243 3.20 271 3.20 275 3.20 283 3.21 279 3.21
 316  0.750  0.250  0.705- 244 3.10 268 3.13 272 3.20 276 3.20 284 3.21 280 3.21
 317  0.750  0.750  0.705- 245 3.13 269 3.13 273 3.20 277 3.20 285 3.21 281 3.21
 318  0.000  0.000  0.807- 286 3.22 293 3.22 300 3.23 295 3.23 262 3.27
 319  0.000  0.500  0.807- 287 3.22 292 3.22 301 3.23 294 3.23 263 3.27
 320  0.500  0.000  0.807- 288 3.22 291 3.22 298 3.23 297 3.23 264 3.27
 321  0.500  0.500  0.807- 289 3.22 290 3.22 299 3.23 296 3.23 265 3.27
 322  0.250  0.250  0.807- 290 3.22 286 3.22 294 3.23 298 3.23 266 3.27
 323  0.250  0.750  0.807- 291 3.22 287 3.22 299 3.23 295 3.23 267 3.27
 324  0.750  0.250  0.807- 292 3.22 288 3.22 296 3.23 300 3.23 268 3.27
 325  0.750  0.750  0.807- 293 3.22 289 3.22 297 3.23 301 3.23 269 3.27
 

IMPORTANT INFORMATION: All symmetrisations will be switched off!
NOSYMM: (Re-)initialisation of all symmetry stuff for point group C_1.


----------------------------------------------------------------------------------------

                                     Primitive cell                                     

  volume of cell :   20385.2105

  direct lattice vectors                    reciprocal lattice vectors
    18.060800552  0.000000000  0.000000000     0.055368531  0.000015077 -0.000000000
    -0.004918649 18.062799454  0.000000000     0.000000000  0.055362404  0.000000000
     0.000000000  0.000000000 62.487499237     0.000000000 -0.000000000  0.016003201

  length of vectors
    18.060800552 18.062800123 62.487499237     0.055368533  0.055362404  0.016003201

  position of ions in fractional coordinates (direct lattice)
     0.407973156  0.282185770  0.563298030
     0.414762493  0.696877090  0.572042089
     0.926623258  0.292056380  0.580234279
     0.929565664  0.815878149  0.573120185
     0.323809213  0.092364262  0.563946048
     0.322223170  0.574729868  0.569074698
     0.801958045  0.101848300  0.566493555
     0.110419977  0.241392232  0.562082150
     0.078114354  0.680776747  0.569538903
     0.586961586  0.187516994  0.564906506
     0.599791761  0.757245086  0.558823258
     0.377911325  0.018375006  0.554381879
     0.254031456  0.622617385  0.554711474
     0.875522708  0.045925336  0.556906859
     0.063791676  0.288223794  0.582333759
     0.992621319  0.694831179  0.581817970
     0.492779064  0.172761079  0.570772975
     0.551345120  0.692214736  0.573981014
     0.308476812  0.438189122  0.572331514
     0.189150900  0.068456181  0.569269256
     0.681839825  0.033889129  0.573312851
     0.453828868  0.364409164  0.556083391
     0.374746655  0.763414920  0.555195824
     0.885140815  0.242891608  0.559542640
     0.976624356  0.873123794  0.555455825
     0.234868829  0.397868150  0.558643108
     0.154926098  0.985332076  0.559700509
     0.679715486  0.941213625  0.564778002
     0.570364133  0.307999860  0.554933015
     0.492189888  0.810487292  0.545010742
     0.000145981  0.203313552  0.545209207
     0.072230921  0.789517523  0.549890747
     0.189903256  0.512551703  0.546379180
     0.272471665  0.941762326  0.549825914
     0.801163305  0.941329965  0.553875613
     0.453840073  0.295036124  0.672844538
     0.441745206  0.813385516  0.670825274
     0.958993896  0.283327547  0.677292510
     0.913735145  0.738941864  0.666101979
     0.298065043  0.042490971  0.674784868
     0.301885043  0.560199782  0.673459163
     0.797806380  0.053233515  0.675164460
     0.831940038  0.485291352  0.667619921
     0.091080802  0.171150696  0.646869860
     0.107002100  0.699712379  0.653596670
     0.577805263  0.163559139  0.646738242
     0.575258268  0.674592341  0.651614340
     0.186251752  0.411512793  0.651259349
     0.162890182  0.929646164  0.645575046
     0.636904267  0.473423748  0.652691398
     0.673554071  0.918017496  0.650063920
     0.063799105  0.188724438  0.673058387
     0.026691556  0.656754479  0.662684486
     0.544984920  0.187471443  0.671988654
     0.543424956  0.713537299  0.675493078
     0.215605595  0.446541217  0.675890008
     0.185699732  0.954227038  0.671844643
     0.700293772  0.435455442  0.670540366
     0.698272399  0.950340570  0.675410359
     0.437690059  0.337801233  0.648322666
     0.416455386  0.829440136  0.644262344
     0.926322207  0.319984332  0.653216284
     0.926212774  0.830431888  0.658246159
     0.341483345  0.062285490  0.650826768
     0.319767241  0.589816495  0.647422095
     0.828049561  0.079030750  0.649677001
     0.844951016  0.554219386  0.648470828
     0.006172996  0.252450658  0.632309575
     0.049213992  0.813453837  0.648388780
     0.513381882  0.257040864  0.629524655
     0.498109823  0.744262394  0.630326329
     0.258765673  0.994160466  0.630516003
     0.248913870  0.498535603  0.631567789
     0.753151269  0.995273752  0.632215989
     0.723022564  0.551135420  0.636893805
     0.448745018  0.301283966  0.768889017
     0.448745007  0.801283913  0.768889017
     0.948744965  0.301283966  0.768889017
     0.948745007  0.801283913  0.768889017
     0.301275995  0.051294496  0.768872961
     0.301276011  0.551294499  0.768872961
     0.801275943  0.051294496  0.768872961
     0.801275984  0.551294499  0.768872961
     0.078771004  0.171180501  0.743441971
     0.078771006  0.671180448  0.743441971
     0.578771004  0.171180501  0.743441971
     0.578770992  0.671180448  0.743441971
     0.171199499  0.421174482  0.743421032
     0.171199501  0.921174508  0.743421032
     0.671199512  0.421174482  0.743421032
     0.671199501  0.921174508  0.743421032
     0.051256000  0.198714991  0.768889017
     0.051256002  0.698714925  0.768889017
     0.551256027  0.198714991  0.768889017
     0.551256016  0.698714925  0.768889017
     0.198723491  0.448703970  0.768872046
     0.198723493  0.948703970  0.768872046
     0.698723518  0.448703970  0.768872046
     0.698723507  0.948703970  0.768872046
     0.421231519  0.328817467  0.743441971
     0.421231508  0.828817440  0.743441971
     0.921231466  0.328817467  0.743441971
     0.921231508  0.828817440  0.743441971
     0.328800503  0.078824997  0.743421032
     0.328800492  0.578824964  0.743421032
     0.828800477  0.078824997  0.743421032
     0.828800519  0.578824964  0.743421032
     0.000003500  0.250001478  0.725821992
     0.000003500  0.750001452  0.725821992
     0.500003506  0.250001478  0.725821992
     0.500003495  0.750001452  0.725821992
     0.250000502  0.000000000  0.725803983
     0.250000517  0.500000000  0.725803983
     0.750000502  0.000000000  0.725803983
     0.750000490  0.500000000  0.725803983
     0.799604360  0.508361625  0.514195924
     0.878440346  0.500707753  0.530995671
     0.759865656  0.619768790  0.532003929
     0.758079364  0.622867646  0.560195054
     0.687018326  0.444952218  0.550117843
     0.669144913  0.537462927  0.557637718
     0.796369240  0.424197678  0.566465961
     0.865110210  0.494747473  0.568999488
     0.857224530  0.374347196  0.539124128
     0.762982382  0.376617972  0.532423996
     0.783939867  0.382706155  0.495153327
     0.876792340  0.408776921  0.497684534
     0.897362408  0.618267593  0.531322091
     0.900940173  0.605497888  0.559566144
     0.865359120  0.688808598  0.548764362
     0.600262533  0.510721629  0.525524972
     0.680356122  0.483801982  0.510784567
     0.666557273  0.577977033  0.518914214
     0.706516574  0.503931845  0.587383414
     0.777088359  0.572001283  0.590834422
     0.787300946  0.482081516  0.601499274
     0.821010732  0.257370823  0.512461996
     0.846649429  0.274001756  0.485948056
     0.924511914  0.159650855  0.498577230
     0.973333629  0.384485411  0.517544799
     0.055815784  0.126440493  0.503779198
     0.102750409  0.351284367  0.522481273
     0.147017201  0.222522993  0.515525597
     0.998009089  0.238075243  0.559606252
     0.026339805  0.774866583  0.560511767
     0.521577540  0.275340178  0.559099009
     0.488298418  0.762570367  0.555642996
     0.241288002  0.510242702  0.555647086
     0.266982089  0.997746853  0.556197794
     0.777617241  0.992667333  0.560058552
     0.008555659  0.245492159  0.649634268
     0.017748865  0.766580406  0.655044469
     0.507769242  0.250670372  0.646955693
     0.495916448  0.751940131  0.647759809
     0.253004402  0.500184000  0.649043147
     0.251588007  0.996098742  0.647836606
     0.740498305  0.514433836  0.649928761
     0.750882570  0.997810793  0.649709173
     0.499988984  0.249994984  0.743277021
     0.499989025  0.749994958  0.743277021
     0.999988984  0.249994984  0.743277021
     0.999989025  0.749994958  0.743277021
     0.250000502  0.000001000  0.743255960
     0.250000517  0.500001003  0.743255960
     0.750000502  0.000001000  0.743255960
     0.750000491  0.500001003  0.743255960
     0.938372828  0.274373901  0.507200598
     0.963571767  0.202357571  0.503738358
     0.990255941  0.327639048  0.513959671
     0.038185285  0.183339178  0.506372002
     0.064474828  0.308702123  0.516843121
     0.089243200  0.236664198  0.512773032
     0.820713447  0.482667253  0.528919694
     0.788875623  0.601403743  0.546442059
     0.694990583  0.503036765  0.545280083
     0.805115742  0.484364330  0.568220279
     0.817381746  0.398487441  0.527814615
     0.833840128  0.373640050  0.504816149
     0.868350500  0.628725340  0.546420021
     0.660123751  0.519650724  0.523720778
     0.765932012  0.513396836  0.587774850
     0.857463931  0.292101231  0.502531787
     0.060841792  0.256183139  0.568678501
     0.030744636  0.711122913  0.570430499
     0.533388782  0.205293862  0.564035910
     0.549912601  0.733277040  0.562588660
     0.456247340  0.308047616  0.558565699
     0.421821767  0.738056869  0.560754309
     0.933000749  0.259426027  0.566747451
     0.970021638  0.820952589  0.561696086
     0.263625857  0.444905544  0.562364189
     0.200083489  0.019104091  0.561561660
     0.707625122  0.990670775  0.565669537
     0.326046573  0.039509234  0.557771778
     0.276077114  0.572471605  0.559535376
     0.820762452  0.050884631  0.561405318
     0.057140068  0.198607798  0.657191505
     0.051974144  0.703514131  0.657281061
     0.545512271  0.197174209  0.655962988
     0.540443782  0.710657449  0.659386219
     0.216411711  0.449945402  0.659697377
     0.196647796  0.958303443  0.655885641
     0.690043433  0.470902658  0.658203060
     0.705417692  0.952556106  0.659304782
     0.463729487  0.297350485  0.656907574
     0.448299727  0.800943315  0.655018890
     0.962089217  0.284915807  0.661031018
     0.947909428  0.778747848  0.659942116
     0.299039988  0.036116295  0.658634909
     0.294042880  0.553251129  0.657469515
     0.794487687  0.046677027  0.659058272
     0.810008246  0.517875665  0.655863114
     0.045862501  0.204119496  0.752725994
     0.045862500  0.704119456  0.752725994
     0.545862507  0.204119496  0.752725994
     0.545862496  0.704119456  0.752725994
     0.204119002  0.454101003  0.752704994
     0.204118991  0.954100951  0.752704994
     0.704118976  0.454101003  0.752704994
     0.704118964  0.954100951  0.752704994
     0.454140018  0.295888490  0.752726971
     0.454140007  0.795888516  0.752726971
     0.954140018  0.295888490  0.752726971
     0.954140060  0.795888516  0.752726971
     0.295882492  0.045900498  0.752704994
     0.295882481  0.545900528  0.752704994
     0.795882439  0.045900498  0.752704994
     0.795882481  0.545900528  0.752704994
     0.778235670  0.517891822  0.547086170
     0.510473381  0.979672817  0.552839640
     0.472400501  0.508827301  0.553229671
     0.008260714  0.012713373  0.551101377
     0.032088030  0.490182320  0.554454831
     0.257071350  0.241022041  0.554667093
     0.230231109  0.766510449  0.550946500
     0.735087496  0.228339056  0.554754879
     0.729476347  0.795733924  0.554234206
     0.996068558  0.983598427  0.654201100
     0.008125759  0.504082318  0.655226207
     0.497370546  0.001371888  0.654466045
     0.494678367  0.501257219  0.654105744
     0.263323967  0.240502960  0.655356421
     0.245791694  0.754441105  0.653718825
     0.743834484  0.262178213  0.655323089
     0.749436435  0.735350987  0.654986352
     0.135981779  0.117646376  0.609051749
     0.147156010  0.608469607  0.606140462
     0.639553545  0.111693527  0.608857741
     0.618231832  0.630501613  0.607746801
     0.367705969  0.384773449  0.608255387
     0.364515128  0.885970795  0.605577666
     0.887400829  0.365124652  0.611847780
     0.862767223  0.891102732  0.605769599
     0.126369322  0.369433023  0.611080231
     0.115712396  0.872545131  0.605728148
     0.615781540  0.367989719  0.601670695
     0.615481658  0.863336578  0.612021765
     0.396411862  0.140026305  0.603785071
     0.379037257  0.633012566  0.607530327
     0.882089222  0.133453929  0.612425044
     0.902267888  0.647849882  0.610316040
     0.000000000  0.000000000  0.754927972
     0.000000000  0.500000000  0.754927972
     0.500000000  0.000000000  0.754927972
     0.499999989  0.500000000  0.754927972
     0.250000496  0.250000000  0.754939022
     0.250000511  0.749999974  0.754939022
     0.750000470  0.250000000  0.754939022
     0.750000458  0.749999974  0.754939022
     0.135790500  0.114209997  0.704782994
     0.135790502  0.614209984  0.704782994
     0.635790447  0.114209997  0.704782994
     0.635790488  0.614209984  0.704782994
     0.364209516  0.385789989  0.704782994
     0.364209505  0.885789963  0.704782994
     0.864209542  0.385789989  0.704782994
     0.864209531  0.885789963  0.704782994
     0.114217990  0.364218986  0.704780979
     0.114217992  0.864218986  0.704780979
     0.614218004  0.364218986  0.704780979
     0.614217992  0.864218986  0.704780979
     0.385782012  0.135781489  0.704782017
     0.385782001  0.635781489  0.704782017
     0.885781985  0.135781489  0.704782017
     0.885782027  0.635781489  0.704782017
     0.134667000  0.115332001  0.801256025
     0.134666989  0.615331988  0.801256025
     0.634666987  0.115332001  0.801256025
     0.634666976  0.615331988  0.801256025
     0.365333002  0.384667985  0.801256025
     0.365332990  0.884667959  0.801256025
     0.865332949  0.384667985  0.801256025
     0.865332938  0.884667959  0.801256025
     0.115328503  0.365337004  0.801264999
     0.115328505  0.865336978  0.801264999
     0.615328503  0.365337004  0.801264999
     0.615328492  0.865336978  0.801264999
     0.384671513  0.134662996  0.801264999
     0.384671501  0.634662970  0.801264999
     0.884671486  0.134662996  0.801264999
     0.884671528  0.634662970  0.801264999
     0.997792459  0.006507272  0.604196347
     0.009591974  0.501580710  0.603908875
     0.501593795  0.993888570  0.603134245
     0.499449063  0.500289331  0.602616258
     0.255434476  0.248715590  0.605907261
     0.244598123  0.756673814  0.603151094
     0.748080212  0.251149776  0.605761785
     0.750465535  0.757691649  0.604927084
     0.000000500  0.000000500  0.704828963
     0.000000500  0.500000475  0.704828963
     0.500000475  0.000000500  0.704828963
     0.500000464  0.500000475  0.704828963
     0.249999994  0.249999472  0.704824995
     0.250000010  0.749999498  0.704824995
     0.749999994  0.249999472  0.704824995
     0.749999983  0.749999498  0.704824995
     0.000000000  0.000000000  0.807317968
     0.000000000  0.500000000  0.807317968
     0.500000000  0.000000000  0.807317968
     0.499999989  0.500000000  0.807317968
     0.249999994  0.250000000  0.807317968
     0.250000010  0.749999974  0.807317968
     0.749999994  0.250000000  0.807317968
     0.749999983  0.749999974  0.807317968

  ion indices of the primitive-cell ions
   primitive index   ion index
                 1           1
                 2           2
                 3           3
                 4           4
                 5           5
                 6           6
                 7           7
                 8           8
                 9           9
                10          10
                11          11
                12          12
                13          13
                14          14
                15          15
                16          16
                17          17
                18          18
                19          19
                20          20
                21          21
                22          22
                23          23
                24          24
                25          25
                26          26
                27          27
                28          28
                29          29
                30          30
                31          31
                32          32
                33          33
                34          34
                35          35
                36          36
                37          37
                38          38
                39          39
                40          40
                41          41
                42          42
                43          43
                44          44
                45          45
                46          46
                47          47
                48          48
                49          49
                50          50
                51          51
                52          52
                53          53
                54          54
                55          55
                56          56
                57          57
                58          58
                59          59
                60          60
                61          61
                62          62
                63          63
                64          64
                65          65
                66          66
                67          67
                68          68
                69          69
                70          70
                71          71
                72          72
                73          73
                74          74
                75          75
                76          76
                77          77
                78          78
                79          79
                80          80
                81          81
                82          82
                83          83
                84          84
                85          85
                86          86
                87          87
                88          88
                89          89
                90          90
                91          91
                92          92
                93          93
                94          94
                95          95
                96          96
                97          97
                98          98
                99          99
               100         100
               101         101
               102         102
               103         103
               104         104
               105         105
               106         106
               107         107
               108         108
               109         109
               110         110
               111         111
               112         112
               113         113
               114         114
               115         115
               116         116
               117         117
               118         118
               119         119
               120         120
               121         121
               122         122
               123         123
               124         124
               125         125
               126         126
               127         127
               128         128
               129         129
               130         130
               131         131
               132         132
               133         133
               134         134
               135         135
               136         136
               137         137
               138         138
               139         139
               140         140
               141         141
               142         142
               143         143
               144         144
               145         145
               146         146
               147         147
               148         148
               149         149
               150         150
               151         151
               152         152
               153         153
               154         154
               155         155
               156         156
               157         157
               158         158
               159         159
               160         160
               161         161
               162         162
               163         163
               164         164
               165         165
               166         166
               167         167
               168         168
               169         169
               170         170
               171         171
               172         172
               173         173
               174         174
               175         175
               176         176
               177         177
               178         178
               179         179
               180         180
               181         181
               182         182
               183         183
               184         184
               185         185
               186         186
               187         187
               188         188
               189         189
               190         190
               191         191
               192         192
               193         193
               194         194
               195         195
               196         196
               197         197
               198         198
               199         199
               200         200
               201         201
               202         202
               203         203
               204         204
               205         205
               206         206
               207         207
               208         208
               209         209
               210         210
               211         211
               212         212
               213         213
               214         214
               215         215
               216         216
               217         217
               218         218
               219         219
               220         220
               221         221
               222         222
               223         223
               224         224
               225         225
               226         226
               227         227
               228         228
               229         229
               230         230
               231         231
               232         232
               233         233
               234         234
               235         235
               236         236
               237         237
               238         238
               239         239
               240         240
               241         241
               242         242
               243         243
               244         244
               245         245
               246         246
               247         247
               248         248
               249         249
               250         250
               251         251
               252         252
               253         253
               254         254
               255         255
               256         256
               257         257
               258         258
               259         259
               260         260
               261         261
               262         262
               263         263
               264         264
               265         265
               266         266
               267         267
               268         268
               269         269
               270         270
               271         271
               272         272
               273         273
               274         274
               275         275
               276         276
               277         277
               278         278
               279         279
               280         280
               281         281
               282         282
               283         283
               284         284
               285         285
               286         286
               287         287
               288         288
               289         289
               290         290
               291         291
               292         292
               293         293
               294         294
               295         295
               296         296
               297         297
               298         298
               299         299
               300         300
               301         301
               302         302
               303         303
               304         304
               305         305
               306         306
               307         307
               308         308
               309         309
               310         310
               311         311
               312         312
               313         313
               314         314
               315         315
               316         316
               317         317
               318         318
               319         319
               320         320
               321         321
               322         322
               323         323
               324         324
               325         325

----------------------------------------------------------------------------------------

 
 
 KPOINTS: Automatic Mesh                          

Automatic generation of k-mesh.
 Grid dimensions read from file:
 generate k-points for:    3    3    1

 Generating k-lattice:

  Cartesian coordinates                     Fractional coordinates (reciprocal lattice)
     0.018456177  0.000005026 -0.000000000     0.333333333  0.000000000  0.000000000
     0.000000000  0.018454135  0.000000000     0.000000000  0.333333333  0.000000000
     0.000000000 -0.000000000  0.016003201     0.000000000  0.000000000  1.000000000

  Length of vectors
     0.018456178  0.018454135  0.016003201

  Shift w.r.t. Gamma in fractional coordinates (k-lattice)
     0.000000000  0.000000000  0.000000000

 
 Subroutine IBZKPT returns following result:
 ===========================================
 
 Found      5 irreducible k-points:
 
 Following reciprocal coordinates:
            Coordinates               Weight
  0.000000  0.000000  0.000000      1.000000
  0.333333  0.000000  0.000000      2.000000
  0.000000  0.333333  0.000000      2.000000
  0.333333  0.333333  0.000000      2.000000
 -0.333333  0.333333  0.000000      2.000000
 
 Following cartesian coordinates:
            Coordinates               Weight
  0.000000  0.000000  0.000000      1.000000
  0.018456  0.000005  0.000000      2.000000
  0.000000  0.018454  0.000000      2.000000
  0.018456  0.018459  0.000000      2.000000
 -0.018456  0.018449  0.000000      2.000000
 


--------------------------------------------------------------------------------------------------------




 Dimension of arrays:
   k-points           NKPTS =      5   k-points in BZ     NKDIM =      5   number of bands    NBANDS=    732
   number of dos      NEDOS =    301   number of ions     NIONS =    325
   non local maximal  LDIM  =      5   non local SUM 2l+1 LMDIM =     13
   total plane-waves  NPLWV = ******
   max r-space proj   IRMAX =   3336   max aug-charges    IRDMAX=  19845
   dimension x,y,z NGX =   100 NGY =  100 NGZ =  350
   dimension x,y,z NGXF=   200 NGYF=  200 NGZF=  700
   support grid    NGXF=   200 NGYF=  200 NGZF=  700
   ions per type =             143  39  47  72  24
   NGX,Y,Z   is equivalent  to a cutoff of   9.20,  9.20,  9.31 a.u.
   NGXF,Y,Z  is equivalent  to a cutoff of  18.41, 18.41, 18.62 a.u.

 SYSTEM =  PSC                                     
 POSCAR =   H  C  N  I Pb                          

 Startparameter for this run:
   NWRITE =      2    write-flag & timer
   PREC   = normal    normal or accurate (medium, high low for compatibility)
   ISTART =      0    job   : 0-new  1-cont  2-samecut
   ICHARG =      1    charge: 1-file 2-atom 10-const
   ISPIN  =      1    spin polarized calculation?
   LNONCOLLINEAR =      F non collinear calculations
   LSORBIT =      F    spin-orbit coupling
   INIWAV =      1    electr: 0-lowe 1-rand  2-diag
   LASPH  =      F    aspherical Exc in radial PAW
 Electronic Relaxation 1
   ENCUT  =  500.0 eV  36.75 Ry    6.06 a.u.  32.93 32.93113.93*2*pi/ulx,y,z
   ENINI  =  500.0     initial cutoff
   ENAUG  =  644.9 eV  augmentation charge cutoff
   NELM   =    600;   NELMIN=  2; NELMDL=  0     # of ELM steps 
   EDIFF  = 0.1E-03   stopping-criterion for ELM
   LREAL  =      T    real-space projection
   NLSPLINE    = F    spline interpolate recip. space projectors
   LCOMPAT=      F    compatible to vasp.4.4
   GGA_COMPAT  = F    GGA compatible to vasp.4.4-vasp.4.6
   LMAXPAW     = -100 max onsite density
   LMAXMIX     =    2 max onsite mixed and CHGCAR
   VOSKOWN=      0    Vosko Wilk Nusair interpolation
   ROPT   =   -0.00050  -0.00050  -0.00050  -0.00050
   ROPT   =   -0.00050
 Ionic relaxation
   EDIFFG = 0.1E-02   stopping-criterion for IOM
   NSW    =      0    number of steps for IOM
   NBLOCK =      1;   KBLOCK =      1    inner block; outer block 
   IBRION =     -1    ionic relax: 0-MD 1-quasi-New 2-CG
   NFREE  =      0    steps in history (QN), initial steepest desc. (CG)
   ISIF   =      2    stress and relaxation
   IWAVPR =     10    prediction:  0-non 1-charg 2-wave 3-comb
   ISYM   =      0    0-nonsym 1-usesym 2-fastsym
   LCORR  =      T    Harris-Foulkes like correction to forces

   POTIM  = 0.5000    time-step for ionic-motion
   TEIN   =    0.0    initial temperature
   TEBEG  =    0.0;   TEEND  =   0.0 temperature during run
   SMASS  =  -3.00    Nose mass-parameter (am)
   estimated Nose-frequenzy (Omega)   =  0.10E-29 period in steps = 0.13E+47 mass=  -0.745E-26a.u.
   SCALEE = 1.0000    scale energy and forces
   NPACO  =    256;   APACO  = 16.0  distance and # of slots for P.C.
   PSTRESS=    0.0 pullay stress

  Mass of Ions in am
   POMASS =   1.00 12.01 14.00126.90207.20
  Ionic Valenz
   ZVAL   =   1.00  4.00  5.00  7.00  4.00
  Atomic Wigner-Seitz radii
   RWIGS  =  -1.00 -1.00 -1.00 -1.00 -1.00
  virtual crystal weights 
   VCA    =   1.00  1.00  1.00  1.00  1.00
   NELECT =    1134.0000    total number of electrons
   NUPDOWN=      -1.0000    fix difference up-down

 DOS related values:
   EMIN   =  10.00;   EMAX   =-10.00  energy-range for DOS
   EFERMI =   0.00
   ISMEAR =     0;   SIGMA  =   0.05  broadening in eV -4-tet -1-fermi 0-gaus

 Electronic relaxation 2 (details)
   IALGO  =     38    algorithm
   LDIAG  =      T    sub-space diagonalisation (order eigenvalues)
   LSUBROT=      F    optimize rotation matrix (better conditioning)
   TURBO    =      0    0=normal 1=particle mesh
   IRESTART =      0    0=no restart 2=restart with 2 vectors
   NREBOOT  =      0    no. of reboots
   NMIN     =      0    reboot dimension
   EREF     =   0.00    reference energy to select bands
   IMIX   =      4    mixing-type and parameters
     AMIX     =   0.40;   BMIX     =  0.01
     AMIX_MAG =   1.60;   BMIX_MAG =  0.01
     AMIN     =   0.01
     WC   =   100.;   INIMIX=   1;  MIXPRE=   1;  MAXMIX= -45

 Intra band minimization:
   WEIMIN = 0.0000     energy-eigenvalue tresh-hold
   EBREAK =  0.34E-07  absolut break condition
   DEPER  =   0.30     relativ break condition  

   TIME   =   0.40     timestep for ELM

  volume/ion in A,a.u.               =      62.72       423.28
  Fermi-wavevector in a.u.,A,eV,Ry     =   0.624944  1.180972  5.313816  0.390554
  Thomas-Fermi vector in A             =   1.685677
 
 Write flags
   LWAVE        =      F    write WAVECAR
   LDOWNSAMPLE  =      F    k-point downsampling of WAVECAR
   LCHARG       =      T    write CHGCAR
   LVTOT        =      T    write LOCPOT, total local potential
   LVHAR        =      F    write LOCPOT, Hartree potential only
   LELF         =      F    write electronic localiz. function (ELF)
   LORBIT       =      0    0 simple, 1 ext, 2 COOP (PROOUT), +10 PAW based schemes


 Dipole corrections
   LMONO  =      F    monopole corrections only (constant potential shift)
   LDIPOL =      T    correct potential (dipole corrections)
   IDIPOL =      3    1-x, 2-y, 3-z, 4-all directions 
   EPSILON=  1.0000000 bulk dielectric constant

 Exchange correlation treatment:
   GGA     =    --    GGA type
   LEXCH   =     8    internal setting for exchange type
   VOSKOWN=      0    Vosko Wilk Nusair interpolation
   LHFCALC =     F    Hartree Fock is set to
   LHFONE  =     F    Hartree Fock one center treatment
   AEXX    =    0.0000 exact exchange contribution

 Linear response parameters
   LEPSILON=     F    determine dielectric tensor
   LRPA    =     F    only Hartree local field effects (RPA)
   LNABLA  =     F    use nabla operator in PAW spheres
   LVEL    =     F    velocity operator in full k-point grid
   LINTERFAST=   F  fast interpolation
   KINTER  =     0    interpolate to denser k-point grid
   CSHIFT  =0.1000    complex shift for real part using Kramers Kronig
   OMEGAMAX=  -1.0    maximum frequency
   DEG_THRESHOLD= 0.2000000E-02 threshold for treating states as degnerate
   RTIME   =   -0.100 relaxation time in fs
  (WPLASMAI=    0.000 imaginary part of plasma frequency in eV, 0.658/RTIME)
   DFIELD  = 0.0000000 0.0000000 0.0000000 field for delta impulse in time
 
 Orbital magnetization related:
   ORBITALMAG=     F  switch on orbital magnetization
   LCHIMAG   =     F  perturbation theory with respect to B field
   DQ        =  0.001000  dq finite difference perturbation B field
   LLRAUG    =     F  two centre corrections for induced B field



--------------------------------------------------------------------------------------------------------


 Static calculation
 charge density and potential will be updated during run
 non-spin polarized calculation
 Variant of blocked Davidson
 Davidson routine will perform the subspace rotation
 perform sub-space diagonalisation
    after iterative eigenvector-optimisation
 modified Broyden-mixing scheme, WC =      100.0
 initial mixing is a Kerker type mixing with AMIX =  0.4000 and BMIX =      0.0100
 Hartree-type preconditioning will be used
 using additional bands           165
 real space projection scheme for non local part
[...]
     13.54561      0.00000     45.35368         0.005100     -0.007254      0.012821
     13.54315      9.03140     45.35368        -0.005571      0.009702     -0.003556
     14.43899      9.18243     32.13082        -0.023185     -0.048836      0.007152
     15.86287      9.04418     33.18059        -0.027825     -0.074823     -0.018607
     13.72073     11.19476     33.24360         0.009614      0.093464      0.008286
     13.68846     11.25073     35.00519         0.018529      0.059880      0.012529
     12.40591      8.03708     34.37549        -0.040372      0.107023     -0.096401
     12.08265      9.70809     34.84539        -0.015642     -0.007676      0.003411
     14.38098      7.66220     35.39704         0.058434      0.212781      0.077103
     15.62215      8.93652     35.55536        -0.060488     -0.069186     -0.093385
     15.48032      6.76176     33.68852         0.057408      0.012786     -0.052954
     13.77822      6.80277     33.26984        -0.038702      0.013802      0.032802
     14.15670      6.91274     30.94089        -0.105173      0.020880     -0.076329
     15.83356      7.38366     31.09906         0.133597      0.132586     -0.054286
     16.20404     11.16764     33.20099         0.003171     -0.021495     -0.003259
     16.26872     10.93699     34.96589         0.045356     -0.008518      0.018741
     15.62569     12.44181     34.29091         0.014346      0.079122     -0.021748
     10.83871      9.22506     32.83874         0.013521     -0.074541     -0.003867
     12.28540      8.73882     31.91765        -0.020833      0.003747      0.036451
     12.03572     10.43988     32.42565         0.040348     -0.131134      0.012449
     12.75778      9.10242     36.70412        -0.199026     -0.056583      0.004948
     14.03202     10.33194     36.91977         0.010861     -0.027551     -0.036914
     14.21691      8.70774     37.58619         0.034047      0.035736     -0.001273
     14.82685      4.64884     32.02247         0.022028     -0.062516      0.105451
     15.28982      4.94924     30.36568         0.001850      0.063521      0.032511
     16.69664      2.88374     31.15484        -0.009033      0.035604      0.024633
     17.57729      6.94488     32.34008         0.027662     -0.135110     -0.053543
      1.00746      2.28387     31.47990         0.008004     -0.082738     -0.044996
      1.85403      6.34518     32.64855         0.015501     -0.064451     -0.003110
      2.65415      4.01939     32.21391         0.092439     -0.042241     -0.067311
     18.02367      4.30031     34.96840        -0.065118     -0.050081     -0.186200
      0.47191     13.99626     35.02498        -0.064960     -0.039829     -0.171120
      9.41875      4.97341     34.93670        -0.256188     -0.182676      0.100820
      8.81531     13.77416     34.72074        -0.493183     -0.107127      0.032089
      4.35534      9.21641     34.72100         0.027672     -0.142546     -0.001019
      4.81700     18.02210     34.75541        -0.078608      0.130839      0.000659
     14.03951     17.93035     34.99666        -0.021462      0.099096      0.132804
      0.15331      4.43428     40.59402        -0.053200      0.019002     -0.196056
      0.31679     13.84659     40.93209        -0.160215      0.576263     -0.057038
      9.16949      4.52781     40.42664        -0.058357      0.130561     -0.377054
      8.95295     13.58214     40.47689        -0.133284      0.014554     -0.203608
      4.56700      9.03472     40.55708         0.430483      0.603117     -0.129163
      4.53898     17.99233     40.48169         0.173219      0.126506     -0.302756
     13.37146      9.29212     40.61242        -0.145931      0.128663     -0.160446
     13.55663     18.02326     40.59870         0.465726      0.533560     -0.226345
      9.02897      4.51561     46.44552         0.009693      0.004292      0.028287
      9.02651     13.54701     46.44552         0.027520     -0.011605      0.042881
     18.05937      4.51561     46.44552         0.017828     -0.000341      0.040327
     18.05691     13.54701     46.44552         0.016206     -0.000395     -0.004417
      4.51521      0.00002     46.44421        -0.000653     -0.002680      0.055100
      4.51275      9.03142     46.44421        -0.004454     -0.002852      0.032734
     13.54561      0.00002     46.44421        -0.009372     -0.010559      0.035867
     13.54315      9.03142     46.44421        -0.001094      0.006048      0.023655
     16.94641      4.95596     31.69370        -0.192152      0.456720      0.015342
     17.40188      3.65514     31.47735         0.162479     -0.470668     -0.105027
     17.88320      5.91808     32.11605        -0.242436     -0.050927      0.002416
      0.68876      3.31162     31.64192        -0.213570     -0.053400      0.006997
      1.16295      5.57602     32.29623         0.120819      0.059287     -0.076350
      1.61064      4.27482     32.04190        -0.013219      0.291230      0.173952
     14.82037      8.71832     33.05087         0.106946      0.162454      0.070731
     14.24477     10.86304     34.14580         0.081020     -0.106052     -0.029377
     12.54961      9.08625     34.07319         0.050178     -0.084372      0.021806
     14.53865      8.74898     35.50666         0.040277     -0.057226     -0.142909
     14.76061      7.19780     32.98182         0.014861      0.041097     -0.151583
     15.05798      6.74899     31.54470         0.155660     -0.383142     -0.009837
     15.68001     11.35654     34.14442        -0.166474     -0.043026      0.074439
     11.91981      9.38635     32.72600         0.076654      0.073989     -0.070430
     13.83082      9.27338     36.72858         0.115504     -0.011728      0.007453
     15.48505      5.27617     31.40195         0.049216      0.210753     -0.073076
      1.09759      4.62738     35.53530         0.003328      0.096604      0.248325
      0.55177     12.84487     35.64478        -0.061726      0.034771      0.075355
      9.63242      3.70818     35.24519        -0.241061      0.190291      0.027938
      9.92826     13.24504     35.15476         0.024686     -0.148101      0.177270
      8.23868      5.56420     34.90337         0.000941     -0.164837      0.150583
      7.61481     13.33137     35.04013         0.158764      0.057966     -0.052960
     16.84946      4.68596     35.41463        -0.028053      0.046066      0.026000
     17.51533     14.82870     35.09898         0.017410     -0.024826      0.077065
      4.75911      8.03624     35.14073        -0.025760     -0.043702     -0.040533
      3.61357      0.34507     35.09058        -0.467777      0.193725      0.247885
     12.77540     17.89429     35.34727        -0.240456     -0.120202      0.085243
      5.88847      0.71365     34.85376         0.130620      0.193941      0.007219
      4.98336     10.34044     34.96397        -0.075402      0.367902     -0.095990
     14.82338      0.91912     35.08081         0.062527      0.249084     -0.067321
      1.03102      3.58741     41.06625        -0.064256      0.063042     -0.050028
      0.93523     12.70743     41.07185         0.188169     -0.236642     -0.063048
      9.85142      3.56152     40.98949        -0.047481      0.073810     -0.001738
      9.75735     12.83646     41.20340         0.056175     -0.070798     -0.693255
      3.90636      8.12727     41.22284        -0.304756     -0.438093     -0.246007
      3.54690     17.30964     40.98465        -0.366043     -0.307889     -0.114071
     12.46042      8.50582     41.12946         0.235951     -0.005969     -0.058851
     12.73572     17.20583     41.19831        -0.258132     -0.315476     -0.168236
      8.37386      5.37098     41.04851         0.146034     -0.098818     -0.359395
      8.09271     14.46728     40.93049         0.134572     -0.145567     -0.132732
     17.37470      5.14638     41.30618        -0.281002      0.307548     -0.098719
     17.11617     14.06637     41.23813         0.012616     -0.070115     -0.028903
      5.40072      0.65236     41.15645         0.374436      0.286087     -0.125677
      5.30793      9.99326     41.08363        -0.256771     -0.297421     -0.461645
     14.34885      0.84312     41.18290        -0.193787     -0.230653     -0.368730
     14.62685      9.35428     40.98325         0.222279      0.068259     -0.031453
      0.82731      3.68697     47.03596         0.016609     -0.022426     -0.097001
      0.82485     12.71837     47.03596         0.023570     -0.020253     -0.057824
      9.85771      3.68697     47.03596         0.024200     -0.024581     -0.082638
      9.85525     12.71837     47.03596         0.006928     -0.010795     -0.081266
      3.68432      8.20234     47.03465        -0.009639     -0.015079     -0.067764
      3.68186     17.23373     47.03465        -0.009936     -0.006926     -0.067792
     12.71472      8.20234     47.03465        -0.011329     -0.018653     -0.056338
     12.71226     17.23373     47.03465        -0.011415     -0.005015     -0.075150
      8.20068      5.34457     47.03603        -0.020893      0.018352     -0.084147
      8.19822     14.37597     47.03603        -0.029883      0.027311     -0.085870
     17.23108      5.34457     47.03603        -0.029256      0.022274     -0.107911
     17.22862     14.37597     47.03603        -0.023116      0.028930     -0.063458
      5.34365      0.82909     47.03465         0.008637      0.011634     -0.073080
      5.34119      9.86049     47.03465         0.017277      0.014167     -0.060737
     14.37405      0.82909     47.03465         0.018206      0.021326     -0.068599
     14.37159      9.86049     47.03465         0.014835      0.010210     -0.064801
     14.05301      9.35458     34.18605        -0.180065     -0.115913      0.112436
      9.21474     17.69563     34.54557         0.029413      0.007844      0.008197
      8.52943      9.19085     34.56994        -0.028820     -0.026385     -0.000495
      0.14913      0.22964     34.43695        -0.024902      0.000807      0.031604
      0.57712      8.85406     34.64650        -0.043747     -0.025039     -0.028460
      4.64173      4.35353     34.65976         0.003698      0.000632     -0.030343
      4.15439     13.84532     34.42727         0.023540     -0.009030      0.003160
     13.27515      4.12444     34.66525         0.009535     -0.002269      0.003505
     13.17101     14.37318     34.63271         0.111489     -0.078771     -0.003840
     17.98496     17.76654     40.87939        -0.005530      0.023910     -0.002074
      0.14428      9.10514     40.94345         0.003892     -0.004647     -0.011594
      8.98290      0.02478     40.89595        -0.006228      0.011975      0.017901
      8.93182      9.05411     40.87343         0.027665      0.015756     -0.023612
      4.75466      4.34416     40.95158        -0.003046      0.012923     -0.005500
      4.43548     13.62732     40.84925        -0.002727      0.008666     -0.011802
     13.43296      4.73567     40.94950         0.011708      0.032898     -0.008938
     13.53181     13.28250     40.92846         0.006077     -0.000058     -0.096602
      2.45536      2.12502     38.05812         0.005729     -0.044632     -0.029905
      2.65476     10.99066     37.87620        -0.010158      0.008725      0.029952
     11.55030      2.01750     38.04600        -0.042856     -0.008610     -0.013999
     11.16266     11.38862     37.97658        -0.011825      0.060349     -0.013597
      6.63917      6.95009     38.00836         0.001205     -0.014117      0.024660
      6.57908     16.00311     37.84103        -0.010405     -0.016167     -0.005031
     16.02537      6.59517     38.23284         0.033499      0.110211      0.009932
     15.57788     16.09581     37.85303        -0.034945     -0.038948      0.023836
      2.28051      6.67299     38.18488         0.024850     -0.016418      0.057708
      2.08557     15.76061     37.85044         0.027093      0.007426      0.030447
     11.11970      6.64692     37.59690         0.001194     -0.004559      0.026128
     11.11185     15.59428     38.24371         0.029960      0.065865      0.051503
      7.15883      2.52927     37.72902         0.008661     -0.011467      0.012799
      6.84260     11.43398     37.96305        -0.001867      0.013236     -0.007986
     15.93058      2.41055     38.26891        -0.002898      0.047721     -0.000320
     16.29249     11.70198     38.13712         0.014513      0.010906     -0.022209
      0.00000      0.00000     47.17356         0.000861      0.006337      0.361470
     -0.00246      9.03140     47.17356        -0.002342     -0.007503      0.464941
      9.03040      0.00000     47.17356         0.000405     -0.000863      0.436830
      9.02794      9.03140     47.17356        -0.004166     -0.000500      0.406551
      4.51398      4.51570     47.17425        -0.001654     -0.005359      0.430694
      4.51152     13.54710     47.17425         0.003569      0.004168      0.348820
     13.54438      4.51570     47.17425         0.005517      0.001178      0.422835
     13.54192     13.54710     47.17425        -0.002102     -0.000089      0.429011
      2.45192      2.06295     44.04013         0.007518     -0.036783     -0.032552
      2.44946     11.09435     44.04013         0.065965     -0.021773      0.000522
     11.48232      2.06295     44.04013         0.006612      0.002206     -0.063436
     11.47986     11.09435     44.04013        -0.070321      0.014995      0.005789
      6.57602      6.96845     44.04013        -0.006859     -0.024372     -0.054606
      6.57356     15.99985     44.04013         0.024409     -0.015981     -0.064400
     15.60642      6.96845     44.04013        -0.016471      0.029050     -0.101243
     15.60396     15.99985     44.04013        -0.051268      0.052127     -0.019684
      2.06108      6.57881     44.04000         0.022091     -0.054553     -0.043725
      2.05862     15.61021     44.04000         0.052060      0.073165     -0.031026
     11.09148      6.57881     44.04000        -0.002215      0.002687     -0.025726
     11.08902     15.61021     44.04000        -0.031369     -0.009320     -0.035280
      6.96686      2.45259     44.04007         0.026138     -0.016394     -0.007847
      6.96440     11.48399     44.04007        -0.017929      0.018396     -0.046401
     15.99726      2.45259     44.04007         0.025690      0.025093     -0.047538
     15.99481     11.48399     44.04007         0.023155     -0.012043     -0.078288
      2.43163      2.08322     50.06849         0.004473     -0.014330      0.021334
      2.42917     11.11462     50.06849         0.019449     -0.002997      0.026857
     11.46203      2.08322     50.06849         0.011824     -0.008902      0.022732
     11.45957     11.11462     50.06849         0.006751     -0.012761      0.025663
      6.59631      6.94818     50.06849        -0.011457      0.008373      0.024309
      6.59385     15.97958     50.06849        -0.015082      0.006418      0.023896
     15.62671      6.94818     50.06849        -0.013004      0.003463      0.022016
     15.62425     15.97958     50.06849        -0.003369      0.020306      0.026131
      2.08113      6.59901     50.06905        -0.006433     -0.015883      0.023913
      2.07867     15.63041     50.06905        -0.009742     -0.007292      0.024480
     11.11153      6.59901     50.06905        -0.009920     -0.011405      0.024577
     11.10907     15.63041     50.06905        -0.011659     -0.007369      0.024574
      6.94681      2.43239     50.06905         0.008892      0.009724      0.023291
      6.94435     11.46379     50.06905         0.005194      0.015481      0.025320
     15.97721      2.43239     50.06905         0.015322      0.006030      0.022326
     15.97475     11.46379     50.06905         0.008615      0.010381      0.026454
     18.02090      0.11754     37.75472         0.009305     -0.000300     -0.026184
      0.17077      9.05995     37.73676         0.000265      0.034526      0.000623
      9.05430     17.95241     37.68835         0.030572      0.016156      0.025391
      9.01799      9.03663     37.65598         0.001717     -0.001268      0.063111
      4.61213      4.49250     37.86163         0.016872     -0.001876     -0.013776
      4.41392     13.66765     37.68940        -0.042794     -0.024530     -0.021582
     13.50969      4.53647     37.85254        -0.010953      0.003415      0.011689
     13.55028     13.68603     37.80038         0.046403      0.028834     -0.125676
      0.00001      0.00001     44.04300        -0.047300     -0.111407      0.113436
     -0.00245      9.03141     44.04300         0.086180      0.095949      0.195607
      9.03041      0.00001     44.04300        -0.013648     -0.001746      0.050659
      9.02795      9.03141     44.04300         0.064212      0.022579      0.098067
      4.51397      4.51569     44.04275         0.027649      0.045188      0.196356
      4.51151     13.54709     44.04275        -0.087969     -0.025860      0.127255
     13.54437      4.51569     44.04275        -0.076605     -0.021953      0.176689
     13.54191     13.54709     44.04275         0.022981     -0.028269      0.198332
      0.00000      0.00000     50.44728        -0.004729     -0.003099     -0.616813
     -0.00246      9.03140     50.44728        -0.003568      0.003591     -0.645710
      9.03040      0.00000     50.44728         0.003811     -0.000571     -0.635988
      9.02794      9.03140     50.44728         0.004253      0.000153     -0.631717
      4.51397      4.51570     50.44728         0.002386      0.006443     -0.633666
      4.51151     13.54710     50.44728         0.000214     -0.006416     -0.616706
     13.54437      4.51570     50.44728        -0.002952      0.005982     -0.629857
     13.54191     13.54710     50.44728         0.000418     -0.006072     -0.640057
 -----------------------------------------------------------------------------------
    total drift:                                0.001937     -0.013648      0.756254


--------------------------------------------------------------------------------------------------------



  FREE ENERGIE OF THE ION-ELECTRON SYSTEM (eV)
  ---------------------------------------------------
  free  energy   TOTEN  =     -1576.25925816 eV

  energy  without entropy=    -1576.25925816  energy(sigma->0) =    -1576.25925816
 


--------------------------------------------------------------------------------------------------------


    POTLOK:  cpu time    0.5019: real time    0.5019


--------------------------------------------------------------------------------------------------------


     LOOP+:  cpu time  265.3087: real time  265.8694
 vacuum level on the upper side and lower side of the slab         2.320         1.532
    4ORBIT:  cpu time    0.0000: real time    0.0000

 total amount of memory used by VASP MPI-rank0  8653571. kBytes
=======================================================================

   base      :      30000. kBytes
   nonlr-proj:      53609. kBytes
   fftplans  :     249280. kBytes
   grid      :     701440. kBytes
   one-center:       2636. kBytes
   wavefun   :    7616606. kBytes
 
  
  
 General timing and accounting informations for this job:
 ========================================================
  
                  Total CPU time used (sec):      476.845
                            User time (sec):      389.643
                          System time (sec):       87.202
                         Elapsed time (sec):      479.344
  
                   Maximum memory used (kb):    10298300.
                   Average memory used (kb):          N/A
  
                          Minor page faults:      3577904
                          Major page faults:           13
                 Voluntary context switches:        10513
