<?xml version="1.0" encoding="ISO-8859-1"?>
<modeling>
 <generator>
  <i name="program" type="string">vasp </i>
  <i name="version" type="string">6.2.1  </i>
  <i name="subversion" type="string">16May21 (build Nov 15 2021 14:57:28) complex                          parallel </i>
  <i name="platform" type="string">LinuxPGI </i>
  <i name="date" type="string">2023 07 30 </i>
  <i name="time" type="string">14:02:23 </i>
 </generator>
 <incar>
  <i type="string" name="SYSTEM">PSC</i>
  <i type="int" name="ISTART">     1</i>
  <i type="string" name="PREC">Normal</i>
  <i name="BMIX">      0.01000000</i>
  <i name="AMIN">      0.01000000</i>
  <i type="int" name="ICHARG">     1</i>
  <i type="int" name="NELM">   600</i>
  <i type="int" name="ISYM">     0</i>
  <i name="ENCUT">    500.00000000</i>
  <i type="string" name="LREAL">Auto</i>
  <i type="int" name="ISMEAR">     0</i>
  <i name="SIGMA">      0.05000000</i>
  <i type="logical" name="LWAVE"> F  </i>
  <i type="logical" name="LVTOT"> T  </i>
  <i type="logical" name="GGA_COMPAT"> F  </i>
  <i type="logical" name="LDIPOL"> T  </i>
  <i type="int" name="IDIPOL">     3</i>
  <i type="int" name="IVDW">    12</i>
 </incar>
 <primitive_cell>
  <structure name="primitive_cell" >
   <crystal>
    <varray name="basis" >
     <v>      18.06080055       0.00000000       0.00000000 </v>
     <v>      -0.00491865      18.06279945       0.00000000 </v>
     <v>       0.00000000       0.00000000      62.48749924 </v>
    </varray>
    <i name="volume">  20385.21054034 </i>
    <varray name="rec_basis" >
     <v>       0.05536853       0.00001508      -0.00000000 </v>
     <v>       0.00000000       0.05536240       0.00000000 </v>
     <v>       0.00000000      -0.00000000       0.01600320 </v>
    </varray>
   </crystal>
   <varray name="positions" >
    <v>       0.40797316       0.28218577       0.56329803 </v>
    <v>       0.41476249       0.69687709       0.57204209 </v>
    <v>       0.92662326       0.29205638       0.58023428 </v>
    <v>       0.92956566       0.81587815       0.57312019 </v>
    <v>       0.32380921       0.09236426       0.56394605 </v>
    <v>       0.32222317       0.57472987       0.56907470 </v>
    <v>       0.80195804       0.10184830       0.56649355 </v>
    <v>       0.11041998       0.24139223       0.56208215 </v>
    <v>       0.07811435       0.68077675       0.56953890 </v>
    <v>       0.58696159       0.18751699       0.56490651 </v>
    <v>       0.59979176       0.75724509       0.55882326 </v>
    <v>       0.37791132       0.01837501       0.55438188 </v>
    <v>       0.25403146       0.62261738       0.55471147 </v>
    <v>       0.87552271       0.04592534       0.55690686 </v>
    <v>       0.06379168       0.28822379       0.58233376 </v>
    <v>       0.99262132       0.69483118       0.58181797 </v>
    <v>       0.49277906       0.17276108       0.57077298 </v>
    <v>       0.55134512       0.69221474       0.57398101 </v>
    <v>       0.30847681       0.43818912       0.57233151 </v>
    <v>       0.18915090       0.06845618       0.56926926 </v>
    <v>       0.68183982       0.03388913       0.57331285 </v>
    <v>       0.45382887       0.36440916       0.55608339 </v>
    <v>       0.37474665       0.76341492       0.55519582 </v>
    <v>       0.88514081       0.24289161       0.55954264 </v>
    <v>       0.97662436       0.87312379       0.55545582 </v>
    <v>       0.23486883       0.39786815       0.55864311 </v>
    <v>       0.15492610       0.98533208       0.55970051 </v>
    <v>       0.67971549       0.94121363       0.56477800 </v>
    <v>       0.57036413       0.30799986       0.55493301 </v>
    <v>       0.49218989       0.81048729       0.54501074 </v>
    <v>       0.00014598       0.20331355       0.54520921 </v>
    <v>       0.07223092       0.78951752       0.54989075 </v>
    <v>       0.18990326       0.51255170       0.54637918 </v>
    <v>       0.27247167       0.94176233       0.54982591 </v>
    <v>       0.80116330       0.94132997       0.55387561 </v>
    <v>       0.45384007       0.29503612       0.67284454 </v>
    <v>       0.44174521       0.81338552       0.67082527 </v>
    <v>       0.95899390       0.28332755       0.67729251 </v>
    <v>       0.91373514       0.73894186       0.66610198 </v>
    <v>       0.29806504       0.04249097       0.67478487 </v>
    <v>       0.30188504       0.56019978       0.67345916 </v>
    <v>       0.79780638       0.05323351       0.67516446 </v>
    <v>       0.83194004       0.48529135       0.66761992 </v>
    <v>       0.09108080       0.17115070       0.64686986 </v>
    <v>       0.10700210       0.69971238       0.65359667 </v>
    <v>       0.57780526       0.16355914       0.64673824 </v>
    <v>       0.57525827       0.67459234       0.65161434 </v>
    <v>       0.18625175       0.41151279       0.65125935 </v>
    <v>       0.16289018       0.92964616       0.64557505 </v>
    <v>       0.63690427       0.47342375       0.65269140 </v>
    <v>       0.67355407       0.91801750       0.65006392 </v>
    <v>       0.06379911       0.18872444       0.67305839 </v>
    <v>       0.02669156       0.65675448       0.66268449 </v>
    <v>       0.54498492       0.18747144       0.67198865 </v>
    <v>       0.54342496       0.71353730       0.67549308 </v>
    <v>       0.21560560       0.44654122       0.67589001 </v>
    <v>       0.18569973       0.95422704       0.67184464 </v>
    <v>       0.70029377       0.43545544       0.67054037 </v>
    <v>       0.69827240       0.95034057       0.67541036 </v>
    <v>       0.43769006       0.33780123       0.64832267 </v>
    <v>       0.41645539       0.82944014       0.64426234 </v>
    <v>       0.92632221       0.31998433       0.65321628 </v>
    <v>       0.92621277       0.83043189       0.65824616 </v>
    <v>       0.34148334       0.06228549       0.65082677 </v>
    <v>       0.31976724       0.58981650       0.64742209 </v>
    <v>       0.82804956       0.07903075       0.64967700 </v>
    <v>       0.84495102       0.55421939       0.64847083 </v>
    <v>       0.00617300       0.25245066       0.63230958 </v>
    <v>       0.04921399       0.81345384       0.64838878 </v>
    <v>       0.51338188       0.25704086       0.62952466 </v>
    <v>       0.49810982       0.74426239       0.63032633 </v>
    <v>       0.25876567       0.99416047       0.63051600 </v>
    <v>       0.24891387       0.49853560       0.63156779 </v>
    <v>       0.75315127       0.99527375       0.63221599 </v>
    <v>       0.72302256       0.55113542       0.63689380 </v>
    <v>       0.44874502       0.30128397       0.76888902 </v>
    <v>       0.44874501       0.80128391       0.76888902 </v>
    <v>       0.94874497       0.30128397       0.76888902 </v>
    <v>       0.94874501       0.80128391       0.76888902 </v>
    <v>       0.30127600       0.05129450       0.76887296 </v>
    <v>       0.30127601       0.55129450       0.76887296 </v>
    <v>       0.80127594       0.05129450       0.76887296 </v>
    <v>       0.80127598       0.55129450       0.76887296 </v>
    <v>       0.07877100       0.17118050       0.74344197 </v>
    <v>       0.07877101       0.67118045       0.74344197 </v>
    <v>       0.57877100       0.17118050       0.74344197 </v>
    <v>       0.57877099       0.67118045       0.74344197 </v>
    <v>       0.17119950       0.42117448       0.74342103 </v>
    <v>       0.17119950       0.92117451       0.74342103 </v>
    <v>       0.67119951       0.42117448       0.74342103 </v>
    <v>       0.67119950       0.92117451       0.74342103 </v>
    <v>       0.05125600       0.19871499       0.76888902 </v>
    <v>       0.05125600       0.69871493       0.76888902 </v>
    <v>       0.55125603       0.19871499       0.76888902 </v>
    <v>       0.55125602       0.69871493       0.76888902 </v>
    <v>       0.19872349       0.44870397       0.76887205 </v>
    <v>       0.19872349       0.94870397       0.76887205 </v>
    <v>       0.69872352       0.44870397       0.76887205 </v>
    <v>       0.69872351       0.94870397       0.76887205 </v>
    <v>       0.42123152       0.32881747       0.74344197 </v>
    <v>       0.42123151       0.82881744       0.74344197 </v>
    <v>       0.92123147       0.32881747       0.74344197 </v>
    <v>       0.92123151       0.82881744       0.74344197 </v>
    <v>       0.32880050       0.07882500       0.74342103 </v>
    <v>       0.32880049       0.57882496       0.74342103 </v>
    <v>       0.82880048       0.07882500       0.74342103 </v>
    <v>       0.82880052       0.57882496       0.74342103 </v>
    <v>       0.00000350       0.25000148       0.72582199 </v>
    <v>       0.00000350       0.75000145       0.72582199 </v>
    <v>       0.50000351       0.25000148       0.72582199 </v>
    <v>       0.50000350       0.75000145       0.72582199 </v>
    <v>       0.25000050       0.00000000       0.72580398 </v>
    <v>       0.25000052       0.50000000       0.72580398 </v>
    <v>       0.75000050       0.00000000       0.72580398 </v>
    <v>       0.75000049       0.50000000       0.72580398 </v>
    <v>       0.79960436       0.50836162       0.51419592 </v>
    <v>       0.87844035       0.50070775       0.53099567 </v>
    <v>       0.75986566       0.61976879       0.53200393 </v>
    <v>       0.75807936       0.62286765       0.56019505 </v>
    <v>       0.68701833       0.44495222       0.55011784 </v>
    <v>       0.66914491       0.53746293       0.55763772 </v>
    <v>       0.79636924       0.42419768       0.56646596 </v>
    <v>       0.86511021       0.49474747       0.56899949 </v>
    <v>       0.85722453       0.37434720       0.53912413 </v>
    <v>       0.76298238       0.37661797       0.53242400 </v>
    <v>       0.78393987       0.38270615       0.49515333 </v>
    <v>       0.87679234       0.40877692       0.49768453 </v>
    <v>       0.89736241       0.61826759       0.53132209 </v>
    <v>       0.90094017       0.60549789       0.55956614 </v>
    <v>       0.86535912       0.68880860       0.54876436 </v>
    <v>       0.60026253       0.51072163       0.52552497 </v>
    <v>       0.68035612       0.48380198       0.51078457 </v>
    <v>       0.66655727       0.57797703       0.51891421 </v>
    <v>       0.70651657       0.50393184       0.58738341 </v>
    <v>       0.77708836       0.57200128       0.59083442 </v>
    <v>       0.78730095       0.48208152       0.60149927 </v>
    <v>       0.82101073       0.25737082       0.51246200 </v>
    <v>       0.84664943       0.27400176       0.48594806 </v>
    <v>       0.92451191       0.15965086       0.49857723 </v>
    <v>       0.97333363       0.38448541       0.51754480 </v>
    <v>       0.05581578       0.12644049       0.50377920 </v>
    <v>       0.10275041       0.35128437       0.52248127 </v>
    <v>       0.14701720       0.22252299       0.51552560 </v>
    <v>       0.99800909       0.23807524       0.55960625 </v>
    <v>       0.02633980       0.77486658       0.56051177 </v>
    <v>       0.52157754       0.27534018       0.55909901 </v>
    <v>       0.48829842       0.76257037       0.55564300 </v>
    <v>       0.24128800       0.51024270       0.55564709 </v>
    <v>       0.26698209       0.99774685       0.55619779 </v>
    <v>       0.77761724       0.99266733       0.56005855 </v>
    <v>       0.00855566       0.24549216       0.64963427 </v>
    <v>       0.01774886       0.76658041       0.65504447 </v>
    <v>       0.50776924       0.25067037       0.64695569 </v>
    <v>       0.49591645       0.75194013       0.64775981 </v>
    <v>       0.25300440       0.50018400       0.64904315 </v>
    <v>       0.25158801       0.99609874       0.64783661 </v>
    <v>       0.74049830       0.51443384       0.64992876 </v>
    <v>       0.75088257       0.99781079       0.64970917 </v>
    <v>       0.49998898       0.24999498       0.74327702 </v>
    <v>       0.49998903       0.74999496       0.74327702 </v>
    <v>       0.99998898       0.24999498       0.74327702 </v>
    <v>       0.99998903       0.74999496       0.74327702 </v>
    <v>       0.25000050       0.00000100       0.74325596 </v>
    <v>       0.25000052       0.50000100       0.74325596 </v>
    <v>       0.75000050       0.00000100       0.74325596 </v>
    <v>       0.75000049       0.50000100       0.74325596 </v>
    <v>       0.93837283       0.27437390       0.50720060 </v>
    <v>       0.96357177       0.20235757       0.50373836 </v>
    <v>       0.99025594       0.32763905       0.51395967 </v>
    <v>       0.03818529       0.18333918       0.50637200 </v>
    <v>       0.06447483       0.30870212       0.51684312 </v>
    <v>       0.08924320       0.23666420       0.51277303 </v>
    <v>       0.82071345       0.48266725       0.52891969 </v>
    <v>       0.78887562       0.60140374       0.54644206 </v>
    <v>       0.69499058       0.50303677       0.54528008 </v>
    <v>       0.80511574       0.48436433       0.56822028 </v>
    <v>       0.81738175       0.39848744       0.52781461 </v>
    <v>       0.83384013       0.37364005       0.50481615 </v>
    <v>       0.86835050       0.62872534       0.54642002 </v>
    <v>       0.66012375       0.51965072       0.52372078 </v>
    <v>       0.76593201       0.51339684       0.58777485 </v>
    <v>       0.85746393       0.29210123       0.50253179 </v>
    <v>       0.06084179       0.25618314       0.56867850 </v>
    <v>       0.03074464       0.71112291       0.57043050 </v>
    <v>       0.53338878       0.20529386       0.56403591 </v>
    <v>       0.54991260       0.73327704       0.56258866 </v>
    <v>       0.45624734       0.30804762       0.55856570 </v>
    <v>       0.42182177       0.73805687       0.56075431 </v>
    <v>       0.93300075       0.25942603       0.56674745 </v>
    <v>       0.97002164       0.82095259       0.56169609 </v>
    <v>       0.26362586       0.44490554       0.56236419 </v>
    <v>       0.20008349       0.01910409       0.56156166 </v>
    <v>       0.70762512       0.99067077       0.56566954 </v>
    <v>       0.32604657       0.03950923       0.55777178 </v>
    <v>       0.27607711       0.57247161       0.55953538 </v>
    <v>       0.82076245       0.05088463       0.56140532 </v>
    <v>       0.05714007       0.19860780       0.65719150 </v>
    <v>       0.05197414       0.70351413       0.65728106 </v>
    <v>       0.54551227       0.19717421       0.65596299 </v>
    <v>       0.54044378       0.71065745       0.65938622 </v>
    <v>       0.21641171       0.44994540       0.65969738 </v>
    <v>       0.19664780       0.95830344       0.65588564 </v>
    <v>       0.69004343       0.47090266       0.65820306 </v>
    <v>       0.70541769       0.95255611       0.65930478 </v>
    <v>       0.46372949       0.29735048       0.65690757 </v>
    <v>       0.44829973       0.80094332       0.65501889 </v>
    <v>       0.96208922       0.28491581       0.66103102 </v>
    <v>       0.94790943       0.77874785       0.65994212 </v>
    <v>       0.29903999       0.03611629       0.65863491 </v>
    <v>       0.29404288       0.55325113       0.65746951 </v>
    <v>       0.79448769       0.04667703       0.65905827 </v>
    <v>       0.81000825       0.51787567       0.65586311 </v>
    <v>       0.04586250       0.20411950       0.75272599 </v>
    <v>       0.04586250       0.70411946       0.75272599 </v>
    <v>       0.54586251       0.20411950       0.75272599 </v>
    <v>       0.54586250       0.70411946       0.75272599 </v>
    <v>       0.20411900       0.45410100       0.75270499 </v>
    <v>       0.20411899       0.95410095       0.75270499 </v>
    <v>       0.70411898       0.45410100       0.75270499 </v>
    <v>       0.70411896       0.95410095       0.75270499 </v>
    <v>       0.45414002       0.29588849       0.75272697 </v>
    <v>       0.45414001       0.79588852       0.75272697 </v>
    <v>       0.95414002       0.29588849       0.75272697 </v>
    <v>       0.95414006       0.79588852       0.75272697 </v>
    <v>       0.29588249       0.04590050       0.75270499 </v>
    <v>       0.29588248       0.54590053       0.75270499 </v>
    <v>       0.79588244       0.04590050       0.75270499 </v>
    <v>       0.79588248       0.54590053       0.75270499 </v>
    <v>       0.77823567       0.51789182       0.54708617 </v>
    <v>       0.51047338       0.97967282       0.55283964 </v>
    <v>       0.47240050       0.50882730       0.55322967 </v>
    <v>       0.00826071       0.01271337       0.55110138 </v>
    <v>       0.03208803       0.49018232       0.55445483 </v>
    <v>       0.25707135       0.24102204       0.55466709 </v>
    <v>       0.23023111       0.76651045       0.55094650 </v>
    <v>       0.73508750       0.22833906       0.55475488 </v>
    <v>       0.72947635       0.79573392       0.55423421 </v>
    <v>       0.99606856       0.98359843       0.65420110 </v>
    <v>       0.00812576       0.50408232       0.65522621 </v>
    <v>       0.49737055       0.00137189       0.65446605 </v>
    <v>       0.49467837       0.50125722       0.65410574 </v>
    <v>       0.26332397       0.24050296       0.65535642 </v>
    <v>       0.24579169       0.75444111       0.65371883 </v>
    <v>       0.74383448       0.26217821       0.65532309 </v>
    <v>       0.74943643       0.73535099       0.65498635 </v>
    <v>       0.13598178       0.11764638       0.60905175 </v>
    <v>       0.14715601       0.60846961       0.60614046 </v>
    <v>       0.63955355       0.11169353       0.60885774 </v>
    <v>       0.61823183       0.63050161       0.60774680 </v>
    <v>       0.36770597       0.38477345       0.60825539 </v>
    <v>       0.36451513       0.88597080       0.60557767 </v>
    <v>       0.88740083       0.36512465       0.61184778 </v>
    <v>       0.86276722       0.89110273       0.60576960 </v>
    <v>       0.12636932       0.36943302       0.61108023 </v>
    <v>       0.11571240       0.87254513       0.60572815 </v>
    <v>       0.61578154       0.36798972       0.60167070 </v>
    <v>       0.61548166       0.86333658       0.61202176 </v>
    <v>       0.39641186       0.14002631       0.60378507 </v>
    <v>       0.37903726       0.63301257       0.60753033 </v>
    <v>       0.88208922       0.13345393       0.61242504 </v>
    <v>       0.90226789       0.64784988       0.61031604 </v>
    <v>       0.00000000       0.00000000       0.75492797 </v>
    <v>       0.00000000       0.50000000       0.75492797 </v>
    <v>       0.50000000       0.00000000       0.75492797 </v>
    <v>       0.49999999       0.50000000       0.75492797 </v>
    <v>       0.25000050       0.25000000       0.75493902 </v>
    <v>       0.25000051       0.74999997       0.75493902 </v>
    <v>       0.75000047       0.25000000       0.75493902 </v>
    <v>       0.75000046       0.74999997       0.75493902 </v>
    <v>       0.13579050       0.11421000       0.70478299 </v>
    <v>       0.13579050       0.61420998       0.70478299 </v>
    <v>       0.63579045       0.11421000       0.70478299 </v>
    <v>       0.63579049       0.61420998       0.70478299 </v>
    <v>       0.36420952       0.38578999       0.70478299 </v>
    <v>       0.36420950       0.88578996       0.70478299 </v>
    <v>       0.86420954       0.38578999       0.70478299 </v>
    <v>       0.86420953       0.88578996       0.70478299 </v>
    <v>       0.11421799       0.36421899       0.70478098 </v>
    <v>       0.11421799       0.86421899       0.70478098 </v>
    <v>       0.61421800       0.36421899       0.70478098 </v>
    <v>       0.61421799       0.86421899       0.70478098 </v>
    <v>       0.38578201       0.13578149       0.70478202 </v>
    <v>       0.38578200       0.63578149       0.70478202 </v>
    <v>       0.88578199       0.13578149       0.70478202 </v>
    <v>       0.88578203       0.63578149       0.70478202 </v>
    <v>       0.13466700       0.11533200       0.80125603 </v>
    <v>       0.13466699       0.61533199       0.80125603 </v>
    <v>       0.63466699       0.11533200       0.80125603 </v>
    <v>       0.63466698       0.61533199       0.80125603 </v>
    <v>       0.36533300       0.38466799       0.80125603 </v>
    <v>       0.36533299       0.88466796       0.80125603 </v>
    <v>       0.86533295       0.38466799       0.80125603 </v>
    <v>       0.86533294       0.88466796       0.80125603 </v>
    <v>       0.11532850       0.36533700       0.80126500 </v>
    <v>       0.11532850       0.86533698       0.80126500 </v>
    <v>       0.61532850       0.36533700       0.80126500 </v>
    <v>       0.61532849       0.86533698       0.80126500 </v>
    <v>       0.38467151       0.13466300       0.80126500 </v>
    <v>       0.38467150       0.63466297       0.80126500 </v>
    <v>       0.88467149       0.13466300       0.80126500 </v>
    <v>       0.88467153       0.63466297       0.80126500 </v>
    <v>       0.99779246       0.00650727       0.60419635 </v>
    <v>       0.00959197       0.50158071       0.60390888 </v>
    <v>       0.50159379       0.99388857       0.60313425 </v>
    <v>       0.49944906       0.50028933       0.60261626 </v>
    <v>       0.25543448       0.24871559       0.60590726 </v>
    <v>       0.24459812       0.75667381       0.60315109 </v>
    <v>       0.74808021       0.25114978       0.60576178 </v>
    <v>       0.75046553       0.75769165       0.60492708 </v>
    <v>       0.00000050       0.00000050       0.70482896 </v>
    <v>       0.00000050       0.50000048       0.70482896 </v>
    <v>       0.50000048       0.00000050       0.70482896 </v>
    <v>       0.50000046       0.50000048       0.70482896 </v>
    <v>       0.24999999       0.24999947       0.70482499 </v>
    <v>       0.25000001       0.74999950       0.70482499 </v>
    <v>       0.74999999       0.24999947       0.70482499 </v>
    <v>       0.74999998       0.74999950       0.70482499 </v>
    <v>       0.00000000       0.00000000       0.80731797 </v>
    <v>       0.00000000       0.50000000       0.80731797 </v>
    <v>       0.50000000       0.00000000       0.80731797 </v>
    <v>       0.49999999       0.50000000       0.80731797 </v>
    <v>       0.24999999       0.25000000       0.80731797 </v>
    <v>       0.25000001       0.74999997       0.80731797 </v>
    <v>       0.74999999       0.25000000       0.80731797 </v>
    <v>       0.74999998       0.74999997       0.80731797 </v>
   </varray>
  </structure>
  <varray name="primitive_index" >
   <v type="int" >        1 </v>
   <v type="int" >        2 </v>
   <v type="int" >        3 </v>
   <v type="int" >        4 </v>
   <v type="int" >        5 </v>
   <v type="int" >        6 </v>
   <v type="int" >        7 </v>
   <v type="int" >        8 </v>
   <v type="int" >        9 </v>
   <v type="int" >       10 </v>
   <v type="int" >       11 </v>
   <v type="int" >       12 </v>
   <v type="int" >       13 </v>
   <v type="int" >       14 </v>
   <v type="int" >       15 </v>
   <v type="int" >       16 </v>
   <v type="int" >       17 </v>
   <v type="int" >       18 </v>
   <v type="int" >       19 </v>
   <v type="int" >       20 </v>
   <v type="int" >       21 </v>
   <v type="int" >       22 </v>
   <v type="int" >       23 </v>
   <v type="int" >       24 </v>
   <v type="int" >       25 </v>
   <v type="int" >       26 </v>
   <v type="int" >       27 </v>
   <v type="int" >       28 </v>
   <v type="int" >       29 </v>
   <v type="int" >       30 </v>
   <v type="int" >       31 </v>
   <v type="int" >       32 </v>
   <v type="int" >       33 </v>
   <v type="int" >       34 </v>
   <v type="int" >       35 </v>
   <v type="int" >       36 </v>
   <v type="int" >       37 </v>
   <v type="int" >       38 </v>
   <v type="int" >       39 </v>
   <v type="int" >       40 </v>
   <v type="int" >       41 </v>
   <v type="int" >       42 </v>
   <v type="int" >       43 </v>
   <v type="int" >       44 </v>
   <v type="int" >       45 </v>
   <v type="int" >       46 </v>
   <v type="int" >       47 </v>
   <v type="int" >       48 </v>
   <v type="int" >       49 </v>
   <v type="int" >       50 </v>
   <v type="int" >       51 </v>
   <v type="int" >       52 </v>
   <v type="int" >       53 </v>
   <v type="int" >       54 </v>
   <v type="int" >       55 </v>
   <v type="int" >       56 </v>
   <v type="int" >       57 </v>
   <v type="int" >       58 </v>
   <v type="int" >       59 </v>
   <v type="int" >       60 </v>
   <v type="int" >       61 </v>
   <v type="int" >       62 </v>
   <v type="int" >       63 </v>
   <v type="int" >       64 </v>
   <v type="int" >       65 </v>
   <v type="int" >       66 </v>
   <v type="int" >       67 </v>
   <v type="int" >       68 </v>
   <v type="int" >       69 </v>
   <v type="int" >       70 </v>
   <v type="int" >       71 </v>
   <v type="int" >       72 </v>
   <v type="int" >       73 </v>
   <v type="int" >       74 </v>
   <v type="int" >       75 </v>
   <v type="int" >       76 </v>
   <v type="int" >       77 </v>
   <v type="int" >       78 </v>
   <v type="int" >       79 </v>
   <v type="int" >       80 </v>
   <v type="int" >       81 </v>
   <v type="int" >       82 </v>
   <v type="int" >       83 </v>
   <v type="int" >       84 </v>
   <v type="int" >       85 </v>
   <v type="int" >       86 </v>
   <v type="int" >       87 </v>
   <v type="int" >       88 </v>
   <v type="int" >       89 </v>
   <v type="int" >       90 </v>
   <v type="int" >       91 </v>
   <v type="int" >       92 </v>
   <v type="int" >       93 </v>
   <v type="int" >       94 </v>
   <v type="int" >       95 </v>
   <v type="int" >       96 </v>
   <v type="int" >       97 </v>
   <v type="int" >       98 </v>
   <v type="int" >       99 </v>
   <v type="int" >      100 </v>
   <v type="int" >      101 </v>
   <v type="int" >      102 </v>
   <v type="int" >      103 </v>
   <v type="int" >      104 </v>
   <v type="int" >      105 </v>
   <v type="int" >      106 </v>
   <v type="int" >      107 </v>
   <v type="int" >      108 </v>
   <v type="int" >      109 </v>
   <v type="int" >      110 </v>
   <v type="int" >      111 </v>
   <v type="int" >      112 </v>
   <v type="int" >      113 </v>
   <v type="int" >      114 </v>
   <v type="int" >      115 </v>
   <v type="int" >      116 </v>
   <v type="int" >      117 </v>
   <v type="int" >      118 </v>
   <v type="int" >      119 </v>
   <v type="int" >      120 </v>
   <v type="int" >      121 </v>
   <v type="int" >      122 </v>
   <v type="int" >      123 </v>
   <v type="int" >      124 </v>
   <v type="int" >      125 </v>
   <v type="int" >      126 </v>
   <v type="int" >      127 </v>
   <v type="int" >      128 </v>
   <v type="int" >      129 </v>
   <v type="int" >      130 </v>
   <v type="int" >      131 </v>
   <v type="int" >      132 </v>
   <v type="int" >      133 </v>
   <v type="int" >      134 </v>
   <v type="int" >      135 </v>
   <v type="int" >      136 </v>
   <v type="int" >      137 </v>
   <v type="int" >      138 </v>
   <v type="int" >      139 </v>
   <v type="int" >      140 </v>
   <v type="int" >      141 </v>
   <v type="int" >      142 </v>
   <v type="int" >      143 </v>
   <v type="int" >      144 </v>
   <v type="int" >      145 </v>
   <v type="int" >      146 </v>
   <v type="int" >      147 </v>
   <v type="int" >      148 </v>
   <v type="int" >      149 </v>
   <v type="int" >      150 </v>
   <v type="int" >      151 </v>
   <v type="int" >      152 </v>
   <v type="int" >      153 </v>
   <v type="int" >      154 </v>
   <v type="int" >      155 </v>
   <v type="int" >      156 </v>
   <v type="int" >      157 </v>
   <v type="int" >      158 </v>
   <v type="int" >      159 </v>
   <v type="int" >      160 </v>
   <v type="int" >      161 </v>
   <v type="int" >      162 </v>
   <v type="int" >      163 </v>
   <v type="int" >      164 </v>
   <v type="int" >      165 </v>
   <v type="int" >      166 </v>
   <v type="int" >      167 </v>
   <v type="int" >      168 </v>
   <v type="int" >      169 </v>
   <v type="int" >      170 </v>
   <v type="int" >      171 </v>
   <v type="int" >      172 </v>
   <v type="int" >      173 </v>
   <v type="int" >      174 </v>
   <v type="int" >      175 </v>
   <v type="int" >      176 </v>
   <v type="int" >      177 </v>
   <v type="int" >      178 </v>
   <v type="int" >      179 </v>
   <v type="int" >      180 </v>
   <v type="int" >      181 </v>
   <v type="int" >      182 </v>
   <v type="int" >      183 </v>
   <v type="int" >      184 </v>
   <v type="int" >      185 </v>
   <v type="int" >      186 </v>
   <v type="int" >      187 </v>
   <v type="int" >      188 </v>
   <v type="int" >      189 </v>
   <v type="int" >      190 </v>
   <v type="int" >      191 </v>
   <v type="int" >      192 </v>
   <v type="int" >      193 </v>
   <v type="int" >      194 </v>
   <v type="int" >      195 </v>
   <v type="int" >      196 </v>
   <v type="int" >      197 </v>
   <v type="int" >      198 </v>
   <v type="int" >      199 </v>
   <v type="int" >      200 </v>
   <v type="int" >      201 </v>
   <v type="int" >      202 </v>
   <v type="int" >      203 </v>
   <v type="int" >      204 </v>
   <v type="int" >      205 </v>
   <v type="int" >      206 </v>
   <v type="int" >      207 </v>
   <v type="int" >      208 </v>
   <v type="int" >      209 </v>
   <v type="int" >      210 </v>
   <v type="int" >      211 </v>
   <v type="int" >      212 </v>
   <v type="int" >      213 </v>
   <v type="int" >      214 </v>
   <v type="int" >      215 </v>
   <v type="int" >      216 </v>
   <v type="int" >      217 </v>
   <v type="int" >      218 </v>
   <v type="int" >      219 </v>
   <v type="int" >      220 </v>
   <v type="int" >      221 </v>
   <v type="int" >      222 </v>
   <v type="int" >      223 </v>
   <v type="int" >      224 </v>
   <v type="int" >      225 </v>
   <v type="int" >      226 </v>
   <v type="int" >      227 </v>
   <v type="int" >      228 </v>
   <v type="int" >      229 </v>
   <v type="int" >      230 </v>
   <v type="int" >      231 </v>
   <v type="int" >      232 </v>
   <v type="int" >      233 </v>
   <v type="int" >      234 </v>
   <v type="int" >      235 </v>
   <v type="int" >      236 </v>
   <v type="int" >      237 </v>
   <v type="int" >      238 </v>
   <v type="int" >      239 </v>
   <v type="int" >      240 </v>
   <v type="int" >      241 </v>
   <v type="int" >      242 </v>
   <v type="int" >      243 </v>
   <v type="int" >      244 </v>
   <v type="int" >      245 </v>
   <v type="int" >      246 </v>
   <v type="int" >      247 </v>
   <v type="int" >      248 </v>
   <v type="int" >      249 </v>
   <v type="int" >      250 </v>
   <v type="int" >      251 </v>
   <v type="int" >      252 </v>
   <v type="int" >      253 </v>
   <v type="int" >      254 </v>
   <v type="int" >      255 </v>
   <v type="int" >      256 </v>
   <v type="int" >      257 </v>
   <v type="int" >      258 </v>
   <v type="int" >      259 </v>
   <v type="int" >      260 </v>
   <v type="int" >      261 </v>
   <v type="int" >      262 </v>
   <v type="int" >      263 </v>
   <v type="int" >      264 </v>
   <v type="int" >      265 </v>
   <v type="int" >      266 </v>
   <v type="int" >      267 </v>
   <v type="int" >      268 </v>
   <v type="int" >      269 </v>
   <v type="int" >      270 </v>
   <v type="int" >      271 </v>
   <v type="int" >      272 </v>
   <v type="int" >      273 </v>
   <v type="int" >      274 </v>
   <v type="int" >      275 </v>
   <v type="int" >      276 </v>
   <v type="int" >      277 </v>
   <v type="int" >      278 </v>
   <v type="int" >      279 </v>
   <v type="int" >      280 </v>
   <v type="int" >      281 </v>
   <v type="int" >      282 </v>
   <v type="int" >      283 </v>
   <v type="int" >      284 </v>
   <v type="int" >      285 </v>
   <v type="int" >      286 </v>
   <v type="int" >      287 </v>
   <v type="int" >      288 </v>
   <v type="int" >      289 </v>
   <v type="int" >      290 </v>
   <v type="int" >      291 </v>
   <v type="int" >      292 </v>
   <v type="int" >      293 </v>
   <v type="int" >      294 </v>
   <v type="int" >      295 </v>
   <v type="int" >      296 </v>
   <v type="int" >      297 </v>
   <v type="int" >      298 </v>
   <v type="int" >      299 </v>
   <v type="int" >      300 </v>
   <v type="int" >      301 </v>
   <v type="int" >      302 </v>
   <v type="int" >      303 </v>
   <v type="int" >      304 </v>
   <v type="int" >      305 </v>
   <v type="int" >      306 </v>
   <v type="int" >      307 </v>
   <v type="int" >      308 </v>
   <v type="int" >      309 </v>
   <v type="int" >      310 </v>
   <v type="int" >      311 </v>
   <v type="int" >      312 </v>
   <v type="int" >      313 </v>
   <v type="int" >      314 </v>
   <v type="int" >      315 </v>
   <v type="int" >      316 </v>
   <v type="int" >      317 </v>
   <v type="int" >      318 </v>
   <v type="int" >      319 </v>
   <v type="int" >      320 </v>
   <v type="int" >      321 </v>
   <v type="int" >      322 </v>
   <v type="int" >      323 </v>
   <v type="int" >      324 </v>
   <v type="int" >      325 </v>
  </varray>
 </primitive_cell>
 <kpoints>
  <generation param="Gamma">
   <v type="int" name="divisions">       3        3        1 </v>
   <v name="usershift">      0.00000000       0.00000000       0.00000000 </v>
   <v name="genvec1">      0.33333333       0.00000000       0.00000000 </v>
   <v name="genvec2">      0.00000000       0.33333333       0.00000000 </v>
   <v name="genvec3">      0.00000000       0.00000000       1.00000000 </v>
   <v name="shift">      0.00000000       0.00000000       0.00000000 </v>
  </generation>
  <varray name="kpointlist" >
   <v>       0.00000000       0.00000000       0.00000000 </v>
   <v>       0.33333333       0.00000000       0.00000000 </v>
   <v>       0.00000000       0.33333333       0.00000000 </v>
   <v>       0.33333333       0.33333333       0.00000000 </v>
   <v>      -0.33333333       0.33333333       0.00000000 </v>
  </varray>
  <varray name="weights" >
   <v>       0.11111111 </v>
   <v>       0.22222222 </v>
   <v>       0.22222222 </v>
   <v>       0.22222222 </v>
   <v>       0.22222222 </v>
  </varray>
 </kpoints>
 <parameters>
  <separator name="general" >
   <i type="string" name="SYSTEM">PSC</i>
   <i type="logical" name="LCOMPAT"> F  </i>
  </separator>
  <separator name="electronic" >
   <i type="string" name="PREC">normal</i>
   <i name="ENMAX">    500.00000000</i>
   <i name="ENAUG">    644.87300000</i>
   <i name="EDIFF">      0.00010000</i>
   <i type="int" name="IALGO">    38</i>
   <i type="int" name="IWAVPR">    10</i>
   <i type="int" name="NBANDS">   732</i>
   <i type="int" name="NBANDSLOW">    -1</i>
   <i type="int" name="NBANDSHIGH">    -1</i>
   <i name="NELECT">   1134.00000000</i>
   <i type="int" name="TURBO">     0</i>
   <i type="int" name="IRESTART">     0</i>
   <i type="int" name="NREBOOT">     0</i>
   <i type="int" name="NMIN">     0</i>
   <i name="EREF">      0.00000000</i>
   <separator name="electronic smearing" >
    <i type="int" name="ISMEAR">     0</i>
    <i name="SIGMA">      0.05000000</i>
    <i name="KSPACING">      0.50000000</i>
    <i type="logical" name="KGAMMA"> T  </i>
    <i type="logical" name="KBLOWUP"> T  </i>
   </separator>
   <separator name="electronic projectors" >
    <i type="logical" name="LREAL"> T  </i>
    <v name="ROPT">     -0.00050000     -0.00050000     -0.00050000     -0.00050000     -0.00050000</v>
    <i type="int" name="LMAXPAW">  -100</i>
    <i type="int" name="LMAXMIX">     2</i>
    <i type="logical" name="NLSPLINE"> F  </i>
   </separator>
   <separator name="electronic startup" >
    <i type="int" name="ISTART">     0</i>
    <i type="int" name="ICHARG">     1</i>
    <i type="int" name="INIWAV">     1</i>
   </separator>
   <separator name="electronic spin" >
    <i type="int" name="ISPIN">     1</i>
    <i type="logical" name="LNONCOLLINEAR"> F  </i>
    <v name="MAGMOM">      1.00000000      1.00000000      1.00000000      1.00000000      1.00000000      1.00000000      1.00000000      1.00000000      1.00000000      1.00000000      1.00000000      1.00000000      1.00000000      1.00000000      1.00000000      1.00000000      1.00000000      1.00000000      1.00000000      1.00000000
      1.00000000      1.00000000      1.00000000      1.00000000      1.00000000      1.00000000      1.00000000      1.00000000      1.00000000      1.00000000      1.00000000      1.00000000      1.00000000      1.00000000      1.00000000      1.00000000      1.00000000      1.00000000      1.00000000      1.00000000
      1.00000000      1.00000000      1.00000000      1.00000000      1.00000000      1.00000000      1.00000000      1.00000000      1.00000000      1.00000000      1.00000000      1.00000000      1.00000000      1.00000000      1.00000000      1.00000000      1.00000000      1.00000000      1.00000000      1.00000000
      1.00000000      1.00000000      1.00000000      1.00000000      1.00000000      1.00000000      1.00000000      1.00000000      1.00000000      1.00000000      1.00000000      1.00000000      1.00000000      1.00000000      1.00000000      1.00000000      1.00000000      1.00000000      1.00000000      1.00000000
      1.00000000      1.00000000      1.00000000      1.00000000      1.00000000      1.00000000      1.00000000      1.00000000      1.00000000      1.00000000      1.00000000      1.00000000      1.00000000      1.00000000      1.00000000      1.00000000      1.00000000      1.00000000      1.00000000      1.00000000
      1.00000000      1.00000000      1.00000000      1.00000000      1.00000000      1.00000000      1.00000000      1.00000000      1.00000000      1.00000000      1.00000000      1.00000000      1.00000000      1.00000000      1.00000000      1.00000000      1.00000000      1.00000000      1.00000000      1.00000000
      1.00000000      1.00000000      1.00000000      1.00000000      1.00000000      1.00000000      1.00000000      1.00000000      1.00000000      1.00000000      1.00000000      1.00000000      1.00000000      1.00000000      1.00000000      1.00000000      1.00000000      1.00000000      1.00000000      1.00000000
      1.00000000      1.00000000      1.00000000      1.00000000      1.00000000      1.00000000      1.00000000      1.00000000      1.00000000      1.00000000      1.00000000      1.00000000      1.00000000      1.00000000      1.00000000      1.00000000      1.00000000      1.00000000      1.00000000      1.00000000
      1.00000000      1.00000000      1.00000000      1.00000000      1.00000000      1.00000000      1.00000000      1.00000000      1.00000000      1.00000000      1.00000000      1.00000000      1.00000000      1.00000000      1.00000000      1.00000000      1.00000000      1.00000000      1.00000000      1.00000000
      1.00000000      1.00000000      1.00000000      1.00000000      1.00000000      1.00000000      1.00000000      1.00000000      1.00000000      1.00000000      1.00000000      1.00000000      1.00000000      1.00000000      1.00000000      1.00000000      1.00000000      1.00000000      1.00000000      1.00000000
      1.00000000      1.00000000      1.00000000      1.00000000      1.00000000      1.00000000      1.00000000      1.00000000      1.00000000      1.00000000      1.00000000      1.00000000      1.00000000      1.00000000      1.00000000      1.00000000      1.00000000      1.00000000      1.00000000      1.00000000
      1.00000000      1.00000000      1.00000000      1.00000000      1.00000000      1.00000000      1.00000000      1.00000000      1.00000000      1.00000000      1.00000000      1.00000000      1.00000000      1.00000000      1.00000000      1.00000000      1.00000000      1.00000000      1.00000000      1.00000000
      1.00000000      1.00000000      1.00000000      1.00000000      1.00000000      1.00000000      1.00000000      1.00000000      1.00000000      1.00000000      1.00000000      1.00000000      1.00000000      1.00000000      1.00000000      1.00000000      1.00000000      1.00000000      1.00000000      1.00000000
      1.00000000      1.00000000      1.00000000      1.00000000      1.00000000      1.00000000      1.00000000      1.00000000      1.00000000      1.00000000      1.00000000      1.00000000      1.00000000      1.00000000      1.00000000      1.00000000      1.00000000      1.00000000      1.00000000      1.00000000
      1.00000000      1.00000000      1.00000000      1.00000000      1.00000000      1.00000000      1.00000000      1.00000000      1.00000000      1.00000000      1.00000000      1.00000000      1.00000000      1.00000000      1.00000000      1.00000000      1.00000000      1.00000000      1.00000000      1.00000000
      1.00000000      1.00000000      1.00000000      1.00000000      1.00000000      1.00000000      1.00000000      1.00000000      1.00000000      1.00000000      1.00000000      1.00000000      1.00000000      1.00000000      1.00000000      1.00000000      1.00000000      1.00000000      1.00000000      1.00000000
      1.00000000      1.00000000      1.00000000      1.00000000      1.00000000</v>
    <i name="NUPDOWN">     -1.00000000</i>
    <i type="logical" name="LSORBIT"> F  </i>
    <v name="SAXIS">      0.00000000      0.00000000      1.00000000</v>
    <i type="logical" name="LSPIRAL"> F  </i>
    <v name="QSPIRAL">      0.00000000      0.00000000      0.00000000</v>
    <i type="logical" name="LZEROZ"> F  </i>
   </separator>
   <separator name="electronic exchange-correlation" >
    <i type="logical" name="LASPH"> F  </i>
    <i type="logical" name="LMETAGGA"> F  </i>
   </separator>
   <separator name="electronic convergence" >
    <i type="int" name="NELM">   600</i>
    <i type="int" name="NELMDL">     0</i>
    <i type="int" name="NELMIN">     2</i>
    <i name="ENINI">    500.00000000</i>
    <separator name="electronic convergence detail" >
     <i type="logical" name="LDIAG"> T  </i>
     <i type="logical" name="LSUBROT"> F  </i>
     <i name="WEIMIN">      0.00000000</i>
     <i name="EBREAK">      0.00000003</i>
     <i name="DEPER">      0.30000000</i>
     <i type="int" name="NRMM">     4</i>
     <i name="TIME">      0.40000000</i>
    </separator>
   </separator>
   <separator name="electronic mixer" >
    <i name="AMIX">      0.40000000</i>
    <i name="BMIX">      0.01000000</i>
    <i name="AMIN">      0.01000000</i>
    <i name="AMIX_MAG">      1.60000000</i>
    <i name="BMIX_MAG">      0.01000000</i>
    <separator name="electronic mixer details" >
     <i type="int" name="IMIX">     4</i>
     <i type="logical" name="MIXFIRST"> F  </i>
     <i type="int" name="MAXMIX">   -45</i>
     <i name="WC">    100.00000000</i>
     <i type="int" name="INIMIX">     1</i>
     <i type="int" name="MIXPRE">     1</i>
     <i type="int" name="MREMOVE">     5</i>
    </separator>
   </separator>
   <separator name="electronic dipolcorrection" >
    <i type="logical" name="LDIPOL"> T  </i>
    <i type="logical" name="LMONO"> F  </i>
    <i type="int" name="IDIPOL">     3</i>
    <i name="EPSILON">      1.00000000</i>
    <v name="DIPOL">   -100.00000000   -100.00000000   -100.00000000</v>
    <i name="EFIELD">      0.00000000</i>
   </separator>
  </separator>
  <separator name="grids" >
   <i type="int" name="NGX">   100</i>
   <i type="int" name="NGY">   100</i>
   <i type="int" name="NGZ">   350</i>
   <i type="int" name="NGXF">   200</i>
   <i type="int" name="NGYF">   200</i>
   <i type="int" name="NGZF">   700</i>
   <i type="logical" name="ADDGRID"> F  </i>
  </separator>
  <separator name="ionic" >
   <i type="int" name="NSW">     0</i>
   <i type="int" name="IBRION">    -1</i>
   <i type="int" name="MDALGO">     0</i>
   <i type="int" name="ISIF">     2</i>
   <i name="PSTRESS">      0.00000000</i>
   <i name="EDIFFG">      0.00100000</i>
   <i type="int" name="NFREE">     0</i>
   <i name="POTIM">      0.50000000</i>
   <i name="SMASS">     -3.00000000</i>
   <i name="SCALEE">      1.00000000</i>
  </separator>
  <separator name="ionic md" >
   <i name="TEBEG">      0.00010000</i>
   <i name="TEEND">      0.00010000</i>
   <i type="int" name="NBLOCK">     1</i>
   <i type="int" name="KBLOCK">     1</i>
   <i type="int" name="NPACO">   256</i>
   <i name="APACO">     16.00000000</i>
  </separator>
  <separator name="symmetry" >
   <i type="int" name="ISYM">     0</i>
   <i name="SYMPREC">      0.00001000</i>
  </separator>
  <separator name="dos" >
   <i type="int" name="LORBIT">     0</i>
   <v name="RWIGS">     -1.00000000     -1.00000000     -1.00000000     -1.00000000     -1.00000000</v>
   <i type="int" name="NEDOS">   301</i>
   <i name="EMIN">     10.00000000</i>
   <i name="EMAX">    -10.00000000</i>
   <i name="EFERMI">      0.00000000</i>
  </separator>
  <separator name="writing" >
   <i type="int" name="NWRITE">     2</i>
   <i type="logical" name="LWAVE"> F  </i>
   <i type="logical" name="LDOWNSAMPLE"> F  </i>
   <i type="logical" name="LCHARG"> T  </i>
   <i type="logical" name="LPARD"> F  </i>
   <i type="logical" name="LVTOT"> T  </i>
   <i type="logical" name="LVHAR"> F  </i>
   <i type="logical" name="LELF"> F  </i>
   <i type="logical" name="LOPTICS"> F  </i>
   <v name="STM">      0.00000000      0.00000000      0.00000000      0.00000000      0.00000000      0.00000000      0.00000000</v>
  </separator>
  <separator name="performance" >
   <i type="int" name="NPAR">     4</i>
   <i type="int" name="NSIM">     4</i>
   <i type="int" name="NBLK">    -1</i>
   <i type="logical" name="LPLANE"> T  </i>
   <i type="logical" name="LSCALAPACK"> T  </i>
   <i type="logical" name="LSCAAWARE"> F  </i>
   <i type="logical" name="LSCALU"> F  </i>
   <i type="logical" name="LASYNC"> F  </i>
   <i type="logical" name="LORBITALREAL"> F  </i>
  </separator>
  <separator name="miscellaneous" >
   <i type="int" name="IDIOT">     3</i>
   <i type="int" name="PHON_NSTRUCT">    -1</i>
   <i type="logical" name="LMUSIC"> F  </i>
   <v name="POMASS">      1.00000000     12.01100000     14.00100000    126.90400000    207.20000000</v>
   <v name="DARWINR">      0.00000000      0.00000000      0.00000000      0.00000000      0.00000000</v>
   <v name="DARWINV">      1.00000000      1.00000000      1.00000000      1.00000000      1.00000000</v>
   <i type="logical" name="LCORR"> T  </i>
  </separator>
  <i type="logical" name="GGA_COMPAT"> F  </i>
  <i type="logical" name="LBERRY"> F  </i>
  <i type="int" name="ICORELEVEL">     0</i>
  <i type="logical" name="LDAU"> F  </i>
  <i type="int" name="I_CONSTRAINED_M">     0</i>
  <separator name="electronic exchange-correlation" >
   <i type="string" name="GGA">--</i>
   <i type="int" name="VOSKOWN">     0</i>
   <i type="logical" name="LHFCALC"> F  </i>
   <i type="string" name="PRECFOCK"></i>
   <i type="logical" name="LSYMGRAD"> F  </i>
   <i type="logical" name="LHFONE"> F  </i>
   <i type="logical" name="LRHFCALC"> F  </i>
   <i type="logical" name="LTHOMAS"> F  </i>
   <i type="logical" name="LMODELHF"> F  </i>
   <i type="logical" name="LFOCKACE"> F  </i>
   <i name="ENCUT4O">     -1.00000000</i>
   <i type="int" name="EXXOEP">     0</i>
   <i type="int" name="FOURORBIT">     0</i>
   <i name="AEXX">      0.00000000</i>
   <i name="HFALPHA">      0.00000000</i>
   <i name="MCALPHA">      0.00000000</i>
   <i name="ALDAX">      1.00000000</i>
   <i name="AGGAX">      1.00000000</i>
   <i name="ALDAC">      1.00000000</i>
   <i name="AGGAC">      1.00000000</i>
   <i type="int" name="NKREDX">     1</i>
   <i type="int" name="NKREDY">     1</i>
   <i type="int" name="NKREDZ">     1</i>
   <i type="logical" name="SHIFTRED"> F  </i>
   <i type="logical" name="ODDONLY"> F  </i>
   <i type="logical" name="EVENONLY"> F  </i>
   <i type="int" name="LMAXFOCK">     0</i>
   <i type="int" name="NMAXFOCKAE">     0</i>
   <i type="logical" name="LFOCKAEDFT"> F  </i>
   <i name="HFSCREEN">      0.00000000</i>
   <i name="HFSCREENC">      0.00000000</i>
   <i type="int" name="NBANDSGWLOW">     0</i>
  </separator>
  <separator name="vdW DFT" >
   <i type="logical" name="LUSE_VDW"> F  </i>
   <i name="Zab_VDW">     -0.84910000</i>
   <i name="PARAM1">      0.12340000</i>
   <i name="PARAM2">      1.00000000</i>
   <i name="PARAM3">      0.00000000</i>
  </separator>
  <separator name="model GW" >
   <i type="int" name="MODEL_GW">     0</i>
   <i name="MODEL_EPS0">     37.63423484</i>
   <i name="MODEL_ALPHA">      1.00000000</i>
  </separator>
  <separator name="linear response parameters" >
   <i type="logical" name="LEPSILON"> F  </i>
   <i type="logical" name="LRPA"> F  </i>
   <i type="logical" name="LNABLA"> F  </i>
   <i type="logical" name="LVEL"> F  </i>
   <i type="int" name="KINTER">     0</i>
   <i name="CSHIFT">      0.10000000</i>
   <i name="OMEGAMAX">     -1.00000000</i>
   <i name="DEG_THRESHOLD">      0.00200000</i>
   <i name="RTIME">     -0.10000000</i>
   <i name="WPLASMAI">      0.00000000</i>
   <v name="DFIELD">      0.00000000      0.00000000      0.00000000</v>
   <v name="WPLASMA">      0.00000000      0.00000000      0.00000000      0.00000000      0.00000000      0.00000000      0.00000000      0.00000000      0.00000000</v>
  </separator>
  <separator name="orbital magnetization" >
   <i type="logical" name="NUCIND"> F  </i>
   <v name="MAGPOS">      0.00000000      0.00000000      0.00000000</v>
   <i type="logical" name="LNICSALL"> T  </i>
   <i type="logical" name="ORBITALMAG"> F  </i>
   <i type="logical" name="LMAGBLOCH"> F  </i>
   <i type="logical" name="LCHIMAG"> F  </i>
   <i type="logical" name="LGAUGE"> T  </i>
   <i type="int" name="MAGATOM">     0</i>
   <v name="MAGDIPOL">      0.00000000      0.00000000      0.00000000</v>
   <v name="AVECCONST">      0.00000000      0.00000000      0.00000000</v>
  </separator>
  <separator name="response functions" >
   <i type="logical" name="LFINITE_TEMPERATURE"> F  </i>
   <i type="logical" name="LADDER"> F  </i>
   <i type="logical" name="LRPAFORCE"> F  </i>
   <i type="logical" name="LFXC"> F  </i>
   <i type="logical" name="LHARTREE"> T  </i>
   <i type="int" name="IBSE">     0</i>
   <v type="int" name="KPOINT">    -1     0     0     0</v>
   <i type="logical" name="LTCTC"> F  </i>
   <i type="logical" name="LTCTE"> F  </i>
   <i type="logical" name="LTETE"> F  </i>
   <i type="logical" name="LTRIPLET"> F  </i>
   <i type="logical" name="LFXCEPS"> F  </i>
   <i type="logical" name="LFXHEG"> F  </i>
   <i type="int" name="NATURALO">     2</i>
   <i type="logical" name="LHOLEGF"> F  </i>
   <i type="logical" name="L2ORDER"> F  </i>
   <i type="logical" name="LDMP1"> F  </i>
   <i type="logical" name="LMP2LT"> F  </i>
   <i type="logical" name="LSMP2LT"> F  </i>
   <i type="logical" name="LGWLF"> F  </i>
   <i name="ENCUTGW">     -2.00000000</i>
   <i name="ENCUTGWSOFT">     -2.00000000</i>
   <i name="ENCUTLF">     -1.00000000</i>
   <i type="logical" name="LESF_SPLINES"> F  </i>
   <i type="int" name="LMAXMP2">    -1</i>
   <i name="SCISSOR">      0.00000000</i>
   <i type="int" name="NOMEGA">     0</i>
   <i type="int" name="NOMEGAR">     0</i>
   <i type="int" name="NBANDSGW">    -1</i>
   <i type="int" name="NBANDSO">    -1</i>
   <i type="int" name="NBANDSV">    -1</i>
   <i type="int" name="NELM">   600</i>
   <i type="int" name="NELMHF">     1</i>
   <i type="int" name="DIM">     3</i>
   <i type="int" name="IESPILON">     4</i>
   <i type="int" name="ANTIRES">     0</i>
   <i name="OMEGAMAX">    -30.00000000</i>
   <i name="OMEGAMIN">    -30.00000000</i>
   <i name="OMEGATL">   -200.00000000</i>
   <i type="int" name="OMEGAGRID">     0</i>
   <i name="CSHIFT">     -0.10000000</i>
   <i type="logical" name="LSELFENERGY"> F  </i>
   <i type="logical" name="LSPECTRAL"> F  </i>
   <i type="logical" name="LSPECTRALGW"> F  </i>
   <i type="logical" name="LSINGLES"> F  </i>
   <i type="logical" name="LFERMIGW"> F  </i>
   <i type="logical" name="ODDONLYGW"> F  </i>
   <i type="logical" name="EVENONLYGW"> F  </i>
   <i type="int" name="NKREDLFX">     1</i>
   <i type="int" name="NKREDLFY">     1</i>
   <i type="int" name="NKREDLFZ">     1</i>
   <i type="int" name="MAXMEM">  2800</i>
   <i type="int" name="TELESCOPE">     0</i>
   <i type="int" name="NTAUPAR">    -1</i>
   <i type="int" name="NOMEGAPAR">    -1</i>
   <i name="DAMP_NEWTON">      0.80000001</i>
   <i name="LAMBDA">      1.00000000</i>
  </separator>
  <separator name="External order field" >
   <i name="OFIELD_KAPPA">      0.00000000</i>
   <v name="OFIELD_K">      0.00000000      0.00000000      0.00000000</v>
   <i name="OFIELD_Q6_NEAR">      0.00000000</i>
   <i name="OFIELD_Q6_FAR">      0.00000000</i>
   <i name="OFIELD_A">      0.00000000</i>
  </separator>
 </parameters>
 <atominfo>
  <atoms>     325 </atoms>
  <types>       5 </types>
  <array name="atoms" >
   <dimension dim="1">ion</dimension>
   <field type="string">element</field>
   <field type="int">atomtype</field>
   <set>
    <rc><c>H </c><c>   1</c></rc>
    <rc><c>H </c><c>   1</c></rc>
    <rc><c>H </c><c>   1</c></rc>
    <rc><c>H </c><c>   1</c></rc>
    <rc><c>H </c><c>   1</c></rc>
    <rc><c>H </c><c>   1</c></rc>
    <rc><c>H </c><c>   1</c></rc>
    <rc><c>H </c><c>   1</c></rc>
    <rc><c>H </c><c>   1</c></rc>
    <rc><c>H </c><c>   1</c></rc>
    <rc><c>H </c><c>   1</c></rc>
    <rc><c>H </c><c>   1</c></rc>
    <rc><c>H </c><c>   1</c></rc>
    <rc><c>H </c><c>   1</c></rc>
    <rc><c>H </c><c>   1</c></rc>
    <rc><c>H </c><c>   1</c></rc>
    <rc><c>H </c><c>   1</c></rc>
    <rc><c>H </c><c>   1</c></rc>
    <rc><c>H </c><c>   1</c></rc>
    <rc><c>H </c><c>   1</c></rc>
    <rc><c>H </c><c>   1</c></rc>
    <rc><c>H </c><c>   1</c></rc>
    <rc><c>H </c><c>   1</c></rc>
    <rc><c>H </c><c>   1</c></rc>
    <rc><c>H </c><c>   1</c></rc>
    <rc><c>H </c><c>   1</c></rc>
    <rc><c>H </c><c>   1</c></rc>
    <rc><c>H </c><c>   1</c></rc>
    <rc><c>H </c><c>   1</c></rc>
    <rc><c>H </c><c>   1</c></rc>
    <rc><c>H </c><c>   1</c></rc>
    <rc><c>H </c><c>   1</c></rc>
    <rc><c>H </c><c>   1</c></rc>
    <rc><c>H </c><c>   1</c></rc>
    <rc><c>H </c><c>   1</c></rc>
    <rc><c>H </c><c>   1</c></rc>
    <rc><c>H </c><c>   1</c></rc>
    <rc><c>H </c><c>   1</c></rc>
    <rc><c>H </c><c>   1</c></rc>
    <rc><c>H </c><c>   1</c></rc>
    <rc><c>H </c><c>   1</c></rc>
    <rc><c>H </c><c>   1</c></rc>
    <rc><c>H </c><c>   1</c></rc>
    <rc><c>H </c><c>   1</c></rc>
    <rc><c>H </c><c>   1</c></rc>
    <rc><c>H </c><c>   1</c></rc>
    <rc><c>H </c><c>   1</c></rc>
    <rc><c>H </c><c>   1</c></rc>
    <rc><c>H </c><c>   1</c></rc>
    <rc><c>H </c><c>   1</c></rc>
    <rc><c>H </c><c>   1</c></rc>
    <rc><c>H </c><c>   1</c></rc>
    <rc><c>H </c><c>   1</c></rc>
    <rc><c>H </c><c>   1</c></rc>
    <rc><c>H </c><c>   1</c></rc>
    <rc><c>H </c><c>   1</c></rc>
    <rc><c>H </c><c>   1</c></rc>
    <rc><c>H </c><c>   1</c></rc>
    <rc><c>H </c><c>   1</c></rc>
    <rc><c>H </c><c>   1</c></rc>
    <rc><c>H </c><c>   1</c></rc>
    <rc><c>H </c><c>   1</c></rc>
    <rc><c>H </c><c>   1</c></rc>
    <rc><c>H </c><c>   1</c></rc>
    <rc><c>H </c><c>   1</c></rc>
    <rc><c>H </c><c>   1</c></rc>
    <rc><c>H </c><c>   1</c></rc>
    <rc><c>H </c><c>   1</c></rc>
    <rc><c>H </c><c>   1</c></rc>
    <rc><c>H </c><c>   1</c></rc>
    <rc><c>H </c><c>   1</c></rc>
    <rc><c>H </c><c>   1</c></rc>
    <rc><c>H </c><c>   1</c></rc>
    <rc><c>H </c><c>   1</c></rc>
    <rc><c>H </c><c>   1</c></rc>
    <rc><c>H </c><c>   1</c></rc>
    <rc><c>H </c><c>   1</c></rc>
    <rc><c>H </c><c>   1</c></rc>
    <rc><c>H </c><c>   1</c></rc>
    <rc><c>H </c><c>   1</c></rc>
    <rc><c>H </c><c>   1</c></rc>
    <rc><c>H </c><c>   1</c></rc>
    <rc><c>H </c><c>   1</c></rc>
    <rc><c>H </c><c>   1</c></rc>
    <rc><c>H </c><c>   1</c></rc>
    <rc><c>H </c><c>   1</c></rc>
    <rc><c>H </c><c>   1</c></rc>
    <rc><c>H </c><c>   1</c></rc>
    <rc><c>H </c><c>   1</c></rc>
    <rc><c>H </c><c>   1</c></rc>
    <rc><c>H </c><c>   1</c></rc>
    <rc><c>H </c><c>   1</c></rc>
    <rc><c>H </c><c>   1</c></rc>
    <rc><c>H </c><c>   1</c></rc>
    <rc><c>H </c><c>   1</c></rc>
    <rc><c>H </c><c>   1</c></rc>
    <rc><c>H </c><c>   1</c></rc>
    <rc><c>H </c><c>   1</c></rc>
    <rc><c>H </c><c>   1</c></rc>
    <rc><c>H </c><c>   1</c></rc>
    <rc><c>H </c><c>   1</c></rc>
    <rc><c>H </c><c>   1</c></rc>
    <rc><c>H </c><c>   1</c></rc>
    <rc><c>H </c><c>   1</c></rc>
    <rc><c>H </c><c>   1</c></rc>
    <rc><c>H </c><c>   1</c></rc>
    <rc><c>H </c><c>   1</c></rc>
    <rc><c>H </c><c>   1</c></rc>
    <rc><c>H </c><c>   1</c></rc>
    <rc><c>H </c><c>   1</c></rc>
    <rc><c>H </c><c>   1</c></rc>
    <rc><c>H </c><c>   1</c></rc>
    <rc><c>H </c><c>   1</c></rc>
    <rc><c>H </c><c>   1</c></rc>
    <rc><c>H </c><c>   1</c></rc>
    <rc><c>H </c><c>   1</c></rc>
    <rc><c>H </c><c>   1</c></rc>
    <rc><c>H </c><c>   1</c></rc>
    <rc><c>H </c><c>   1</c></rc>
    <rc><c>H </c><c>   1</c></rc>
    <rc><c>H </c><c>   1</c></rc>
    <rc><c>H </c><c>   1</c></rc>
    <rc><c>H </c><c>   1</c></rc>
    <rc><c>H </c><c>   1</c></rc>
    <rc><c>H </c><c>   1</c></rc>
    <rc><c>H </c><c>   1</c></rc>
    <rc><c>H </c><c>   1</c></rc>
    <rc><c>H </c><c>   1</c></rc>
    <rc><c>H </c><c>   1</c></rc>
    <rc><c>H </c><c>   1</c></rc>
    <rc><c>H </c><c>   1</c></rc>
    <rc><c>H </c><c>   1</c></rc>
    <rc><c>H </c><c>   1</c></rc>
    <rc><c>H </c><c>   1</c></rc>
    <rc><c>H </c><c>   1</c></rc>
    <rc><c>H </c><c>   1</c></rc>
    <rc><c>H </c><c>   1</c></rc>
    <rc><c>H </c><c>   1</c></rc>
    <rc><c>H </c><c>   1</c></rc>
    <rc><c>H </c><c>   1</c></rc>
    <rc><c>H </c><c>   1</c></rc>
    <rc><c>H </c><c>   1</c></rc>
    <rc><c>H </c><c>   1</c></rc>
    <rc><c>C </c><c>   2</c></rc>
    <rc><c>C </c><c>   2</c></rc>
    <rc><c>C </c><c>   2</c></rc>
    <rc><c>C </c><c>   2</c></rc>
    <rc><c>C </c><c>   2</c></rc>
    <rc><c>C </c><c>   2</c></rc>
    <rc><c>C </c><c>   2</c></rc>
    <rc><c>C </c><c>   2</c></rc>
    <rc><c>C </c><c>   2</c></rc>
    <rc><c>C </c><c>   2</c></rc>
    <rc><c>C </c><c>   2</c></rc>
    <rc><c>C </c><c>   2</c></rc>
    <rc><c>C </c><c>   2</c></rc>
    <rc><c>C </c><c>   2</c></rc>
    <rc><c>C </c><c>   2</c></rc>
    <rc><c>C </c><c>   2</c></rc>
    <rc><c>C </c><c>   2</c></rc>
    <rc><c>C </c><c>   2</c></rc>
    <rc><c>C </c><c>   2</c></rc>
    <rc><c>C </c><c>   2</c></rc>
    <rc><c>C </c><c>   2</c></rc>
    <rc><c>C </c><c>   2</c></rc>
    <rc><c>C </c><c>   2</c></rc>
    <rc><c>C </c><c>   2</c></rc>
    <rc><c>C </c><c>   2</c></rc>
    <rc><c>C </c><c>   2</c></rc>
    <rc><c>C </c><c>   2</c></rc>
    <rc><c>C </c><c>   2</c></rc>
    <rc><c>C </c><c>   2</c></rc>
    <rc><c>C </c><c>   2</c></rc>
    <rc><c>C </c><c>   2</c></rc>
    <rc><c>C </c><c>   2</c></rc>
    <rc><c>C </c><c>   2</c></rc>
    <rc><c>C </c><c>   2</c></rc>
    <rc><c>C </c><c>   2</c></rc>
    <rc><c>C </c><c>   2</c></rc>
    <rc><c>C </c><c>   2</c></rc>
    <rc><c>C </c><c>   2</c></rc>
    <rc><c>C </c><c>   2</c></rc>
    <rc><c>N </c><c>   3</c></rc>
    <rc><c>N </c><c>   3</c></rc>
    <rc><c>N </c><c>   3</c></rc>
    <rc><c>N </c><c>   3</c></rc>
    <rc><c>N </c><c>   3</c></rc>
    <rc><c>N </c><c>   3</c></rc>
    <rc><c>N </c><c>   3</c></rc>
    <rc><c>N </c><c>   3</c></rc>
    <rc><c>N </c><c>   3</c></rc>
    <rc><c>N </c><c>   3</c></rc>
    <rc><c>N </c><c>   3</c></rc>
    <rc><c>N </c><c>   3</c></rc>
    <rc><c>N </c><c>   3</c></rc>
    <rc><c>N </c><c>   3</c></rc>
    <rc><c>N </c><c>   3</c></rc>
    <rc><c>N </c><c>   3</c></rc>
    <rc><c>N </c><c>   3</c></rc>
    <rc><c>N </c><c>   3</c></rc>
    <rc><c>N </c><c>   3</c></rc>
    <rc><c>N </c><c>   3</c></rc>
    <rc><c>N </c><c>   3</c></rc>
    <rc><c>N </c><c>   3</c></rc>
    <rc><c>N </c><c>   3</c></rc>
    <rc><c>N </c><c>   3</c></rc>
    <rc><c>N </c><c>   3</c></rc>
    <rc><c>N </c><c>   3</c></rc>
    <rc><c>N </c><c>   3</c></rc>
    <rc><c>N </c><c>   3</c></rc>
    <rc><c>N </c><c>   3</c></rc>
    <rc><c>N </c><c>   3</c></rc>
    <rc><c>N </c><c>   3</c></rc>
    <rc><c>N </c><c>   3</c></rc>
    <rc><c>N </c><c>   3</c></rc>
    <rc><c>N </c><c>   3</c></rc>
    <rc><c>N </c><c>   3</c></rc>
    <rc><c>N </c><c>   3</c></rc>
    <rc><c>N </c><c>   3</c></rc>
    <rc><c>N </c><c>   3</c></rc>
    <rc><c>N </c><c>   3</c></rc>
    <rc><c>N </c><c>   3</c></rc>
    <rc><c>N </c><c>   3</c></rc>
    <rc><c>N </c><c>   3</c></rc>
    <rc><c>N </c><c>   3</c></rc>
    <rc><c>N </c><c>   3</c></rc>
    <rc><c>N </c><c>   3</c></rc>
    <rc><c>N </c><c>   3</c></rc>
    <rc><c>N </c><c>   3</c></rc>
    <rc><c>I </c><c>   4</c></rc>
    <rc><c>I </c><c>   4</c></rc>
    <rc><c>I </c><c>   4</c></rc>
    <rc><c>I </c><c>   4</c></rc>
    <rc><c>I </c><c>   4</c></rc>
    <rc><c>I </c><c>   4</c></rc>
    <rc><c>I </c><c>   4</c></rc>
    <rc><c>I </c><c>   4</c></rc>
    <rc><c>I </c><c>   4</c></rc>
    <rc><c>I </c><c>   4</c></rc>
    <rc><c>I </c><c>   4</c></rc>
    <rc><c>I </c><c>   4</c></rc>
    <rc><c>I </c><c>   4</c></rc>
    <rc><c>I </c><c>   4</c></rc>
    <rc><c>I </c><c>   4</c></rc>
    <rc><c>I </c><c>   4</c></rc>
    <rc><c>I </c><c>   4</c></rc>
    <rc><c>I </c><c>   4</c></rc>
    <rc><c>I </c><c>   4</c></rc>
    <rc><c>I </c><c>   4</c></rc>
    <rc><c>I </c><c>   4</c></rc>
    <rc><c>I </c><c>   4</c></rc>
    <rc><c>I </c><c>   4</c></rc>
    <rc><c>I </c><c>   4</c></rc>
    <rc><c>I </c><c>   4</c></rc>
    <rc><c>I </c><c>   4</c></rc>
    <rc><c>I </c><c>   4</c></rc>
    <rc><c>I </c><c>   4</c></rc>
    <rc><c>I </c><c>   4</c></rc>
    <rc><c>I </c><c>   4</c></rc>
    <rc><c>I </c><c>   4</c></rc>
    <rc><c>I </c><c>   4</c></rc>
    <rc><c>I </c><c>   4</c></rc>
    <rc><c>I </c><c>   4</c></rc>
    <rc><c>I </c><c>   4</c></rc>
    <rc><c>I </c><c>   4</c></rc>
    <rc><c>I </c><c>   4</c></rc>
    <rc><c>I </c><c>   4</c></rc>
    <rc><c>I </c><c>   4</c></rc>
    <rc><c>I </c><c>   4</c></rc>
    <rc><c>I </c><c>   4</c></rc>
    <rc><c>I </c><c>   4</c></rc>
    <rc><c>I </c><c>   4</c></rc>
    <rc><c>I </c><c>   4</c></rc>
    <rc><c>I </c><c>   4</c></rc>
    <rc><c>I </c><c>   4</c></rc>
    <rc><c>I </c><c>   4</c></rc>
    <rc><c>I </c><c>   4</c></rc>
    <rc><c>I </c><c>   4</c></rc>
    <rc><c>I </c><c>   4</c></rc>
    <rc><c>I </c><c>   4</c></rc>
    <rc><c>I </c><c>   4</c></rc>
    <rc><c>I </c><c>   4</c></rc>
    <rc><c>I </c><c>   4</c></rc>
    <rc><c>I </c><c>   4</c></rc>
    <rc><c>I </c><c>   4</c></rc>
    <rc><c>I </c><c>   4</c></rc>
    <rc><c>I </c><c>   4</c></rc>
    <rc><c>I </c><c>   4</c></rc>
    <rc><c>I </c><c>   4</c></rc>
    <rc><c>I </c><c>   4</c></rc>
    <rc><c>I </c><c>   4</c></rc>
    <rc><c>I </c><c>   4</c></rc>
    <rc><c>I </c><c>   4</c></rc>
    <rc><c>I </c><c>   4</c></rc>
    <rc><c>I </c><c>   4</c></rc>
    <rc><c>I </c><c>   4</c></rc>
    <rc><c>I </c><c>   4</c></rc>
    <rc><c>I </c><c>   4</c></rc>
    <rc><c>I </c><c>   4</c></rc>
    <rc><c>I </c><c>   4</c></rc>
    <rc><c>I </c><c>   4</c></rc>
    <rc><c>Pb</c><c>   5</c></rc>
    <rc><c>Pb</c><c>   5</c></rc>
    <rc><c>Pb</c><c>   5</c></rc>
    <rc><c>Pb</c><c>   5</c></rc>
    <rc><c>Pb</c><c>   5</c></rc>
    <rc><c>Pb</c><c>   5</c></rc>
    <rc><c>Pb</c><c>   5</c></rc>
    <rc><c>Pb</c><c>   5</c></rc>
    <rc><c>Pb</c><c>   5</c></rc>
    <rc><c>Pb</c><c>   5</c></rc>
    <rc><c>Pb</c><c>   5</c></rc>
    <rc><c>Pb</c><c>   5</c></rc>
    <rc><c>Pb</c><c>   5</c></rc>
    <rc><c>Pb</c><c>   5</c></rc>
    <rc><c>Pb</c><c>   5</c></rc>
    <rc><c>Pb</c><c>   5</c></rc>
    <rc><c>Pb</c><c>   5</c></rc>
    <rc><c>Pb</c><c>   5</c></rc>
    <rc><c>Pb</c><c>   5</c></rc>
    <rc><c>Pb</c><c>   5</c></rc>
    <rc><c>Pb</c><c>   5</c></rc>
    <rc><c>Pb</c><c>   5</c></rc>
    <rc><c>Pb</c><c>   5</c></rc>
    <rc><c>Pb</c><c>   5</c></rc>
   </set>
  </array>
  <array name="atomtypes" >
   <dimension dim="1">type</dimension>
   <field type="int">atomspertype</field>
   <field type="string">element</field>
   <field>mass</field>
   <field>valence</field>
   <field type="string">pseudopotential</field>
   <set>
    <rc><c> 143</c><c>H </c><c>      1.00000000</c><c>      1.00000000</c><c>  PAW_PBE H 15Jun2001                   </c></rc>
    <rc><c>  39</c><c>C </c><c>     12.01100000</c><c>      4.00000000</c><c>  PAW_PBE C 08Apr2002                   </c></rc>
    <rc><c>  47</c><c>N </c><c>     14.00100000</c><c>      5.00000000</c><c>  PAW_PBE N 08Apr2002                   </c></rc>
    <rc><c>  72</c><c>I </c><c>    126.90400000</c><c>      7.00000000</c><c>  PAW_PBE I 08Apr2002                   </c></rc>
    <rc><c>  24</c><c>Pb</c><c>    207.20000000</c><c>      4.00000000</c><c>  PAW_PBE Pb 08Apr2002                  </c></rc>
   </set>
  </array>
 </atominfo>
 <structure name="initialpos" >
  <crystal>
   <varray name="basis" >
    <v>      18.06080055       0.00000000       0.00000000 </v>
    <v>      -0.00491865      18.06279945       0.00000000 </v>
    <v>       0.00000000       0.00000000      62.48749924 </v>
   </varray>
   <i name="volume">  20385.21054034 </i>
   <varray name="rec_basis" >
    <v>       0.05536853       0.00001508      -0.00000000 </v>
    <v>       0.00000000       0.05536240       0.00000000 </v>
    <v>       0.00000000      -0.00000000       0.01600320 </v>
   </varray>
  </crystal>
  <varray name="positions" >
   <v>       0.40797316       0.28218577       0.56329803 </v>
   <v>       0.41476249       0.69687709       0.57204209 </v>
   <v>       0.92662326       0.29205638       0.58023428 </v>
   <v>       0.92956566       0.81587815       0.57312019 </v>
   <v>       0.32380921       0.09236426       0.56394605 </v>
   <v>       0.32222317       0.57472987       0.56907470 </v>
   <v>       0.80195804       0.10184830       0.56649355 </v>
   <v>       0.11041998       0.24139223       0.56208215 </v>
   <v>       0.07811435       0.68077675       0.56953890 </v>
   <v>       0.58696159       0.18751699       0.56490651 </v>
   <v>       0.59979176       0.75724509       0.55882326 </v>
   <v>       0.37791132       0.01837501       0.55438188 </v>
   <v>       0.25403146       0.62261738       0.55471147 </v>
   <v>       0.87552271       0.04592534       0.55690686 </v>
   <v>       0.06379168       0.28822379       0.58233376 </v>
   <v>       0.99262132       0.69483118       0.58181797 </v>
   <v>       0.49277906       0.17276108       0.57077298 </v>
   <v>       0.55134512       0.69221474       0.57398101 </v>
   <v>       0.30847681       0.43818912       0.57233151 </v>
   <v>       0.18915090       0.06845618       0.56926926 </v>
   <v>       0.68183982       0.03388913       0.57331285 </v>
   <v>       0.45382887       0.36440916       0.55608339 </v>
   <v>       0.37474665       0.76341492       0.55519582 </v>
   <v>       0.88514081       0.24289161       0.55954264 </v>
   <v>       0.97662436       0.87312379       0.55545582 </v>
   <v>       0.23486883       0.39786815       0.55864311 </v>
   <v>       0.15492610       0.98533208       0.55970051 </v>
   <v>       0.67971549       0.94121363       0.56477800 </v>
   <v>       0.57036413       0.30799986       0.55493301 </v>
   <v>       0.49218989       0.81048729       0.54501074 </v>
   <v>       0.00014598       0.20331355       0.54520921 </v>
   <v>       0.07223092       0.78951752       0.54989075 </v>
   <v>       0.18990326       0.51255170       0.54637918 </v>
   <v>       0.27247167       0.94176233       0.54982591 </v>
   <v>       0.80116330       0.94132997       0.55387561 </v>
   <v>       0.45384007       0.29503612       0.67284454 </v>
   <v>       0.44174521       0.81338552       0.67082527 </v>
   <v>       0.95899390       0.28332755       0.67729251 </v>
   <v>       0.91373514       0.73894186       0.66610198 </v>
   <v>       0.29806504       0.04249097       0.67478487 </v>
   <v>       0.30188504       0.56019978       0.67345916 </v>
   <v>       0.79780638       0.05323351       0.67516446 </v>
   <v>       0.83194004       0.48529135       0.66761992 </v>
   <v>       0.09108080       0.17115070       0.64686986 </v>
   <v>       0.10700210       0.69971238       0.65359667 </v>
   <v>       0.57780526       0.16355914       0.64673824 </v>
   <v>       0.57525827       0.67459234       0.65161434 </v>
   <v>       0.18625175       0.41151279       0.65125935 </v>
   <v>       0.16289018       0.92964616       0.64557505 </v>
   <v>       0.63690427       0.47342375       0.65269140 </v>
   <v>       0.67355407       0.91801750       0.65006392 </v>
   <v>       0.06379911       0.18872444       0.67305839 </v>
   <v>       0.02669156       0.65675448       0.66268449 </v>
   <v>       0.54498492       0.18747144       0.67198865 </v>
   <v>       0.54342496       0.71353730       0.67549308 </v>
   <v>       0.21560560       0.44654122       0.67589001 </v>
   <v>       0.18569973       0.95422704       0.67184464 </v>
   <v>       0.70029377       0.43545544       0.67054037 </v>
   <v>       0.69827240       0.95034057       0.67541036 </v>
   <v>       0.43769006       0.33780123       0.64832267 </v>
   <v>       0.41645539       0.82944014       0.64426234 </v>
   <v>       0.92632221       0.31998433       0.65321628 </v>
   <v>       0.92621277       0.83043189       0.65824616 </v>
   <v>       0.34148334       0.06228549       0.65082677 </v>
   <v>       0.31976724       0.58981650       0.64742209 </v>
   <v>       0.82804956       0.07903075       0.64967700 </v>
   <v>       0.84495102       0.55421939       0.64847083 </v>
   <v>       0.00617300       0.25245066       0.63230958 </v>
   <v>       0.04921399       0.81345384       0.64838878 </v>
   <v>       0.51338188       0.25704086       0.62952466 </v>
   <v>       0.49810982       0.74426239       0.63032633 </v>
   <v>       0.25876567       0.99416047       0.63051600 </v>
   <v>       0.24891387       0.49853560       0.63156779 </v>
   <v>       0.75315127       0.99527375       0.63221599 </v>
   <v>       0.72302256       0.55113542       0.63689380 </v>
   <v>       0.44874502       0.30128397       0.76888902 </v>
   <v>       0.44874501       0.80128391       0.76888902 </v>
   <v>       0.94874497       0.30128397       0.76888902 </v>
   <v>       0.94874501       0.80128391       0.76888902 </v>
   <v>       0.30127600       0.05129450       0.76887296 </v>
   <v>       0.30127601       0.55129450       0.76887296 </v>
   <v>       0.80127594       0.05129450       0.76887296 </v>
   <v>       0.80127598       0.55129450       0.76887296 </v>
   <v>       0.07877100       0.17118050       0.74344197 </v>
   <v>       0.07877101       0.67118045       0.74344197 </v>
   <v>       0.57877100       0.17118050       0.74344197 </v>
   <v>       0.57877099       0.67118045       0.74344197 </v>
   <v>       0.17119950       0.42117448       0.74342103 </v>
   <v>       0.17119950       0.92117451       0.74342103 </v>
   <v>       0.67119951       0.42117448       0.74342103 </v>
   <v>       0.67119950       0.92117451       0.74342103 </v>
   <v>       0.05125600       0.19871499       0.76888902 </v>
   <v>       0.05125600       0.69871493       0.76888902 </v>
   <v>       0.55125603       0.19871499       0.76888902 </v>
   <v>       0.55125602       0.69871493       0.76888902 </v>
   <v>       0.19872349       0.44870397       0.76887205 </v>
   <v>       0.19872349       0.94870397       0.76887205 </v>
   <v>       0.69872352       0.44870397       0.76887205 </v>
   <v>       0.69872351       0.94870397       0.76887205 </v>
   <v>       0.42123152       0.32881747       0.74344197 </v>
   <v>       0.42123151       0.82881744       0.74344197 </v>
   <v>       0.92123147       0.32881747       0.74344197 </v>
   <v>       0.92123151       0.82881744       0.74344197 </v>
   <v>       0.32880050       0.07882500       0.74342103 </v>
   <v>       0.32880049       0.57882496       0.74342103 </v>
   <v>       0.82880048       0.07882500       0.74342103 </v>
   <v>       0.82880052       0.57882496       0.74342103 </v>
   <v>       0.00000350       0.25000148       0.72582199 </v>
   <v>       0.00000350       0.75000145       0.72582199 </v>
   <v>       0.50000351       0.25000148       0.72582199 </v>
   <v>       0.50000350       0.75000145       0.72582199 </v>
   <v>       0.25000050       0.00000000       0.72580398 </v>
   <v>       0.25000052       0.50000000       0.72580398 </v>
   <v>       0.75000050       0.00000000       0.72580398 </v>
   <v>       0.75000049       0.50000000       0.72580398 </v>
   <v>       0.79960436       0.50836162       0.51419592 </v>
   <v>       0.87844035       0.50070775       0.53099567 </v>
   <v>       0.75986566       0.61976879       0.53200393 </v>
   <v>       0.75807936       0.62286765       0.56019505 </v>
   <v>       0.68701833       0.44495222       0.55011784 </v>
   <v>       0.66914491       0.53746293       0.55763772 </v>
   <v>       0.79636924       0.42419768       0.56646596 </v>
   <v>       0.86511021       0.49474747       0.56899949 </v>
   <v>       0.85722453       0.37434720       0.53912413 </v>
   <v>       0.76298238       0.37661797       0.53242400 </v>
   <v>       0.78393987       0.38270615       0.49515333 </v>
   <v>       0.87679234       0.40877692       0.49768453 </v>
   <v>       0.89736241       0.61826759       0.53132209 </v>
   <v>       0.90094017       0.60549789       0.55956614 </v>
   <v>       0.86535912       0.68880860       0.54876436 </v>
   <v>       0.60026253       0.51072163       0.52552497 </v>
   <v>       0.68035612       0.48380198       0.51078457 </v>
   <v>       0.66655727       0.57797703       0.51891421 </v>
   <v>       0.70651657       0.50393184       0.58738341 </v>
   <v>       0.77708836       0.57200128       0.59083442 </v>
   <v>       0.78730095       0.48208152       0.60149927 </v>
   <v>       0.82101073       0.25737082       0.51246200 </v>
   <v>       0.84664943       0.27400176       0.48594806 </v>
   <v>       0.92451191       0.15965086       0.49857723 </v>
   <v>       0.97333363       0.38448541       0.51754480 </v>
   <v>       0.05581578       0.12644049       0.50377920 </v>
   <v>       0.10275041       0.35128437       0.52248127 </v>
   <v>       0.14701720       0.22252299       0.51552560 </v>
   <v>       0.99800909       0.23807524       0.55960625 </v>
   <v>       0.02633980       0.77486658       0.56051177 </v>
   <v>       0.52157754       0.27534018       0.55909901 </v>
   <v>       0.48829842       0.76257037       0.55564300 </v>
   <v>       0.24128800       0.51024270       0.55564709 </v>
   <v>       0.26698209       0.99774685       0.55619779 </v>
   <v>       0.77761724       0.99266733       0.56005855 </v>
   <v>       0.00855566       0.24549216       0.64963427 </v>
   <v>       0.01774886       0.76658041       0.65504447 </v>
   <v>       0.50776924       0.25067037       0.64695569 </v>
   <v>       0.49591645       0.75194013       0.64775981 </v>
   <v>       0.25300440       0.50018400       0.64904315 </v>
   <v>       0.25158801       0.99609874       0.64783661 </v>
   <v>       0.74049830       0.51443384       0.64992876 </v>
   <v>       0.75088257       0.99781079       0.64970917 </v>
   <v>       0.49998898       0.24999498       0.74327702 </v>
   <v>       0.49998903       0.74999496       0.74327702 </v>
   <v>       0.99998898       0.24999498       0.74327702 </v>
   <v>       0.99998903       0.74999496       0.74327702 </v>
   <v>       0.25000050       0.00000100       0.74325596 </v>
   <v>       0.25000052       0.50000100       0.74325596 </v>
   <v>       0.75000050       0.00000100       0.74325596 </v>
   <v>       0.75000049       0.50000100       0.74325596 </v>
   <v>       0.93837283       0.27437390       0.50720060 </v>
   <v>       0.96357177       0.20235757       0.50373836 </v>
   <v>       0.99025594       0.32763905       0.51395967 </v>
   <v>       0.03818529       0.18333918       0.50637200 </v>
   <v>       0.06447483       0.30870212       0.51684312 </v>
   <v>       0.08924320       0.23666420       0.51277303 </v>
   <v>       0.82071345       0.48266725       0.52891969 </v>
   <v>       0.78887562       0.60140374       0.54644206 </v>
   <v>       0.69499058       0.50303677       0.54528008 </v>
   <v>       0.80511574       0.48436433       0.56822028 </v>
   <v>       0.81738175       0.39848744       0.52781461 </v>
   <v>       0.83384013       0.37364005       0.50481615 </v>
   <v>       0.86835050       0.62872534       0.54642002 </v>
   <v>       0.66012375       0.51965072       0.52372078 </v>
   <v>       0.76593201       0.51339684       0.58777485 </v>
   <v>       0.85746393       0.29210123       0.50253179 </v>
   <v>       0.06084179       0.25618314       0.56867850 </v>
   <v>       0.03074464       0.71112291       0.57043050 </v>
   <v>       0.53338878       0.20529386       0.56403591 </v>
   <v>       0.54991260       0.73327704       0.56258866 </v>
   <v>       0.45624734       0.30804762       0.55856570 </v>
   <v>       0.42182177       0.73805687       0.56075431 </v>
   <v>       0.93300075       0.25942603       0.56674745 </v>
   <v>       0.97002164       0.82095259       0.56169609 </v>
   <v>       0.26362586       0.44490554       0.56236419 </v>
   <v>       0.20008349       0.01910409       0.56156166 </v>
   <v>       0.70762512       0.99067077       0.56566954 </v>
   <v>       0.32604657       0.03950923       0.55777178 </v>
   <v>       0.27607711       0.57247161       0.55953538 </v>
   <v>       0.82076245       0.05088463       0.56140532 </v>
   <v>       0.05714007       0.19860780       0.65719150 </v>
   <v>       0.05197414       0.70351413       0.65728106 </v>
   <v>       0.54551227       0.19717421       0.65596299 </v>
   <v>       0.54044378       0.71065745       0.65938622 </v>
   <v>       0.21641171       0.44994540       0.65969738 </v>
   <v>       0.19664780       0.95830344       0.65588564 </v>
   <v>       0.69004343       0.47090266       0.65820306 </v>
   <v>       0.70541769       0.95255611       0.65930478 </v>
   <v>       0.46372949       0.29735048       0.65690757 </v>
   <v>       0.44829973       0.80094332       0.65501889 </v>
   <v>       0.96208922       0.28491581       0.66103102 </v>
   <v>       0.94790943       0.77874785       0.65994212 </v>
   <v>       0.29903999       0.03611629       0.65863491 </v>
   <v>       0.29404288       0.55325113       0.65746951 </v>
   <v>       0.79448769       0.04667703       0.65905827 </v>
   <v>       0.81000825       0.51787567       0.65586311 </v>
   <v>       0.04586250       0.20411950       0.75272599 </v>
   <v>       0.04586250       0.70411946       0.75272599 </v>
   <v>       0.54586251       0.20411950       0.75272599 </v>
   <v>       0.54586250       0.70411946       0.75272599 </v>
   <v>       0.20411900       0.45410100       0.75270499 </v>
   <v>       0.20411899       0.95410095       0.75270499 </v>
   <v>       0.70411898       0.45410100       0.75270499 </v>
   <v>       0.70411896       0.95410095       0.75270499 </v>
   <v>       0.45414002       0.29588849       0.75272697 </v>
   <v>       0.45414001       0.79588852       0.75272697 </v>
   <v>       0.95414002       0.29588849       0.75272697 </v>
[...]
   <v>       0.58696159       0.18751699       0.56490651 </v>
   <v>       0.59979176       0.75724509       0.55882326 </v>
   <v>       0.37791132       0.01837501       0.55438188 </v>
   <v>       0.25403146       0.62261738       0.55471147 </v>
   <v>       0.87552271       0.04592534       0.55690686 </v>
   <v>       0.06379168       0.28822379       0.58233376 </v>
   <v>       0.99262132       0.69483118       0.58181797 </v>
   <v>       0.49277906       0.17276108       0.57077298 </v>
   <v>       0.55134512       0.69221474       0.57398101 </v>
   <v>       0.30847681       0.43818912       0.57233151 </v>
   <v>       0.18915090       0.06845618       0.56926926 </v>
   <v>       0.68183982       0.03388913       0.57331285 </v>
   <v>       0.45382887       0.36440916       0.55608339 </v>
   <v>       0.37474665       0.76341492       0.55519582 </v>
   <v>       0.88514081       0.24289161       0.55954264 </v>
   <v>       0.97662436       0.87312379       0.55545582 </v>
   <v>       0.23486883       0.39786815       0.55864311 </v>
   <v>       0.15492610       0.98533208       0.55970051 </v>
   <v>       0.67971549       0.94121363       0.56477800 </v>
   <v>       0.57036413       0.30799986       0.55493301 </v>
   <v>       0.49218989       0.81048729       0.54501074 </v>
   <v>       0.00014598       0.20331355       0.54520921 </v>
   <v>       0.07223092       0.78951752       0.54989075 </v>
   <v>       0.18990326       0.51255170       0.54637918 </v>
   <v>       0.27247167       0.94176233       0.54982591 </v>
   <v>       0.80116330       0.94132997       0.55387561 </v>
   <v>       0.45384007       0.29503612       0.67284454 </v>
   <v>       0.44174521       0.81338552       0.67082527 </v>
   <v>       0.95899390       0.28332755       0.67729251 </v>
   <v>       0.91373514       0.73894186       0.66610198 </v>
   <v>       0.29806504       0.04249097       0.67478487 </v>
   <v>       0.30188504       0.56019978       0.67345916 </v>
   <v>       0.79780638       0.05323351       0.67516446 </v>
   <v>       0.83194004       0.48529135       0.66761992 </v>
   <v>       0.09108080       0.17115070       0.64686986 </v>
   <v>       0.10700210       0.69971238       0.65359667 </v>
   <v>       0.57780526       0.16355914       0.64673824 </v>
   <v>       0.57525827       0.67459234       0.65161434 </v>
   <v>       0.18625175       0.41151279       0.65125935 </v>
   <v>       0.16289018       0.92964616       0.64557505 </v>
   <v>       0.63690427       0.47342375       0.65269140 </v>
   <v>       0.67355407       0.91801750       0.65006392 </v>
   <v>       0.06379911       0.18872444       0.67305839 </v>
   <v>       0.02669156       0.65675448       0.66268449 </v>
   <v>       0.54498492       0.18747144       0.67198865 </v>
   <v>       0.54342496       0.71353730       0.67549308 </v>
   <v>       0.21560560       0.44654122       0.67589001 </v>
   <v>       0.18569973       0.95422704       0.67184464 </v>
   <v>       0.70029377       0.43545544       0.67054037 </v>
   <v>       0.69827240       0.95034057       0.67541036 </v>
   <v>       0.43769006       0.33780123       0.64832267 </v>
   <v>       0.41645539       0.82944014       0.64426234 </v>
   <v>       0.92632221       0.31998433       0.65321628 </v>
   <v>       0.92621277       0.83043189       0.65824616 </v>
   <v>       0.34148334       0.06228549       0.65082677 </v>
   <v>       0.31976724       0.58981650       0.64742209 </v>
   <v>       0.82804956       0.07903075       0.64967700 </v>
   <v>       0.84495102       0.55421939       0.64847083 </v>
   <v>       0.00617300       0.25245066       0.63230958 </v>
   <v>       0.04921399       0.81345384       0.64838878 </v>
   <v>       0.51338188       0.25704086       0.62952466 </v>
   <v>       0.49810982       0.74426239       0.63032633 </v>
   <v>       0.25876567       0.99416047       0.63051600 </v>
   <v>       0.24891387       0.49853560       0.63156779 </v>
   <v>       0.75315127       0.99527375       0.63221599 </v>
   <v>       0.72302256       0.55113542       0.63689380 </v>
   <v>       0.44874502       0.30128397       0.76888902 </v>
   <v>       0.44874501       0.80128391       0.76888902 </v>
   <v>       0.94874497       0.30128397       0.76888902 </v>
   <v>       0.94874501       0.80128391       0.76888902 </v>
   <v>       0.30127600       0.05129450       0.76887296 </v>
   <v>       0.30127601       0.55129450       0.76887296 </v>
   <v>       0.80127594       0.05129450       0.76887296 </v>
   <v>       0.80127598       0.55129450       0.76887296 </v>
   <v>       0.07877100       0.17118050       0.74344197 </v>
   <v>       0.07877101       0.67118045       0.74344197 </v>
   <v>       0.57877100       0.17118050       0.74344197 </v>
   <v>       0.57877099       0.67118045       0.74344197 </v>
   <v>       0.17119950       0.42117448       0.74342103 </v>
   <v>       0.17119950       0.92117451       0.74342103 </v>
   <v>       0.67119951       0.42117448       0.74342103 </v>
   <v>       0.67119950       0.92117451       0.74342103 </v>
   <v>       0.05125600       0.19871499       0.76888902 </v>
   <v>       0.05125600       0.69871493       0.76888902 </v>
   <v>       0.55125603       0.19871499       0.76888902 </v>
   <v>       0.55125602       0.69871493       0.76888902 </v>
   <v>       0.19872349       0.44870397       0.76887205 </v>
   <v>       0.19872349       0.94870397       0.76887205 </v>
   <v>       0.69872352       0.44870397       0.76887205 </v>
   <v>       0.69872351       0.94870397       0.76887205 </v>
   <v>       0.42123152       0.32881747       0.74344197 </v>
   <v>       0.42123151       0.82881744       0.74344197 </v>
   <v>       0.92123147       0.32881747       0.74344197 </v>
   <v>       0.92123151       0.82881744       0.74344197 </v>
   <v>       0.32880050       0.07882500       0.74342103 </v>
   <v>       0.32880049       0.57882496       0.74342103 </v>
   <v>       0.82880048       0.07882500       0.74342103 </v>
   <v>       0.82880052       0.57882496       0.74342103 </v>
   <v>       0.00000350       0.25000148       0.72582199 </v>
   <v>       0.00000350       0.75000145       0.72582199 </v>
   <v>       0.50000351       0.25000148       0.72582199 </v>
   <v>       0.50000350       0.75000145       0.72582199 </v>
   <v>       0.25000050       0.00000000       0.72580398 </v>
   <v>       0.25000052       0.50000000       0.72580398 </v>
   <v>       0.75000050       0.00000000       0.72580398 </v>
   <v>       0.75000049       0.50000000       0.72580398 </v>
   <v>       0.79960436       0.50836162       0.51419592 </v>
   <v>       0.87844035       0.50070775       0.53099567 </v>
   <v>       0.75986566       0.61976879       0.53200393 </v>
   <v>       0.75807936       0.62286765       0.56019505 </v>
   <v>       0.68701833       0.44495222       0.55011784 </v>
   <v>       0.66914491       0.53746293       0.55763772 </v>
   <v>       0.79636924       0.42419768       0.56646596 </v>
   <v>       0.86511021       0.49474747       0.56899949 </v>
   <v>       0.85722453       0.37434720       0.53912413 </v>
   <v>       0.76298238       0.37661797       0.53242400 </v>
   <v>       0.78393987       0.38270615       0.49515333 </v>
   <v>       0.87679234       0.40877692       0.49768453 </v>
   <v>       0.89736241       0.61826759       0.53132209 </v>
   <v>       0.90094017       0.60549789       0.55956614 </v>
   <v>       0.86535912       0.68880860       0.54876436 </v>
   <v>       0.60026253       0.51072163       0.52552497 </v>
   <v>       0.68035612       0.48380198       0.51078457 </v>
   <v>       0.66655727       0.57797703       0.51891421 </v>
   <v>       0.70651657       0.50393184       0.58738341 </v>
   <v>       0.77708836       0.57200128       0.59083442 </v>
   <v>       0.78730095       0.48208152       0.60149927 </v>
   <v>       0.82101073       0.25737082       0.51246200 </v>
   <v>       0.84664943       0.27400176       0.48594806 </v>
   <v>       0.92451191       0.15965086       0.49857723 </v>
   <v>       0.97333363       0.38448541       0.51754480 </v>
   <v>       0.05581578       0.12644049       0.50377920 </v>
   <v>       0.10275041       0.35128437       0.52248127 </v>
   <v>       0.14701720       0.22252299       0.51552560 </v>
   <v>       0.99800909       0.23807524       0.55960625 </v>
   <v>       0.02633980       0.77486658       0.56051177 </v>
   <v>       0.52157754       0.27534018       0.55909901 </v>
   <v>       0.48829842       0.76257037       0.55564300 </v>
   <v>       0.24128800       0.51024270       0.55564709 </v>
   <v>       0.26698209       0.99774685       0.55619779 </v>
   <v>       0.77761724       0.99266733       0.56005855 </v>
   <v>       0.00855566       0.24549216       0.64963427 </v>
   <v>       0.01774886       0.76658041       0.65504447 </v>
   <v>       0.50776924       0.25067037       0.64695569 </v>
   <v>       0.49591645       0.75194013       0.64775981 </v>
   <v>       0.25300440       0.50018400       0.64904315 </v>
   <v>       0.25158801       0.99609874       0.64783661 </v>
   <v>       0.74049830       0.51443384       0.64992876 </v>
   <v>       0.75088257       0.99781079       0.64970917 </v>
   <v>       0.49998898       0.24999498       0.74327702 </v>
   <v>       0.49998903       0.74999496       0.74327702 </v>
   <v>       0.99998898       0.24999498       0.74327702 </v>
   <v>       0.99998903       0.74999496       0.74327702 </v>
   <v>       0.25000050       0.00000100       0.74325596 </v>
   <v>       0.25000052       0.50000100       0.74325596 </v>
   <v>       0.75000050       0.00000100       0.74325596 </v>
   <v>       0.75000049       0.50000100       0.74325596 </v>
   <v>       0.93837283       0.27437390       0.50720060 </v>
   <v>       0.96357177       0.20235757       0.50373836 </v>
   <v>       0.99025594       0.32763905       0.51395967 </v>
   <v>       0.03818529       0.18333918       0.50637200 </v>
   <v>       0.06447483       0.30870212       0.51684312 </v>
   <v>       0.08924320       0.23666420       0.51277303 </v>
   <v>       0.82071345       0.48266725       0.52891969 </v>
   <v>       0.78887562       0.60140374       0.54644206 </v>
   <v>       0.69499058       0.50303677       0.54528008 </v>
   <v>       0.80511574       0.48436433       0.56822028 </v>
   <v>       0.81738175       0.39848744       0.52781461 </v>
   <v>       0.83384013       0.37364005       0.50481615 </v>
   <v>       0.86835050       0.62872534       0.54642002 </v>
   <v>       0.66012375       0.51965072       0.52372078 </v>
   <v>       0.76593201       0.51339684       0.58777485 </v>
   <v>       0.85746393       0.29210123       0.50253179 </v>
   <v>       0.06084179       0.25618314       0.56867850 </v>
   <v>       0.03074464       0.71112291       0.57043050 </v>
   <v>       0.53338878       0.20529386       0.56403591 </v>
   <v>       0.54991260       0.73327704       0.56258866 </v>
   <v>       0.45624734       0.30804762       0.55856570 </v>
   <v>       0.42182177       0.73805687       0.56075431 </v>
   <v>       0.93300075       0.25942603       0.56674745 </v>
   <v>       0.97002164       0.82095259       0.56169609 </v>
   <v>       0.26362586       0.44490554       0.56236419 </v>
   <v>       0.20008349       0.01910409       0.56156166 </v>
   <v>       0.70762512       0.99067077       0.56566954 </v>
   <v>       0.32604657       0.03950923       0.55777178 </v>
   <v>       0.27607711       0.57247161       0.55953538 </v>
   <v>       0.82076245       0.05088463       0.56140532 </v>
   <v>       0.05714007       0.19860780       0.65719150 </v>
   <v>       0.05197414       0.70351413       0.65728106 </v>
   <v>       0.54551227       0.19717421       0.65596299 </v>
   <v>       0.54044378       0.71065745       0.65938622 </v>
   <v>       0.21641171       0.44994540       0.65969738 </v>
   <v>       0.19664780       0.95830344       0.65588564 </v>
   <v>       0.69004343       0.47090266       0.65820306 </v>
   <v>       0.70541769       0.95255611       0.65930478 </v>
   <v>       0.46372949       0.29735048       0.65690757 </v>
   <v>       0.44829973       0.80094332       0.65501889 </v>
   <v>       0.96208922       0.28491581       0.66103102 </v>
   <v>       0.94790943       0.77874785       0.65994212 </v>
   <v>       0.29903999       0.03611629       0.65863491 </v>
   <v>       0.29404288       0.55325113       0.65746951 </v>
   <v>       0.79448769       0.04667703       0.65905827 </v>
   <v>       0.81000825       0.51787567       0.65586311 </v>
   <v>       0.04586250       0.20411950       0.75272599 </v>
   <v>       0.04586250       0.70411946       0.75272599 </v>
   <v>       0.54586251       0.20411950       0.75272599 </v>
   <v>       0.54586250       0.70411946       0.75272599 </v>
   <v>       0.20411900       0.45410100       0.75270499 </v>
   <v>       0.20411899       0.95410095       0.75270499 </v>
   <v>       0.70411898       0.45410100       0.75270499 </v>
   <v>       0.70411896       0.95410095       0.75270499 </v>
   <v>       0.45414002       0.29588849       0.75272697 </v>
   <v>       0.45414001       0.79588852       0.75272697 </v>
   <v>       0.95414002       0.29588849       0.75272697 </v>
   <v>       0.95414006       0.79588852       0.75272697 </v>
   <v>       0.29588249       0.04590050       0.75270499 </v>
   <v>       0.29588248       0.54590053       0.75270499 </v>
   <v>       0.79588244       0.04590050       0.75270499 </v>
   <v>       0.79588248       0.54590053       0.75270499 </v>
   <v>       0.77823567       0.51789182       0.54708617 </v>
   <v>       0.51047338       0.97967282       0.55283964 </v>
   <v>       0.47240050       0.50882730       0.55322967 </v>
   <v>       0.00826071       0.01271337       0.55110138 </v>
   <v>       0.03208803       0.49018232       0.55445483 </v>
   <v>       0.25707135       0.24102204       0.55466709 </v>
   <v>       0.23023111       0.76651045       0.55094650 </v>
   <v>       0.73508750       0.22833906       0.55475488 </v>
   <v>       0.72947635       0.79573392       0.55423421 </v>
   <v>       0.99606856       0.98359843       0.65420110 </v>
   <v>       0.00812576       0.50408232       0.65522621 </v>
   <v>       0.49737055       0.00137189       0.65446605 </v>
   <v>       0.49467837       0.50125722       0.65410574 </v>
   <v>       0.26332397       0.24050296       0.65535642 </v>
   <v>       0.24579169       0.75444111       0.65371883 </v>
   <v>       0.74383448       0.26217821       0.65532309 </v>
   <v>       0.74943643       0.73535099       0.65498635 </v>
   <v>       0.13598178       0.11764638       0.60905175 </v>
   <v>       0.14715601       0.60846961       0.60614046 </v>
   <v>       0.63955355       0.11169353       0.60885774 </v>
   <v>       0.61823183       0.63050161       0.60774680 </v>
   <v>       0.36770597       0.38477345       0.60825539 </v>
   <v>       0.36451513       0.88597080       0.60557767 </v>
   <v>       0.88740083       0.36512465       0.61184778 </v>
   <v>       0.86276722       0.89110273       0.60576960 </v>
   <v>       0.12636932       0.36943302       0.61108023 </v>
   <v>       0.11571240       0.87254513       0.60572815 </v>
   <v>       0.61578154       0.36798972       0.60167070 </v>
   <v>       0.61548166       0.86333658       0.61202176 </v>
   <v>       0.39641186       0.14002631       0.60378507 </v>
   <v>       0.37903726       0.63301257       0.60753033 </v>
   <v>       0.88208922       0.13345393       0.61242504 </v>
   <v>       0.90226789       0.64784988       0.61031604 </v>
   <v>       0.00000000       0.00000000       0.75492797 </v>
   <v>       0.00000000       0.50000000       0.75492797 </v>
   <v>       0.50000000       0.00000000       0.75492797 </v>
   <v>       0.49999999       0.50000000       0.75492797 </v>
   <v>       0.25000050       0.25000000       0.75493902 </v>
   <v>       0.25000051       0.74999997       0.75493902 </v>
   <v>       0.75000047       0.25000000       0.75493902 </v>
   <v>       0.75000046       0.74999997       0.75493902 </v>
   <v>       0.13579050       0.11421000       0.70478299 </v>
   <v>       0.13579050       0.61420998       0.70478299 </v>
   <v>       0.63579045       0.11421000       0.70478299 </v>
   <v>       0.63579049       0.61420998       0.70478299 </v>
   <v>       0.36420952       0.38578999       0.70478299 </v>
   <v>       0.36420950       0.88578996       0.70478299 </v>
   <v>       0.86420954       0.38578999       0.70478299 </v>
   <v>       0.86420953       0.88578996       0.70478299 </v>
   <v>       0.11421799       0.36421899       0.70478098 </v>
   <v>       0.11421799       0.86421899       0.70478098 </v>
   <v>       0.61421800       0.36421899       0.70478098 </v>
   <v>       0.61421799       0.86421899       0.70478098 </v>
   <v>       0.38578201       0.13578149       0.70478202 </v>
   <v>       0.38578200       0.63578149       0.70478202 </v>
   <v>       0.88578199       0.13578149       0.70478202 </v>
   <v>       0.88578203       0.63578149       0.70478202 </v>
   <v>       0.13466700       0.11533200       0.80125603 </v>
   <v>       0.13466699       0.61533199       0.80125603 </v>
   <v>       0.63466699       0.11533200       0.80125603 </v>
   <v>       0.63466698       0.61533199       0.80125603 </v>
   <v>       0.36533300       0.38466799       0.80125603 </v>
   <v>       0.36533299       0.88466796       0.80125603 </v>
   <v>       0.86533295       0.38466799       0.80125603 </v>
   <v>       0.86533294       0.88466796       0.80125603 </v>
   <v>       0.11532850       0.36533700       0.80126500 </v>
   <v>       0.11532850       0.86533698       0.80126500 </v>
   <v>       0.61532850       0.36533700       0.80126500 </v>
   <v>       0.61532849       0.86533698       0.80126500 </v>
   <v>       0.38467151       0.13466300       0.80126500 </v>
   <v>       0.38467150       0.63466297       0.80126500 </v>
   <v>       0.88467149       0.13466300       0.80126500 </v>
   <v>       0.88467153       0.63466297       0.80126500 </v>
   <v>       0.99779246       0.00650727       0.60419635 </v>
   <v>       0.00959197       0.50158071       0.60390888 </v>
   <v>       0.50159379       0.99388857       0.60313425 </v>
   <v>       0.49944906       0.50028933       0.60261626 </v>
   <v>       0.25543448       0.24871559       0.60590726 </v>
   <v>       0.24459812       0.75667381       0.60315109 </v>
   <v>       0.74808021       0.25114978       0.60576178 </v>
   <v>       0.75046553       0.75769165       0.60492708 </v>
   <v>       0.00000050       0.00000050       0.70482896 </v>
   <v>       0.00000050       0.50000048       0.70482896 </v>
   <v>       0.50000048       0.00000050       0.70482896 </v>
   <v>       0.50000046       0.50000048       0.70482896 </v>
   <v>       0.24999999       0.24999947       0.70482499 </v>
   <v>       0.25000001       0.74999950       0.70482499 </v>
   <v>       0.74999999       0.24999947       0.70482499 </v>
   <v>       0.74999998       0.74999950       0.70482499 </v>
   <v>       0.00000000       0.00000000       0.80731797 </v>
   <v>       0.00000000       0.50000000       0.80731797 </v>
   <v>       0.50000000       0.00000000       0.80731797 </v>
   <v>       0.49999999       0.50000000       0.80731797 </v>
   <v>       0.24999999       0.25000000       0.80731797 </v>
   <v>       0.25000001       0.74999997       0.80731797 </v>
   <v>       0.74999999       0.25000000       0.80731797 </v>
   <v>       0.74999998       0.74999997       0.80731797 </v>
  </varray>
 </structure>
</modeling>
