 vasp.6.2.1 16May21 (build Nov 15 2021 14:57:28) complex                         
 executed on             LinuxPGI date 2023.07.25  01:07:32
 running on    4 total cores
 distrk:  each k-point on    4 cores,    1 groups
 distr:  one band on NCORE=   1 cores,    4 groups


--------------------------------------------------------------------------------------------------------


 INCAR:
   SYSTEM = PSC
   ISTART = 1
   ICHARG = 1
   PREC = Normal
   ENCUT = 500
   GGA_COMPAT = F
   NELM = 600
   ISYM = 0
   LREAL = Auto
   ISMEAR = 0
   SIGMA = 0.05
   AMIN = 0.01
   BMIX = 0.01
   LVTOT = T
   LWAVE = F
   LDIPOL = T
   IDIPOL = 3
   LVDW = T
   IVDW = 12

 POTCAR:    PAW_PBE H 15Jun2001                   
 POTCAR:    PAW_PBE C 08Apr2002                   
 POTCAR:    PAW_PBE N 08Apr2002                   
 POTCAR:    PAW_PBE I 08Apr2002                   
 POTCAR:    PAW_PBE Pb 08Apr2002                  
 WARNING: For LVTOT=.TRUE., VASP.5.x writes the TOTAL local potential to the
     file LOCPOT. If you want only the Hartree contributions, use LVHAR=.TRUE.
     instead. 

 POTCAR:    PAW_PBE H 15Jun2001                   
   SHA256 =  030f79b5d3ab3cf0e668861823c8fb652ff669f3e15e46930bd03bfd63a607b6 H/POTCAR              
   COPYR  = (c) Copyright 15Jun2001 Georg Kresse                                                    
   COPYR  = This file is part of the software VASP. Any use, copying, and all other rights are regul
   COPYR  = If you do not have a valid VASP license, you may not use, copy or distribute this file. 
   VRHFIN =H: ultrasoft test                                                                        
   LEXCH  = PE                                                                                      
   EATOM  =    12.4884 eV,    0.9179 Ry                                                             
                                                                                                    
   TITEL  = PAW_PBE H 15Jun2001                                                                     
   LULTRA =        F    use ultrasoft PP ?                                                          
   IUNSCR =        0    unscreen: 0-lin 1-nonlin 2-no                                               
   RPACOR =    0.000    partial core radius                                                         
   POMASS =    1.000; ZVAL   =    1.000    mass and valenz                                          
   RCORE  =    1.100    outmost cutoff radius                                                       
   RWIGS  =    0.700; RWIGS  =    0.370    wigner-seitz radius (au A)                               
   ENMAX  =  250.000; ENMIN  =  200.000 eV                                                          
   RCLOC  =    0.701    cutoff for local pot                                                        
   LCOR   =        T    correct aug charges                                                         
   LPAW   =        T    paw PP                                                                      
   EAUG   =  400.000                                                                                
   RMAX   =    1.123    core radius for proj-oper                                                   
   RAUG   =    1.200    factor for augmentation sphere                                              
   RDEP   =    1.112    radius for radial grids                                                     
   RDEPT  =    0.926    core radius for aug-charge                                                  
                                                                                                    
   Atomic configuration                                                                             
    2 entries                                                                                       
     n  l   j            E        occ.                                                              
     1  0  0.50        -6.4927   1.0000                                                             
     2  1  0.50        -3.4015   0.0000                                                             
   Description                                                                                      
     l       E           TYP  RCUT    TYP  RCUT                                                     
     0     -6.4927494     23  1.100                                                                 
     0      6.8029130     23  1.100                                                                 
     1     -4.0817478     23  1.100                                                                 
  local pseudopotential read in
  atomic valenz-charges read in
  non local Contribution for L=            0  read in
    real space projection operators read in
  non local Contribution for L=            0  read in
    real space projection operators read in
  non local Contribution for L=            1  read in
    real space projection operators read in
    PAW grid and wavefunctions read in
 
   number of l-projection  operators is LMAX  =            3
   number of lm-projection operators is LMMAX =            5
 
 POTCAR:    PAW_PBE C 08Apr2002                   
   SHA256 =  253f7b50bb8d59471dbedb8285d89021f4a42ed1a2c5d38a03a736e69125dd95 C/POTCAR              
   COPYR  = (c) Copyright 08Apr2002 Georg Kresse                                                    
   COPYR  = This file is part of the software VASP. Any use, copying, and all other rights are regul
   COPYR  = If you do not have a valid VASP license, you may not use, copy or distribute this file. 
   VRHFIN =C: s2p2                                                                                  
   LEXCH  = PE                                                                                      
   EATOM  =   147.1560 eV,   10.8157 Ry                                                             
                                                                                                    
   TITEL  = PAW_PBE C 08Apr2002                                                                     
   LULTRA =        F    use ultrasoft PP ?                                                          
   IUNSCR =        1    unscreen: 0-lin 1-nonlin 2-no                                               
   RPACOR =    1.200    partial core radius                                                         
   POMASS =   12.011; ZVAL   =    4.000    mass and valenz                                          
   RCORE  =    1.500    outmost cutoff radius                                                       
   RWIGS  =    1.630; RWIGS  =    0.863    wigner-seitz radius (au A)                               
   ENMAX  =  400.000; ENMIN  =  300.000 eV                                                          
   ICORE  =        2    local potential                                                             
   LCOR   =        T    correct aug charges                                                         
   LPAW   =        T    paw PP                                                                      
   EAUG   =  644.873                                                                                
   DEXC   =    0.000                                                                                
   RMAX   =    1.529    core radius for proj-oper                                                   
   RAUG   =    1.300    factor for augmentation sphere                                              
   RDEP   =    1.501    radius for radial grids                                                     
   RDEPT  =    1.300    core radius for aug-charge                                                  
                                                                                                    
   Atomic configuration                                                                             
    4 entries                                                                                       
     n  l   j            E        occ.                                                              
     1  0  0.50      -273.3789   2.0000                                                             
     2  0  0.50       -13.7508   2.0000                                                             
     2  1  0.50        -5.2854   2.0000                                                             
     3  2  1.50        -5.4423   0.0000                                                             
   Description                                                                                      
     l       E           TYP  RCUT    TYP  RCUT                                                     
     0    -13.7508458     23  1.200                                                                 
     0     -8.2022199     23  1.200                                                                 
     1     -5.2854383     23  1.500                                                                 
     1     34.0145650     23  1.500                                                                 
     2     -5.4423304      7  1.500                                                                 
  local pseudopotential read in
  partial core-charges read in
  partial kinetic energy density read in
  atomic valenz-charges read in
  non local Contribution for L=            0  read in
    real space projection operators read in
  non local Contribution for L=            0  read in
    real space projection operators read in
  non local Contribution for L=            1  read in
    real space projection operators read in
  non local Contribution for L=            1  read in
    real space projection operators read in
    PAW grid and wavefunctions read in
 
   number of l-projection  operators is LMAX  =            4
   number of lm-projection operators is LMMAX =            8
 
 POTCAR:    PAW_PBE N 08Apr2002                   
   SHA256 =  e053789ff3a61a86a1b75d8a110fcc91f86041011e7b0817c7c99e4e8a6349d7 N/POTCAR              
   COPYR  = (c) Copyright 08Apr2002 Georg Kresse                                                    
   COPYR  = This file is part of the software VASP. Any use, copying, and all other rights are regul
   COPYR  = If you do not have a valid VASP license, you may not use, copy or distribute this file. 
   VRHFIN =N: s2p3                                                                                  
   LEXCH  = PE                                                                                      
   EATOM  =   264.5486 eV,   19.4438 Ry                                                             
                                                                                                    
   TITEL  = PAW_PBE N 08Apr2002                                                                     
   LULTRA =        F    use ultrasoft PP ?                                                          
   IUNSCR =        1    unscreen: 0-lin 1-nonlin 2-no                                               
   RPACOR =    1.200    partial core radius                                                         
   POMASS =   14.001; ZVAL   =    5.000    mass and valenz                                          
   RCORE  =    1.500    outmost cutoff radius                                                       
   RWIGS  =    1.400; RWIGS  =    0.741    wigner-seitz radius (au A)                               
   ENMAX  =  400.000; ENMIN  =  300.000 eV                                                          
   ICORE  =        2    local potential                                                             
   LCOR   =        T    correct aug charges                                                         
   LPAW   =        T    paw PP                                                                      
   EAUG   =  627.112                                                                                
   DEXC   =    0.000                                                                                
   RMAX   =    1.529    core radius for proj-oper                                                   
   RAUG   =    1.300    factor for augmentation sphere                                              
   RDEP   =    1.514    radius for radial grids                                                     
   RDEPT  =    1.338    core radius for aug-charge                                                  
                                                                                                    
   Atomic configuration                                                                             
    4 entries                                                                                       
     n  l   j            E        occ.                                                              
     1  0  0.50      -384.7179   2.0000                                                             
     2  0  0.50       -18.5828   2.0000                                                             
     2  1  0.50        -7.0898   3.0000                                                             
     3  2  1.50        -6.8029   0.0000                                                             
   Description                                                                                      
     l       E           TYP  RCUT    TYP  RCUT                                                     
     0    -18.5828119     23  1.200                                                                 
     0    -13.5018863     23  1.200                                                                 
     1     -7.0897853     23  1.500                                                                 
     1      9.5240782     23  1.500                                                                 
     2     -6.8029130      7  1.500                                                                 
  local pseudopotential read in
  partial core-charges read in
  partial kinetic energy density read in
  atomic valenz-charges read in
  non local Contribution for L=            0  read in
    real space projection operators read in
  non local Contribution for L=            0  read in
    real space projection operators read in
  non local Contribution for L=            1  read in
    real space projection operators read in
  non local Contribution for L=            1  read in
    real space projection operators read in
    PAW grid and wavefunctions read in
 
   number of l-projection  operators is LMAX  =            4
   number of lm-projection operators is LMMAX =            8
 
 POTCAR:    PAW_PBE I 08Apr2002                   
   SHA256 =  e40f3f59b681c1fc3e3091736183c4589116986673d2b852a5012aec72758799 I/POTCAR              
   COPYR  = (c) Copyright 08Apr2002 Georg Kresse                                                    
   COPYR  = This file is part of the software VASP. Any use, copying, and all other rights are regul
   COPYR  = If you do not have a valid VASP license, you may not use, copy or distribute this file. 
   VRHFIN =I : s2p5                                                                                 
   LEXCH  = PE                                                                                      
   EATOM  =   315.8678 eV,   23.2156 Ry                                                             
                                                                                                    
   TITEL  = PAW_PBE I 08Apr2002                                                                     
   LULTRA =        F    use ultrasoft PP ?                                                          
   IUNSCR =        1    unscreen: 0-lin 1-nonlin 2-no                                               
   RPACOR =    2.200    partial core radius                                                         
   POMASS =  126.904; ZVAL   =    7.000    mass and valenz                                          
   RCORE  =    2.300    outmost cutoff radius                                                       
   RWIGS  =    2.810; RWIGS  =    1.487    wigner-seitz radius (au A)                               
   ENMAX  =  175.647; ENMIN  =  131.735 eV                                                          
   ICORE  =        3    local potential                                                             
   LCOR   =        T    correct aug charges                                                         
   LPAW   =        T    paw PP                                                                      
   EAUG   =  370.139                                                                                
   DEXC   =    0.000                                                                                
   RMAX   =    2.359    core radius for proj-oper                                                   
   RAUG   =    1.300    factor for augmentation sphere                                              
   RDEP   =    2.392    radius for radial grids                                                     
   RDEPT  =    2.170    core radius for aug-charge                                                  
                                                                                                    
   Atomic configuration                                                                             
   13 entries                                                                                       
     n  l   j            E        occ.                                                              
     1  0  0.50    -32976.3739   2.0000                                                             
     2  0  0.50     -5094.5933   2.0000                                                             
     2  1  1.50     -4572.0131   6.0000                                                             
     3  0  0.50     -1028.2813   2.0000                                                             
     3  1  1.50      -859.0250   6.0000                                                             
     3  2  2.50      -605.7620  10.0000                                                             
     4  0  0.50      -180.5540   2.0000                                                             
     4  1  1.50      -127.5306   6.0000                                                             
     4  2  2.50       -50.2720  10.0000                                                             
     5  0  0.50       -17.4058   2.0000                                                             
     5  1  0.50        -7.0851   5.0000                                                             
     5  2  1.50        -7.0750   0.0000                                                             
     4  3  2.50        -7.0750   0.0000                                                             
   Description                                                                                      
     l       E           TYP  RCUT    TYP  RCUT                                                     
     0    -17.4058016     23  2.300                                                                 
     0    -18.7663842     23  2.300                                                                 
     1     -7.0850686     23  2.300                                                                 
     1     -4.2150896     23  2.300                                                                 
     2     -7.0750295     23  2.300                                                                 
     3     -1.3605826     23  2.300                                                                 
  local pseudopotential read in
  partial core-charges read in
  partial kinetic energy density read in
  atomic valenz-charges read in
  non local Contribution for L=            0  read in
    real space projection operators read in
  non local Contribution for L=            0  read in
    real space projection operators read in
  non local Contribution for L=            1  read in
    real space projection operators read in
  non local Contribution for L=            1  read in
    real space projection operators read in
  non local Contribution for L=            2  read in
    real space projection operators read in
    PAW grid and wavefunctions read in
 
   number of l-projection  operators is LMAX  =            5
   number of lm-projection operators is LMMAX =           13
 
 POTCAR:    PAW_PBE Pb 08Apr2002                  
   SHA256 =  797118a27cf1bcd06b9881c67a26cdde129e3cd1a551dd4a281f9681ce847303 Pb/POTCAR             
   COPYR  = (c) Copyright 08Apr2002 Georg Kresse                                                    
   COPYR  = This file is part of the software VASP. Any use, copying, and all other rights are regul
   COPYR  = If you do not have a valid VASP license, you may not use, copy or distribute this file. 
   VRHFIN =Pb:                                                                                      
   LEXCH  = PE                                                                                      
   EATOM  =    96.9868 eV,    7.1283 Ry                                                             
                                                                                                    
   TITEL  = PAW_PBE Pb 08Apr2002                                                                    
   LULTRA =        F    use ultrasoft PP ?                                                          
   IUNSCR =        1    unscreen: 0-lin 1-nonlin 2-no                                               
   RPACOR =    2.200    partial core radius                                                         
   POMASS =  207.200; ZVAL   =    4.000    mass and valenz                                          
   RCORE  =    3.100    outmost cutoff radius                                                       
   RWIGS  =    3.260; RWIGS  =    1.725    wigner-seitz radius (au A)                               
   ENMAX  =   97.973; ENMIN  =   73.480 eV                                                          
   ICORE  =        3    local potential                                                             
   LCOR   =        T    correct aug charges                                                         
   LPAW   =        T    paw PP                                                                      
   EAUG   =  234.873                                                                                
   DEXC   =    0.000                                                                                
   RMAX   =    3.158    core radius for proj-oper                                                   
   RAUG   =    1.300    factor for augmentation sphere                                              
   RDEP   =    3.202    radius for radial grids                                                     
   RDEPT  =    2.659    core radius for aug-charge                                                  
                                                                                                    
   Atomic configuration                                                                             
   17 entries                                                                                       
     n  l   j            E        occ.                                                              
     1  0  0.50    -88091.8466   2.0000                                                             
     2  0  0.50    -15753.4197   2.0000                                                             
     2  1  1.50    -13508.1797   6.0000                                                             
     3  0  0.50     -3781.7194   2.0000                                                             
     3  1  1.50     -3138.2529   6.0000                                                             
     3  2  2.50     -2483.2977  10.0000                                                             
     4  0  0.50      -856.2895   2.0000                                                             
     4  1  1.50      -645.4943   6.0000                                                             
     4  2  2.50      -401.8768  10.0000                                                             
     4  3  3.50      -132.9059  14.0000                                                             
     5  0  0.50      -144.0950   2.0000                                                             
     5  1  1.50       -85.7879   6.0000                                                             
     5  2  2.50       -21.1769  10.0000                                                             
     6  0  0.50       -12.0372   2.0000                                                             
     6  1  1.50        -3.4971   2.0000                                                             
     6  2  2.50        -1.3606   0.0000                                                             
     5  3  2.50        -2.7212   0.0000                                                             
   Description                                                                                      
     l       E           TYP  RCUT    TYP  RCUT                                                     
     0    -12.0371566     23  3.100                                                                 
     0    -13.3977392     23  3.100                                                                 
     1     -3.4971341     23  3.100                                                                 
     1     -5.4423304     23  3.100                                                                 
     2     -1.3605826     23  3.100                                                                 
     3     -1.3605826     23  3.100                                                                 
  local pseudopotential read in
  partial core-charges read in
  partial kinetic energy density read in
  atomic valenz-charges read in
  non local Contribution for L=            0  read in
    real space projection operators read in
  non local Contribution for L=            0  read in
    real space projection operators read in
  non local Contribution for L=            1  read in
    real space projection operators read in
  non local Contribution for L=            1  read in
    real space projection operators read in
  non local Contribution for L=            2  read in
    real space projection operators read in
    PAW grid and wavefunctions read in
 
   number of l-projection  operators is LMAX  =            5
   number of lm-projection operators is LMMAX =           13
 
 Optimization of the real space projectors (new method)

 maximal supplied QI-value         = 34.20
 optimisation between [QCUT,QGAM] = [ 11.29, 22.57] = [ 35.68,142.71] Ry 
 Optimized for a Real-space Cutoff    1.16 Angstroem

   l    n(q)    QCUT    max X(q) W(low)/X(q) W(high)/X(q)  e(spline) 
   0      8    11.287    19.460    0.40E-03    0.73E-03    0.16E-06
   0      8    11.287    12.209    0.38E-03    0.70E-03    0.15E-06
   1      7    11.287     4.655    0.22E-03    0.25E-04    0.22E-06
 Optimization of the real space projectors (new method)

 maximal supplied QI-value         = 25.13
 optimisation between [QCUT,QGAM] = [ 11.31, 22.87] = [ 35.82,146.48] Ry 
 Optimized for a Real-space Cutoff    1.00 Angstroem

   l    n(q)    QCUT    max X(q) W(low)/X(q) W(high)/X(q)  e(spline) 
   0      7    11.310   115.676    0.43E-03    0.13E-02    0.19E-06
   0      7    11.310    87.132    0.43E-03    0.13E-02    0.18E-06
   1      6    11.310     4.429    0.42E-03    0.74E-03    0.11E-06
   1      6    11.310     2.733    0.34E-03    0.55E-03    0.92E-07
 Optimization of the real space projectors (new method)

 maximal supplied QI-value         = 25.13
 optimisation between [QCUT,QGAM] = [ 11.31, 22.87] = [ 35.82,146.48] Ry 
 Optimized for a Real-space Cutoff    1.27 Angstroem

   l    n(q)    QCUT    max X(q) W(low)/X(q) W(high)/X(q)  e(spline) 
   0      9    11.310    79.467    0.75E-04    0.16E-03    0.36E-06
   0      9    11.310    66.151    0.74E-04    0.16E-03    0.36E-06
   1      8    11.310    17.416    0.35E-03    0.12E-03    0.95E-06
   1      8    11.310    12.382    0.37E-03    0.13E-03    0.98E-06
 Optimization of the real space projectors (new method)

 maximal supplied QI-value         = 16.25
 optimisation between [QCUT,QGAM] = [ 11.38, 22.75] = [ 36.24,144.96] Ry 
 Optimized for a Real-space Cutoff    1.31 Angstroem

   l    n(q)    QCUT    max X(q) W(low)/X(q) W(high)/X(q)  e(spline) 
   0      9    11.376   194.483    0.24E-03    0.23E-03    0.67E-07
   0      9    11.376   190.334    0.23E-03    0.22E-03    0.65E-07
   1      8    11.376   116.687    0.25E-03    0.63E-04    0.16E-06
   1      8    11.376    88.696    0.25E-03    0.61E-04    0.16E-06
   2      8    11.376     4.877    0.17E-03    0.14E-03    0.29E-07
 Optimization of the real space projectors (new method)

 maximal supplied QI-value         = 12.09
 optimisation between [QCUT,QGAM] = [ 11.37, 22.86] = [ 36.19,146.31] Ry 
 Optimized for a Real-space Cutoff    1.66 Angstroem

   l    n(q)    QCUT    max X(q) W(low)/X(q) W(high)/X(q)  e(spline) 
   0     11    11.369   135.111    0.12E-03    0.69E-04    0.19E-05
   0     11    11.369   146.850    0.11E-03    0.65E-04    0.18E-05
   1     11    11.369   148.016    0.17E-03    0.32E-03    0.89E-06
   1     11    11.369   122.989    0.17E-03    0.32E-03    0.91E-06
   2     10    11.369     8.916    0.12E-03    0.45E-04    0.33E-06
  PAW_PBE H 15Jun2001                   :
 energy of atom  1       EATOM=  -12.4884
 kinetic energy error for atom=    0.0020 (will be added to EATOM!!)
  PAW_PBE C 08Apr2002                   :
 energy of atom  2       EATOM= -147.1560
 kinetic energy error for atom=    0.0076 (will be added to EATOM!!)
  PAW_PBE N 08Apr2002                   :
 energy of atom  3       EATOM= -264.5486
 kinetic energy error for atom=    0.0138 (will be added to EATOM!!)
  PAW_PBE I 08Apr2002                   :
 energy of atom  4       EATOM= -315.8678
 kinetic energy error for atom=    0.0009 (will be added to EATOM!!)
  PAW_PBE Pb 08Apr2002                  :
 energy of atom  5       EATOM=  -96.9868
 kinetic energy error for atom=    0.0000 (will be added to EATOM!!)
 
 
 POSCAR:  H  C  N  I Pb
  positions in cartesian coordinates
  No initial velocities read in
 exchange correlation table for  LEXCH =        8
   RHO(1)=    0.500       N(1)  =     2000
   RHO(2)=  100.500       N(2)  =     4000
 


--------------------------------------------------------------------------------------------------------


 ion  position               nearest neighbor table
   1  0.444  0.329  0.568- 187 1.03
   2  0.420  0.829  0.569- 188 1.02
   3  0.963  0.322  0.578- 189 1.03
   4  0.948  0.814  0.575- 190 1.03
   5  0.325  0.953  0.573- 194 1.02
   6  0.344  0.561  0.566- 195 1.01
   7  0.803  0.081  0.573- 196 1.01
   8  0.016  0.139  0.561- 183 1.02
   9  0.064  0.653  0.568- 184 1.02
  10  0.560  0.172  0.554- 185 1.02
  11  0.505  0.649  0.563- 186 1.02
  12  0.364  0.021  0.557- 194 1.04
  13  0.286  0.630  0.555- 195 1.04
  14  0.873  0.023  0.564- 196 1.03
  15  0.967  0.186  0.580- 183 1.03
  16  0.993  0.688  0.584- 184 1.04
  17  0.562  0.258  0.568- 185 1.04
  18  0.434  0.694  0.576- 186 1.02
  19  0.286  0.438  0.573- 191 1.02
  20  0.191  0.930  0.571- 192 1.01
  21  0.675  0.032  0.571- 193 1.01
  22  0.368  0.285  0.556- 187 1.02
  23  0.488  0.871  0.553- 188 1.02
  24  0.019  0.365  0.559- 189 1.03
  25  0.996  0.862  0.555- 190 1.02
  26  0.195  0.428  0.564- 191 1.02
  27  0.139  0.991  0.555- 192 1.03
  28  0.666  0.942  0.561- 193 1.02
  29  0.436  0.184  0.546- 146 1.08
  30  0.551  0.760  0.548- 147 1.09
  31  0.058  0.249  0.545- 144 1.09
  32  0.077  0.763  0.549- 145 1.08
  33  0.186  0.548  0.552- 148 1.09
  34  0.245  0.058  0.544- 149 1.09
  35  0.790  0.929  0.555- 150 1.09
  36  0.484  0.337  0.667- 205 1.03
  37  0.443  0.813  0.674- 206 1.03
  38  0.967  0.281  0.679- 207 1.02
  39  0.925  0.727  0.673- 208 1.02
  40  0.311  0.052  0.671- 209 1.03
  41  0.300  0.551  0.675- 210 1.03
  42  0.794  0.061  0.675- 211 1.03
  43  0.756  0.597  0.663- 212 1.02
  44  0.084  0.163  0.645- 197 1.02
  45  0.110  0.720  0.651- 198 1.01
  46  0.581  0.172  0.649- 199 1.01
  47  0.564  0.668  0.652- 200 1.03
  48  0.182  0.415  0.648- 201 1.02
  49  0.173  0.922  0.649- 202 1.02
  50  0.711  0.400  0.662- 203 1.03
  51  0.677  0.920  0.650- 204 1.02
  52  0.064  0.177  0.672- 197 1.01
  53  0.055  0.677  0.670- 198 1.01
  54  0.597  0.257  0.661- 199 1.01
  55  0.530  0.699  0.676- 200 1.02
  56  0.200  0.446  0.674- 201 1.03
  57  0.206  0.951  0.674- 202 1.02
  58  0.675  0.486  0.670- 203 1.02
  59  0.691  0.959  0.675- 204 1.02
  60  0.400  0.296  0.660- 205 1.02
  61  0.429  0.845  0.648- 206 1.02
  62  0.936  0.326  0.656- 207 1.02
  63  0.902  0.798  0.655- 208 1.02
  64  0.332  0.076  0.645- 209 1.02
  65  0.333  0.577  0.650- 210 1.02
  66  0.835  0.077  0.651- 211 1.01
  67  0.837  0.580  0.649- 212 1.03
  68  0.007  0.256  0.633- 151 1.09
  69  0.018  0.800  0.639- 152 1.09
  70  0.454  0.191  0.646- 153 1.08
  71  0.504  0.757  0.632- 154 1.07
  72  0.248  0.997  0.629- 156 1.09
  73  0.262  0.493  0.631- 155 1.09
  74  0.767  0.990  0.633- 158 1.09
  75  0.816  0.453  0.646- 157 1.10
  76  0.449  0.301  0.769- 221 1.02
  77  0.449  0.801  0.769- 222 1.02
  78  0.949  0.301  0.769- 223 1.02
  79  0.949  0.801  0.769- 224 1.02
  80  0.301  0.051  0.769- 225 1.02
  81  0.301  0.551  0.769- 226 1.02
  82  0.801  0.051  0.769- 227 1.02
  83  0.801  0.551  0.769- 228 1.02
  84  0.079  0.171  0.743- 213 1.02
  85  0.079  0.671  0.743- 214 1.02
  86  0.579  0.171  0.743- 215 1.02
  87  0.579  0.671  0.743- 216 1.02
  88  0.171  0.421  0.743- 217 1.02
  89  0.171  0.921  0.743- 218 1.02
  90  0.671  0.421  0.743- 219 1.02
  91  0.671  0.921  0.743- 220 1.02
  92  0.051  0.199  0.769- 213 1.02
  93  0.051  0.699  0.769- 214 1.02
  94  0.551  0.199  0.769- 215 1.02
  95  0.551  0.699  0.769- 216 1.02
  96  0.199  0.449  0.769- 217 1.02
  97  0.199  0.949  0.769- 218 1.02
  98  0.699  0.449  0.769- 219 1.02
  99  0.699  0.949  0.769- 220 1.02
 100  0.421  0.329  0.743- 221 1.02
 101  0.421  0.829  0.743- 222 1.02
 102  0.921  0.329  0.743- 223 1.02
 103  0.921  0.829  0.743- 224 1.02
 104  0.329  0.079  0.743- 225 1.02
 105  0.329  0.579  0.743- 226 1.02
 106  0.829  0.079  0.743- 227 1.02
 107  0.829  0.579  0.743- 228 1.02
 108  0.000  0.250  0.726- 161 1.09
 109  0.000  0.750  0.726- 162 1.09
 110  0.500  0.250  0.726- 159 1.09
 111  0.500  0.750  0.726- 160 1.09
 112  0.250  0.000  0.726- 163 1.09
 113  0.250  0.500  0.726- 164 1.09
 114  0.750  0.000  0.726- 165 1.09
 115  0.750  0.500  0.726- 166 1.09
 116  0.776  0.555  0.520- 173 1.09
 117  0.721  0.477  0.525- 173 1.09
 118  0.870  0.501  0.541- 174 1.09
 119  0.856  0.482  0.568- 174 1.09
 120  0.743  0.641  0.560- 175 1.09
 121  0.808  0.598  0.577- 175 1.10
 122  0.667  0.549  0.570- 176 1.09
 123  0.677  0.458  0.561- 176 1.10
 124  0.616  0.555  0.538- 177 1.10
 125  0.672  0.636  0.536- 177 1.11
 126  0.606  0.645  0.504- 178 1.10
 127  0.687  0.601  0.495- 178 1.10
 128  0.789  0.392  0.531- 179 1.09
 129  0.778  0.369  0.558- 179 1.09
 130  0.866  0.368  0.546- 179 1.09
 131  0.864  0.695  0.555- 180 1.10
 132  0.845  0.647  0.531- 180 1.10
 133  0.908  0.609  0.551- 180 1.10
 134  0.760  0.529  0.599- 181 1.10
 135  0.775  0.437  0.590- 181 1.10
 136  0.688  0.464  0.600- 181 1.10
 137  0.535  0.530  0.503- 182 1.11
 138  0.577  0.548  0.479- 182 1.09
 139  0.696  0.476  0.468- 168 1.11
 140  0.561  0.418  0.523- 169 1.09
 141  0.762  0.356  0.471- 170 1.10
 142  0.629  0.298  0.526- 171 1.09
 143  0.729  0.267  0.501- 172 1.09
 144  0.020  0.252  0.558-  31 1.09 183 1.31 189 1.31
 145  0.034  0.758  0.560-  32 1.08 184 1.31 190 1.31
 146  0.463  0.229  0.554-  29 1.08 187 1.30 185 1.32
 147  0.500  0.760  0.557-  30 1.09 188 1.31 186 1.31
 148  0.239  0.529  0.559-  33 1.09 195 1.31 191 1.32
 149  0.250  0.010  0.555-  34 1.09 194 1.30 192 1.31
 150  0.770  0.981  0.562-  35 1.09 193 1.31 196 1.31
 151  0.010  0.245  0.650-  68 1.09 207 1.31 197 1.33
 152  0.006  0.760  0.652-  69 1.09 208 1.30 198 1.32
 153  0.489  0.233  0.654-  70 1.08 205 1.30 199 1.31
 154  0.497  0.757  0.649-  71 1.07 200 1.31 206 1.31
 155  0.258  0.495  0.649-  73 1.09 201 1.30 210 1.32
 156  0.253  0.999  0.647-  72 1.09 209 1.30 202 1.32
 157  0.776  0.489  0.655-  75 1.10 212 1.30 203 1.31
 158  0.757  0.998  0.650-  74 1.09 211 1.30 204 1.32
 159  0.500  0.250  0.743- 110 1.09 221 1.31 215 1.31
 160  0.500  0.750  0.743- 111 1.09 222 1.31 216 1.31
 161  1.000  0.250  0.743- 108 1.09 223 1.31 213 1.31
 162  1.000  0.750  0.743- 109 1.09 224 1.31 214 1.31
 163  0.250  0.000  0.743- 112 1.09 225 1.31 218 1.31
 164  0.250  0.500  0.743- 113 1.09 226 1.31 217 1.31
 165  0.750  0.000  0.743- 114 1.09 227 1.31 220 1.31
 166  0.750  0.500  0.743- 115 1.09 228 1.31 219 1.31
 167  0.624  0.456  0.496- 169 1.40 168 1.41 182 1.51
 168  0.680  0.437  0.481- 139 1.11 170 1.39 167 1.41
 169  0.605  0.405  0.512- 140 1.09 171 1.39 167 1.40
 170  0.718  0.370  0.483- 141 1.10 168 1.39 172 1.40
 171  0.642  0.337  0.513- 142 1.09 169 1.39 172 1.40
 172  0.700  0.320  0.499- 143 1.09 171 1.40 170 1.40
 173  0.732  0.534  0.530- 117 1.09 116 1.09 229 1.53 177 1.53
 174  0.831  0.477  0.552- 118 1.09 119 1.09 229 1.51 179 1.51
 175  0.792  0.605  0.560- 120 1.09 121 1.10 180 1.52 229 1.52
 176  0.707  0.504  0.568- 122 1.09 123 1.10 181 1.51 229 1.52
 177  0.661  0.580  0.528- 124 1.10 125 1.11 173 1.53 178 1.54
 178  0.638  0.592  0.505- 127 1.10 126 1.10 182 1.54 177 1.54
 179  0.814  0.398  0.547- 129 1.09 128 1.09 130 1.09 174 1.51
 180  0.856  0.639  0.549- 132 1.10 133 1.10 131 1.10 175 1.52
 181  0.735  0.483  0.590- 136 1.10 134 1.10 135 1.10 176 1.51
 182  0.589  0.532  0.495- 138 1.09 137 1.11 167 1.51 178 1.54
 183  0.002  0.189  0.567-   8 1.02  15 1.03 144 1.31
 184  0.032  0.697  0.572-   9 1.02  16 1.04 145 1.31
 185  0.534  0.221  0.558-  10 1.02  17 1.04 146 1.32
 186  0.477  0.697  0.565-  11 1.02  18 1.02 147 1.31
 187  0.424  0.286  0.559-  22 1.02   1 1.03 146 1.30
 188  0.465  0.823  0.559-   2 1.02  23 1.02 147 1.31
 189  0.998  0.317  0.565-  24 1.03   3 1.03 144 1.31
 190  0.987  0.813  0.563-  25 1.02   4 1.03 145 1.31
 191  0.243  0.459  0.564-  26 1.02  19 1.02 148 1.32
 192  0.190  0.973  0.560-  20 1.01  27 1.03 149 1.31
 193  0.698  0.988  0.564-  21 1.01  28 1.02 150 1.31
 194  0.316  0.993  0.562-   5 1.02  12 1.04 149 1.30
 195  0.294  0.576  0.560-   6 1.01  13 1.04 148 1.31
 196  0.818  0.032  0.567-   7 1.01  14 1.03 150 1.31
 197  0.055  0.191  0.656-  52 1.01  44 1.02 151 1.33
 198  0.060  0.715  0.658-  45 1.01  53 1.01 152 1.32
 199  0.560  0.220  0.655-  46 1.01  54 1.01 153 1.31
 200  0.532  0.705  0.660-  55 1.02  47 1.03 154 1.31
 201  0.211  0.449  0.658-  48 1.02  56 1.03 155 1.30
 202  0.208  0.955  0.657-  49 1.02  57 1.02 156 1.32
 203  0.716  0.457  0.662-  58 1.02  50 1.03 157 1.31
 204  0.706  0.957  0.659-  51 1.02  59 1.02 158 1.32
 205  0.456  0.293  0.660-  60 1.02  36 1.03 153 1.30
 206  0.455  0.808  0.658-  61 1.02  37 1.03 154 1.31
 207  0.969  0.286  0.662-  62 1.02  38 1.02 151 1.31
 208  0.941  0.763  0.661-  63 1.02  39 1.02 152 1.30
 209  0.301  0.045  0.655-  64 1.02  40 1.03 156 1.30
 210  0.300  0.544  0.659-  65 1.02  41 1.03 155 1.32
 211  0.797  0.048  0.659-  66 1.01  42 1.03 158 1.30
 212  0.790  0.559  0.656-  43 1.02  67 1.03 157 1.30
 213  0.046  0.204  0.753-  92 1.02  84 1.02 161 1.31
 214  0.046  0.704  0.753-  93 1.02  85 1.02 162 1.31
 215  0.546  0.204  0.753-  94 1.02  86 1.02 159 1.31
 216  0.546  0.704  0.753-  95 1.02  87 1.02 160 1.31
 217  0.204  0.454  0.753-  96 1.02  88 1.02 164 1.31
 218  0.204  0.954  0.753-  97 1.02  89 1.02 163 1.31
 219  0.704  0.454  0.753-  98 1.02  90 1.02 166 1.31
 220  0.704  0.954  0.753-  99 1.02  91 1.02 165 1.31
 221  0.454  0.296  0.753-  76 1.02 100 1.02 159 1.31
 222  0.454  0.796  0.753-  77 1.02 101 1.02 160 1.31
 223  0.954  0.296  0.753-  78 1.02 102 1.02 161 1.31
 224  0.954  0.796  0.753-  79 1.02 103 1.02 162 1.31
 225  0.296  0.046  0.753-  80 1.02 104 1.02 163 1.31
 226  0.296  0.546  0.753-  81 1.02 105 1.02 164 1.31
 227  0.796  0.046  0.753-  82 1.02 106 1.02 165 1.31
 228  0.796  0.546  0.753-  83 1.02 107 1.02 166 1.31
 229  0.766  0.529  0.553- 174 1.51 175 1.52 176 1.52 173 1.53
 230  0.506  0.019  0.551- 304 3.28
 231  0.476  0.500  0.555- 305 3.14
 232  0.002  0.002  0.550- 302 3.49
 233  0.040  0.505  0.553- 303 3.31
 234  0.232  0.242  0.552- 306 3.16
 235  0.251  0.767  0.553- 307 3.19
 236  0.735  0.202  0.555- 308 3.08
 237  0.705  0.792  0.553- 309 3.20
 238  0.002  0.982  0.654- 302 3.06 310 3.18
 239  0.003  0.497  0.655- 311 3.10 303 3.12
 240  0.503  0.014  0.654- 304 3.15 312 3.18
 241  0.514  0.488  0.655- 313 3.14 305 3.14
 242  0.261  0.246  0.654- 314 3.16 306 3.27
 243  0.253  0.755  0.655- 315 3.13 307 3.18
 244  0.755  0.264  0.655- 316 3.14 308 3.27
 245  0.745  0.753  0.654- 317 3.17 309 3.24
 246  0.134  0.108  0.608- 302 3.18 306 3.19
 247  0.149  0.606  0.610- 307 3.11 303 3.16
 248  0.648  0.105  0.610- 308 3.11 304 3.19
 249  0.617  0.632  0.612- 309 3.16 305 3.34
 250  0.360  0.383  0.606- 305 3.18 306 3.27
 251  0.372  0.883  0.607- 304 3.26 307 3.35
 252  0.892  0.364  0.612- 303 3.27 308 3.49
 253  0.872  0.871  0.607- 302 3.22 309 3.23
 254  0.125  0.366  0.610- 306 3.13 303 3.22
 255  0.125  0.870  0.607- 307 3.19 302 3.26
 256  0.586  0.334  0.602- 308 3.23 305 3.29
 257  0.617  0.873  0.612- 309 3.05 304 3.23
 258  0.386  0.134  0.606- 304 3.11 306 3.23
 259  0.384  0.629  0.611- 305 3.24 307 3.26
 260  0.886  0.133  0.612- 302 3.20 308 3.35
 261  0.903  0.640  0.613- 303 3.19 309 3.75
 262  0.000  0.000  0.755- 310 3.13 318 3.27
 263  0.000  0.500  0.755- 311 3.13 319 3.27
 264  0.500  0.000  0.755- 312 3.13 320 3.27
 265  0.500  0.500  0.755- 313 3.13 321 3.27
 266  0.250  0.250  0.755- 314 3.13 322 3.27
 267  0.250  0.750  0.755- 315 3.13 323 3.27
 268  0.750  0.250  0.755- 316 3.13 324 3.27
 269  0.750  0.750  0.755- 317 3.13 325 3.27
 270  0.136  0.114  0.705- 310 3.20 314 3.20
 271  0.136  0.614  0.705- 311 3.20 315 3.20
 272  0.636  0.114  0.705- 312 3.20 316 3.20
 273  0.636  0.614  0.705- 313 3.20 317 3.20
 274  0.364  0.386  0.705- 313 3.20 314 3.20
 275  0.364  0.886  0.705- 312 3.20 315 3.20
 276  0.864  0.386  0.705- 311 3.20 316 3.20
 277  0.864  0.886  0.705- 310 3.20 317 3.20
 278  0.114  0.364  0.705- 314 3.21 311 3.21
 279  0.114  0.864  0.705- 315 3.21 310 3.21
 280  0.614  0.364  0.705- 316 3.21 313 3.21
 281  0.614  0.864  0.705- 317 3.21 312 3.21
 282  0.386  0.136  0.705- 314 3.21 312 3.21
 283  0.386  0.636  0.705- 315 3.21 313 3.21
 284  0.886  0.136  0.705- 316 3.21 310 3.21
 285  0.886  0.636  0.705- 317 3.21 311 3.21
 286  0.135  0.115  0.801- 318 3.22 322 3.22
 287  0.135  0.615  0.801- 319 3.22 323 3.22
 288  0.635  0.115  0.801- 320 3.22 324 3.22
 289  0.635  0.615  0.801- 321 3.22 325 3.22
 290  0.365  0.385  0.801- 321 3.22 322 3.22
 291  0.365  0.885  0.801- 320 3.22 323 3.22
 292  0.865  0.385  0.801- 319 3.22 324 3.22
 293  0.865  0.885  0.801- 318 3.22 325 3.22
 294  0.115  0.365  0.801- 319 3.23 322 3.23
 295  0.115  0.865  0.801- 318 3.23 323 3.23
 296  0.615  0.365  0.801- 321 3.23 324 3.23
 297  0.615  0.865  0.801- 320 3.23 325 3.23
 298  0.385  0.135  0.801- 320 3.23 322 3.23
 299  0.385  0.635  0.801- 321 3.23 323 3.23
 300  0.885  0.135  0.801- 318 3.23 324 3.23
 301  0.885  0.635  0.801- 319 3.23 325 3.23
 302  0.998  0.998  0.605- 238 3.06 246 3.18 260 3.20 253 3.22 255 3.26 232 3.49
 303  0.009  0.501  0.605- 239 3.12 247 3.16 261 3.19 254 3.22 252 3.27 233 3.31
 304  0.502  0.007  0.604- 258 3.11 240 3.15 248 3.19 257 3.23 251 3.26 230 3.28
 305  0.498  0.493  0.605- 231 3.14 241 3.14 250 3.18 259 3.24 256 3.29 249 3.34
 306  0.245  0.244  0.602- 254 3.13 234 3.16 246 3.19 258 3.23 242 3.27 250 3.27
 307  0.249  0.745  0.604- 247 3.11 243 3.18 255 3.19 235 3.19 259 3.26 251 3.35
 308  0.742  0.247  0.603- 236 3.08 248 3.11 256 3.23 244 3.27 260 3.35 252 3.49
 309  0.735  0.757  0.602- 257 3.05 249 3.16 237 3.20 253 3.23 245 3.24 261 3.75
 310  0.000  0.000  0.705- 262 3.13 238 3.18 270 3.20 277 3.20 279 3.21 284 3.21
 311  0.000  0.500  0.705- 239 3.10 263 3.13 271 3.20 276 3.20 278 3.21 285 3.21
 312  0.500  0.000  0.705- 264 3.13 240 3.18 272 3.20 275 3.20 281 3.21 282 3.21
 313  0.500  0.500  0.705- 265 3.13 241 3.14 273 3.20 274 3.20 280 3.21 283 3.21
 314  0.250  0.250  0.705- 266 3.13 242 3.16 270 3.20 274 3.20 282 3.21 278 3.21
 315  0.250  0.750  0.705- 243 3.13 267 3.13 271 3.20 275 3.20 283 3.21 279 3.21
 316  0.750  0.250  0.705- 268 3.13 244 3.14 272 3.20 276 3.20 284 3.21 280 3.21
 317  0.750  0.750  0.705- 269 3.13 245 3.17 273 3.20 277 3.20 285 3.21 281 3.21
 318  0.000  0.000  0.807- 286 3.22 293 3.22 300 3.23 295 3.23 262 3.27
 319  0.000  0.500  0.807- 287 3.22 292 3.22 301 3.23 294 3.23 263 3.27
 320  0.500  0.000  0.807- 288 3.22 291 3.22 298 3.23 297 3.23 264 3.27
 321  0.500  0.500  0.807- 289 3.22 290 3.22 299 3.23 296 3.23 265 3.27
 322  0.250  0.250  0.807- 290 3.22 286 3.22 294 3.23 298 3.23 266 3.27
 323  0.250  0.750  0.807- 291 3.22 287 3.22 299 3.23 295 3.23 267 3.27
 324  0.750  0.250  0.807- 292 3.22 288 3.22 296 3.23 300 3.23 268 3.27
 325  0.750  0.750  0.807- 293 3.22 289 3.22 297 3.23 301 3.23 269 3.27
 

IMPORTANT INFORMATION: All symmetrisations will be switched off!
NOSYMM: (Re-)initialisation of all symmetry stuff for point group C_1.


----------------------------------------------------------------------------------------

                                     Primitive cell                                     

  volume of cell :   20385.2105

  direct lattice vectors                    reciprocal lattice vectors
    18.060800552  0.000000000  0.000000000     0.055368531  0.000015077 -0.000000000
    -0.004918649 18.062799454  0.000000000     0.000000000  0.055362404  0.000000000
     0.000000000  0.000000000 62.487499237     0.000000000 -0.000000000  0.016003201

  length of vectors
    18.060800552 18.062800123 62.487499237     0.055368533  0.055362404  0.016003201

  position of ions in fractional coordinates (direct lattice)
     0.443529447  0.328986815  0.568130845
     0.420327254  0.829131534  0.568735519
     0.962691076  0.322058331  0.577920828
     0.947775968  0.814123998  0.574930789
     0.325043325  0.953008909  0.573127816
     0.344207011  0.561478437  0.565770510
     0.802958597  0.081020688  0.573264074
     0.016309826  0.138721503  0.561173948
     0.064454342  0.653057953  0.568168511
     0.559732669  0.172479799  0.554446773
     0.505474537  0.648841212  0.562621931
     0.363505398  0.020663382  0.556930057
     0.286422167  0.630322998  0.555231598
     0.873155616  0.022604408  0.563697341
     0.967033748  0.185569485  0.580302957
     0.993345306  0.687648527  0.583900357
     0.561549508  0.257696506  0.567957837
     0.434096351  0.694152940  0.575708716
     0.285512863  0.438466891  0.573131418
     0.190990364  0.930454800  0.570503817
     0.674539502  0.032065725  0.570951844
     0.367869958  0.285237926  0.556135648
     0.487871651  0.871310299  0.553278082
     0.018860333  0.364761562  0.558832110
     0.996364940  0.862186803  0.555349480
     0.195144511  0.427974271  0.564264532
     0.138662530  0.990530245  0.555087526
     0.665595328  0.942323215  0.561013638
     0.435728018  0.183682587  0.545539046
     0.551074712  0.759681805  0.547677108
     0.057718211  0.249054552  0.544716799
     0.077311955  0.763000827  0.548548987
     0.186229028  0.547652514  0.552216651
     0.244921344  0.057740320  0.544426519
     0.789537089  0.928980754  0.554779420
     0.484201968  0.336773711  0.667133618
     0.443320520  0.813382613  0.673691448
     0.967329573  0.280647060  0.678524080
     0.925011903  0.727454721  0.673040622
     0.310810877  0.052314082  0.670922523
     0.299771126  0.550967893  0.675209391
     0.794138369  0.060555091  0.675251697
     0.755670782  0.596688750  0.662765496
     0.084099105  0.163299744  0.645006512
     0.109787941  0.719704229  0.650769383
     0.581106566  0.172375365  0.649014821
     0.564043630  0.667962797  0.651532170
     0.182000313  0.414562467  0.647957969
     0.172884580  0.921915913  0.649135817
     0.711008580  0.400232563  0.661805221
     0.677170733  0.920110648  0.649579387
     0.063836398  0.177285855  0.671934078
     0.055396397  0.677346586  0.669843816
     0.596824988  0.257377265  0.660651059
     0.530026262  0.698974584  0.676192803
     0.200062243  0.446267408  0.673737844
     0.206288950  0.951151744  0.673747368
     0.674699156  0.486261774  0.669581801
     0.691212836  0.959094033  0.674631517
     0.399643711  0.296233391  0.660081915
     0.429281486  0.844901838  0.647784655
     0.936361801  0.325568982  0.655665199
     0.902010217  0.797593829  0.655119557
     0.332498315  0.076326557  0.644806887
     0.333253418  0.577091721  0.650237355
     0.834786851  0.077018385  0.650650341
     0.837142232  0.580255729  0.648590358
     0.006995274  0.255653948  0.632729825
     0.017554001  0.799563183  0.639406698
     0.454372169  0.190898542  0.646437767
     0.503670642  0.756569222  0.632033519
     0.248449850  0.997395793  0.629225157
     0.262002418  0.493400815  0.631347285
     0.767034149  0.989587533  0.632693624
     0.815520159  0.452590514  0.646404496
     0.448745018  0.301283966  0.768889017
     0.448745007  0.801283913  0.768889017
     0.948744965  0.301283966  0.768889017
     0.948745007  0.801283913  0.768889017
     0.301275995  0.051294496  0.768872961
     0.301276011  0.551294499  0.768872961
     0.801275943  0.051294496  0.768872961
     0.801275984  0.551294499  0.768872961
     0.078771004  0.171180501  0.743441971
     0.078771006  0.671180448  0.743441971
     0.578771004  0.171180501  0.743441971
     0.578770992  0.671180448  0.743441971
     0.171199499  0.421174482  0.743421032
     0.171199501  0.921174508  0.743421032
     0.671199512  0.421174482  0.743421032
     0.671199501  0.921174508  0.743421032
     0.051256000  0.198714991  0.768889017
     0.051256002  0.698714925  0.768889017
     0.551256027  0.198714991  0.768889017
     0.551256016  0.698714925  0.768889017
     0.198723491  0.448703970  0.768872046
     0.198723493  0.948703970  0.768872046
     0.698723518  0.448703970  0.768872046
     0.698723507  0.948703970  0.768872046
     0.421231519  0.328817467  0.743441971
     0.421231508  0.828817440  0.743441971
     0.921231466  0.328817467  0.743441971
     0.921231508  0.828817440  0.743441971
     0.328800503  0.078824997  0.743421032
     0.328800492  0.578824964  0.743421032
     0.828800477  0.078824997  0.743421032
     0.828800519  0.578824964  0.743421032
     0.000003500  0.250001478  0.725821992
     0.000003500  0.750001452  0.725821992
     0.500003506  0.250001478  0.725821992
     0.500003495  0.750001452  0.725821992
     0.250000502  0.000000000  0.725803983
     0.250000517  0.500000000  0.725803983
     0.750000502  0.000000000  0.725803983
     0.750000490  0.500000000  0.725803983
     0.775530700  0.555302426  0.519943961
     0.721335929  0.476742190  0.525417285
     0.870429373  0.501138160  0.541049379
     0.856425545  0.481902109  0.568204529
     0.743072465  0.640609575  0.559661683
     0.807713351  0.598147234  0.577277938
     0.666701364  0.549050808  0.569827840
     0.677365128  0.457858722  0.560705349
     0.615991976  0.554949104  0.537759780
     0.671663523  0.635712324  0.535518365
     0.606221414  0.644508632  0.504279939
     0.686707718  0.600967476  0.494799650
     0.789084022  0.391747999  0.530681887
     0.778325276  0.369170117  0.558061814
     0.866370938  0.368104686  0.545971384
     0.863799840  0.694850714  0.555459304
     0.844809266  0.647386424  0.531494916
     0.908151090  0.608840405  0.550547555
     0.760142626  0.529084829  0.599158596
     0.775310806  0.436762449  0.590210395
     0.687575127  0.464489902  0.599796236
     0.534688170  0.529861958  0.503409709
     0.577350527  0.547682186  0.478588735
     0.696201196  0.476423767  0.468241298
     0.561489728  0.417827820  0.522899325
     0.761757748  0.355624893  0.471338963
     0.628968056  0.298352823  0.525907983
     0.729317470  0.267221317  0.500659464
     0.020198068  0.251567537  0.558404168
     0.033918085  0.757880770  0.560463113
     0.462874391  0.228729891  0.553884343
     0.499658394  0.759973196  0.556891659
     0.239223002  0.528813132  0.558517838
     0.250448448  0.010230622  0.555022327
     0.769865894  0.980849080  0.561672400
     0.010028958  0.244647052  0.649854222
     0.005965171  0.760343466  0.652206255
     0.488683967  0.233361174  0.653576951
     0.496843313  0.756609982  0.649116831
     0.257500350  0.495397519  0.648745907
     0.252740183  0.999402838  0.646592461
     0.775530378  0.488583817  0.654508412
     0.756818805  0.998227949  0.649657222
     0.499988984  0.249994984  0.743277021
     0.499989025  0.749994958  0.743277021
     0.999988984  0.249994984  0.743277021
     0.999989025  0.749994958  0.743277021
     0.250000502  0.000001000  0.743255960
     0.250000517  0.500001003  0.743255960
     0.750000502  0.000001000  0.743255960
     0.750000491  0.500001003  0.743255960
     0.624284022  0.456021150  0.495732057
     0.680400395  0.436966935  0.481160752
     0.605072931  0.404645607  0.511516738
     0.718060269  0.369938192  0.482881189
     0.642439966  0.337454537  0.513229483
     0.699731650  0.319791198  0.499146894
     0.732014939  0.533627649  0.530340999
     0.830874888  0.477353534  0.552368354
     0.791642797  0.604716905  0.560460549
     0.706625671  0.503758193  0.568495664
     0.661397269  0.580150767  0.528419472
     0.637805420  0.592497615  0.504956649
     0.813680556  0.397986813  0.546584421
     0.856046482  0.639393538  0.548571513
     0.735292384  0.482758541  0.590349034
     0.588867050  0.531649952  0.495135898
     0.001738089  0.188874542  0.567344860
     0.032019221  0.697209715  0.571859862
     0.534000791  0.221057025  0.557969511
     0.477280932  0.697132050  0.565129634
     0.423530359  0.286104336  0.558973862
     0.465018146  0.823133134  0.558881436
     0.997530542  0.316639861  0.564976894
     0.987366097  0.813093862  0.563054268
     0.242550041  0.458698205  0.564218014
     0.190246013  0.972893782  0.559860453
     0.698239605  0.987751337  0.563715106
     0.316268244  0.993425051  0.562050649
     0.294074450  0.575718136  0.559778589
     0.818160296  0.031506762  0.567066240
     0.055186474  0.191233029  0.656434457
     0.059847807  0.714812681  0.657847703
     0.560115336  0.220175845  0.654722994
     0.531974611  0.704997112  0.659900848
     0.211064277  0.449441606  0.657566153
     0.207980790  0.955467368  0.657420249
     0.715622070  0.457011266  0.662069922
     0.705594334  0.956875539  0.658778065
     0.456041682  0.293162861  0.660211091
     0.454688650  0.807960500  0.657686538
     0.968760839  0.285650091  0.662293111
     0.941064548  0.763165714  0.661234916
     0.301151842  0.044657445  0.654774334
     0.299545096  0.543680384  0.658941977
     0.796925612  0.047982219  0.659213333
     0.790042799  0.559160935  0.655719897
     0.045862501  0.204119496  0.752725994
     0.045862500  0.704119456  0.752725994
     0.545862507  0.204119496  0.752725994
     0.545862496  0.704119456  0.752725994
     0.204119002  0.454101003  0.752704994
     0.204118991  0.954100951  0.752704994
     0.704118976  0.454101003  0.752704994
     0.704118964  0.954100951  0.752704994
     0.454140018  0.295888490  0.752726971
     0.454140007  0.795888516  0.752726971
     0.954140018  0.295888490  0.752726971
     0.954140060  0.795888516  0.752726971
     0.295882492  0.045900498  0.752704994
     0.295882481  0.545900528  0.752704994
     0.795882439  0.045900498  0.752704994
     0.795882481  0.545900528  0.752704994
     0.765596334  0.529467348  0.552712966
     0.505880806  0.018694535  0.551354235
     0.476450380  0.499542086  0.555059383
     0.001670284  0.002492337  0.549615057
     0.039974438  0.505159919  0.553181016
     0.231720547  0.241681405  0.551822468
     0.251083815  0.766527608  0.553336321
     0.735351753  0.201879936  0.555292340
     0.704719338  0.792387817  0.552984810
     0.001548565  0.981854205  0.654168745
     0.002973561  0.497401191  0.655272969
     0.503073231  0.014196306  0.654054281
     0.514433851  0.487832453  0.654949785
     0.260573546  0.245872936  0.654400541
     0.252856015  0.754724787  0.654758157
     0.755497708  0.263838647  0.654726229
     0.745349439  0.752992336  0.654138465
     0.134441130  0.108048374  0.608009305
     0.148841969  0.605781042  0.609767957
     0.647799302  0.104936952  0.610269889
     0.617179682  0.631909411  0.611888254
     0.360280909  0.383282442  0.606260969
     0.372204596  0.882690051  0.607428683
     0.892286845  0.364342480  0.611759383
     0.872086776  0.871292611  0.606835791
     0.125180400  0.366198399  0.609841947
     0.124838659  0.870272243  0.607336074
     0.586454886  0.333716724  0.602030448
     0.617358769  0.873412281  0.611663295
     0.385858055  0.134253537  0.605597812
     0.383951591  0.628893237  0.611493034
     0.885773673  0.133372924  0.611990081
     0.903185988  0.640305935  0.612580287
     0.000000000  0.000000000  0.754927972
     0.000000000  0.500000000  0.754927972
     0.500000000  0.000000000  0.754927972
     0.499999989  0.500000000  0.754927972
     0.250000496  0.250000000  0.754939022
     0.250000511  0.749999974  0.754939022
     0.750000470  0.250000000  0.754939022
     0.750000458  0.749999974  0.754939022
     0.135790500  0.114209997  0.704782994
     0.135790502  0.614209984  0.704782994
     0.635790447  0.114209997  0.704782994
     0.635790488  0.614209984  0.704782994
     0.364209516  0.385789989  0.704782994
     0.364209505  0.885789963  0.704782994
     0.864209542  0.385789989  0.704782994
     0.864209531  0.885789963  0.704782994
     0.114217990  0.364218986  0.704780979
     0.114217992  0.864218986  0.704780979
     0.614218004  0.364218986  0.704780979
     0.614217992  0.864218986  0.704780979
     0.385782012  0.135781489  0.704782017
     0.385782001  0.635781489  0.704782017
     0.885781985  0.135781489  0.704782017
     0.885782027  0.635781489  0.704782017
     0.134667000  0.115332001  0.801256025
     0.134666989  0.615331988  0.801256025
     0.634666987  0.115332001  0.801256025
     0.634666976  0.615331988  0.801256025
     0.365333002  0.384667985  0.801256025
     0.365332990  0.884667959  0.801256025
     0.865332949  0.384667985  0.801256025
     0.865332938  0.884667959  0.801256025
     0.115328503  0.365337004  0.801264999
     0.115328505  0.865336978  0.801264999
     0.615328503  0.365337004  0.801264999
     0.615328492  0.865336978  0.801264999
     0.384671513  0.134662996  0.801264999
     0.384671501  0.634662970  0.801264999
     0.884671486  0.134662996  0.801264999
     0.884671528  0.634662970  0.801264999
     0.997578453  0.997781588  0.605385611
     0.009239883  0.501065194  0.605355698
     0.502031886  0.007388897  0.603686602
     0.498167936  0.492703093  0.604901444
     0.244979022  0.244029108  0.602262367
     0.248560305  0.744997919  0.604010702
     0.742301710  0.246500885  0.602823636
     0.735435256  0.756866526  0.602314867
     0.000000500  0.000000500  0.704828963
     0.000000500  0.500000475  0.704828963
     0.500000475  0.000000500  0.704828963
     0.500000464  0.500000475  0.704828963
     0.249999994  0.249999472  0.704824995
     0.250000010  0.749999498  0.704824995
     0.749999994  0.249999472  0.704824995
     0.749999983  0.749999498  0.704824995
     0.000000000  0.000000000  0.807317968
     0.000000000  0.500000000  0.807317968
     0.500000000  0.000000000  0.807317968
     0.499999989  0.500000000  0.807317968
     0.249999994  0.250000000  0.807317968
     0.250000010  0.749999974  0.807317968
     0.749999994  0.250000000  0.807317968
     0.749999983  0.749999974  0.807317968

  ion indices of the primitive-cell ions
   primitive index   ion index
                 1           1
                 2           2
                 3           3
                 4           4
                 5           5
                 6           6
                 7           7
                 8           8
                 9           9
                10          10
                11          11
                12          12
                13          13
                14          14
                15          15
                16          16
                17          17
                18          18
                19          19
                20          20
                21          21
                22          22
                23          23
                24          24
                25          25
                26          26
                27          27
                28          28
                29          29
                30          30
                31          31
                32          32
                33          33
                34          34
                35          35
                36          36
                37          37
                38          38
                39          39
                40          40
                41          41
                42          42
                43          43
                44          44
                45          45
                46          46
                47          47
                48          48
                49          49
                50          50
                51          51
                52          52
                53          53
                54          54
                55          55
                56          56
                57          57
                58          58
                59          59
                60          60
                61          61
                62          62
                63          63
                64          64
                65          65
                66          66
                67          67
                68          68
                69          69
                70          70
                71          71
                72          72
                73          73
                74          74
                75          75
                76          76
                77          77
                78          78
                79          79
                80          80
                81          81
                82          82
                83          83
                84          84
                85          85
                86          86
                87          87
                88          88
                89          89
                90          90
                91          91
                92          92
                93          93
                94          94
                95          95
                96          96
                97          97
                98          98
                99          99
               100         100
               101         101
               102         102
               103         103
               104         104
               105         105
               106         106
               107         107
               108         108
               109         109
               110         110
               111         111
               112         112
               113         113
               114         114
               115         115
               116         116
               117         117
               118         118
               119         119
               120         120
               121         121
               122         122
               123         123
               124         124
               125         125
               126         126
               127         127
               128         128
               129         129
               130         130
               131         131
               132         132
               133         133
               134         134
               135         135
               136         136
               137         137
               138         138
               139         139
               140         140
               141         141
               142         142
               143         143
               144         144
               145         145
               146         146
               147         147
               148         148
               149         149
               150         150
               151         151
               152         152
               153         153
               154         154
               155         155
               156         156
               157         157
               158         158
               159         159
               160         160
               161         161
               162         162
               163         163
               164         164
               165         165
               166         166
               167         167
               168         168
               169         169
               170         170
               171         171
               172         172
               173         173
               174         174
               175         175
               176         176
               177         177
               178         178
               179         179
               180         180
               181         181
               182         182
               183         183
               184         184
               185         185
               186         186
               187         187
               188         188
               189         189
               190         190
               191         191
               192         192
               193         193
               194         194
               195         195
               196         196
               197         197
               198         198
               199         199
               200         200
               201         201
               202         202
               203         203
               204         204
               205         205
               206         206
               207         207
               208         208
               209         209
               210         210
               211         211
               212         212
               213         213
               214         214
               215         215
               216         216
               217         217
               218         218
               219         219
               220         220
               221         221
               222         222
               223         223
               224         224
               225         225
               226         226
               227         227
               228         228
               229         229
               230         230
               231         231
               232         232
               233         233
               234         234
               235         235
               236         236
               237         237
               238         238
               239         239
               240         240
               241         241
               242         242
               243         243
               244         244
               245         245
               246         246
               247         247
               248         248
               249         249
               250         250
               251         251
               252         252
               253         253
               254         254
               255         255
               256         256
               257         257
               258         258
               259         259
               260         260
               261         261
               262         262
               263         263
               264         264
               265         265
               266         266
               267         267
               268         268
               269         269
               270         270
               271         271
               272         272
               273         273
               274         274
               275         275
               276         276
               277         277
               278         278
               279         279
               280         280
               281         281
               282         282
               283         283
               284         284
               285         285
               286         286
               287         287
               288         288
               289         289
               290         290
               291         291
               292         292
               293         293
               294         294
               295         295
               296         296
               297         297
               298         298
               299         299
               300         300
               301         301
               302         302
               303         303
               304         304
               305         305
               306         306
               307         307
               308         308
               309         309
               310         310
               311         311
               312         312
               313         313
               314         314
               315         315
               316         316
               317         317
               318         318
               319         319
               320         320
               321         321
               322         322
               323         323
               324         324
               325         325

----------------------------------------------------------------------------------------

 
 
 KPOINTS: Automatic Mesh                          

Automatic generation of k-mesh.
 Grid dimensions read from file:
 generate k-points for:    3    3    1

 Generating k-lattice:

  Cartesian coordinates                     Fractional coordinates (reciprocal lattice)
     0.018456177  0.000005026 -0.000000000     0.333333333  0.000000000  0.000000000
     0.000000000  0.018454135  0.000000000     0.000000000  0.333333333  0.000000000
     0.000000000 -0.000000000  0.016003201     0.000000000  0.000000000  1.000000000

  Length of vectors
     0.018456178  0.018454135  0.016003201

  Shift w.r.t. Gamma in fractional coordinates (k-lattice)
     0.000000000  0.000000000  0.000000000

 
 Subroutine IBZKPT returns following result:
 ===========================================
 
 Found      5 irreducible k-points:
 
 Following reciprocal coordinates:
            Coordinates               Weight
  0.000000  0.000000  0.000000      1.000000
  0.333333  0.000000  0.000000      2.000000
  0.000000  0.333333  0.000000      2.000000
  0.333333  0.333333  0.000000      2.000000
 -0.333333  0.333333  0.000000      2.000000
 
 Following cartesian coordinates:
            Coordinates               Weight
  0.000000  0.000000  0.000000      1.000000
  0.018456  0.000005  0.000000      2.000000
  0.000000  0.018454  0.000000      2.000000
  0.018456  0.018459  0.000000      2.000000
 -0.018456  0.018449  0.000000      2.000000
 


--------------------------------------------------------------------------------------------------------




 Dimension of arrays:
   k-points           NKPTS =      5   k-points in BZ     NKDIM =      5   number of bands    NBANDS=    732
   number of dos      NEDOS =    301   number of ions     NIONS =    325
   non local maximal  LDIM  =      5   non local SUM 2l+1 LMDIM =     13
   total plane-waves  NPLWV = ******
   max r-space proj   IRMAX =   3336   max aug-charges    IRDMAX=  19845
   dimension x,y,z NGX =   100 NGY =  100 NGZ =  350
   dimension x,y,z NGXF=   200 NGYF=  200 NGZF=  700
   support grid    NGXF=   200 NGYF=  200 NGZF=  700
   ions per type =             143  39  47  72  24
   NGX,Y,Z   is equivalent  to a cutoff of   9.20,  9.20,  9.31 a.u.
   NGXF,Y,Z  is equivalent  to a cutoff of  18.41, 18.41, 18.62 a.u.

 SYSTEM =  PSC                                     
 POSCAR =   H  C  N  I Pb                          

 Startparameter for this run:
   NWRITE =      2    write-flag & timer
   PREC   = normal    normal or accurate (medium, high low for compatibility)
   ISTART =      0    job   : 0-new  1-cont  2-samecut
   ICHARG =      1    charge: 1-file 2-atom 10-const
   ISPIN  =      1    spin polarized calculation?
   LNONCOLLINEAR =      F non collinear calculations
   LSORBIT =      F    spin-orbit coupling
   INIWAV =      1    electr: 0-lowe 1-rand  2-diag
   LASPH  =      F    aspherical Exc in radial PAW
 Electronic Relaxation 1
   ENCUT  =  500.0 eV  36.75 Ry    6.06 a.u.  32.93 32.93113.93*2*pi/ulx,y,z
   ENINI  =  500.0     initial cutoff
   ENAUG  =  644.9 eV  augmentation charge cutoff
   NELM   =    600;   NELMIN=  2; NELMDL=  0     # of ELM steps 
   EDIFF  = 0.1E-03   stopping-criterion for ELM
   LREAL  =      T    real-space projection
   NLSPLINE    = F    spline interpolate recip. space projectors
   LCOMPAT=      F    compatible to vasp.4.4
   GGA_COMPAT  = F    GGA compatible to vasp.4.4-vasp.4.6
   LMAXPAW     = -100 max onsite density
   LMAXMIX     =    2 max onsite mixed and CHGCAR
   VOSKOWN=      0    Vosko Wilk Nusair interpolation
   ROPT   =   -0.00050  -0.00050  -0.00050  -0.00050
   ROPT   =   -0.00050
 Ionic relaxation
   EDIFFG = 0.1E-02   stopping-criterion for IOM
   NSW    =      0    number of steps for IOM
   NBLOCK =      1;   KBLOCK =      1    inner block; outer block 
   IBRION =     -1    ionic relax: 0-MD 1-quasi-New 2-CG
   NFREE  =      0    steps in history (QN), initial steepest desc. (CG)
   ISIF   =      2    stress and relaxation
   IWAVPR =     10    prediction:  0-non 1-charg 2-wave 3-comb
   ISYM   =      0    0-nonsym 1-usesym 2-fastsym
   LCORR  =      T    Harris-Foulkes like correction to forces

   POTIM  = 0.5000    time-step for ionic-motion
   TEIN   =    0.0    initial temperature
   TEBEG  =    0.0;   TEEND  =   0.0 temperature during run
   SMASS  =  -3.00    Nose mass-parameter (am)
   estimated Nose-frequenzy (Omega)   =  0.10E-29 period in steps = 0.13E+47 mass=  -0.745E-26a.u.
   SCALEE = 1.0000    scale energy and forces
   NPACO  =    256;   APACO  = 16.0  distance and # of slots for P.C.
   PSTRESS=    0.0 pullay stress

  Mass of Ions in am
   POMASS =   1.00 12.01 14.00126.90207.20
  Ionic Valenz
   ZVAL   =   1.00  4.00  5.00  7.00  4.00
  Atomic Wigner-Seitz radii
   RWIGS  =  -1.00 -1.00 -1.00 -1.00 -1.00
  virtual crystal weights 
   VCA    =   1.00  1.00  1.00  1.00  1.00
   NELECT =    1134.0000    total number of electrons
   NUPDOWN=      -1.0000    fix difference up-down

 DOS related values:
   EMIN   =  10.00;   EMAX   =-10.00  energy-range for DOS
   EFERMI =   0.00
   ISMEAR =     0;   SIGMA  =   0.05  broadening in eV -4-tet -1-fermi 0-gaus

 Electronic relaxation 2 (details)
   IALGO  =     38    algorithm
   LDIAG  =      T    sub-space diagonalisation (order eigenvalues)
   LSUBROT=      F    optimize rotation matrix (better conditioning)
   TURBO    =      0    0=normal 1=particle mesh
   IRESTART =      0    0=no restart 2=restart with 2 vectors
   NREBOOT  =      0    no. of reboots
   NMIN     =      0    reboot dimension
   EREF     =   0.00    reference energy to select bands
   IMIX   =      4    mixing-type and parameters
     AMIX     =   0.40;   BMIX     =  0.01
     AMIX_MAG =   1.60;   BMIX_MAG =  0.01
     AMIN     =   0.01
     WC   =   100.;   INIMIX=   1;  MIXPRE=   1;  MAXMIX= -45

 Intra band minimization:
   WEIMIN = 0.0000     energy-eigenvalue tresh-hold
   EBREAK =  0.34E-07  absolut break condition
   DEPER  =   0.30     relativ break condition  

   TIME   =   0.40     timestep for ELM

  volume/ion in A,a.u.               =      62.72       423.28
  Fermi-wavevector in a.u.,A,eV,Ry     =   0.624944  1.180972  5.313816  0.390554
  Thomas-Fermi vector in A             =   1.685677
 
 Write flags
   LWAVE        =      F    write WAVECAR
   LDOWNSAMPLE  =      F    k-point downsampling of WAVECAR
   LCHARG       =      T    write CHGCAR
   LVTOT        =      T    write LOCPOT, total local potential
   LVHAR        =      F    write LOCPOT, Hartree potential only
   LELF         =      F    write electronic localiz. function (ELF)
   LORBIT       =      0    0 simple, 1 ext, 2 COOP (PROOUT), +10 PAW based schemes


 Dipole corrections
   LMONO  =      F    monopole corrections only (constant potential shift)
   LDIPOL =      T    correct potential (dipole corrections)
   IDIPOL =      3    1-x, 2-y, 3-z, 4-all directions 
   EPSILON=  1.0000000 bulk dielectric constant

 Exchange correlation treatment:
   GGA     =    --    GGA type
   LEXCH   =     8    internal setting for exchange type
   VOSKOWN=      0    Vosko Wilk Nusair interpolation
   LHFCALC =     F    Hartree Fock is set to
   LHFONE  =     F    Hartree Fock one center treatment
   AEXX    =    0.0000 exact exchange contribution

 Linear response parameters
   LEPSILON=     F    determine dielectric tensor
   LRPA    =     F    only Hartree local field effects (RPA)
   LNABLA  =     F    use nabla operator in PAW spheres
   LVEL    =     F    velocity operator in full k-point grid
   LINTERFAST=   F  fast interpolation
   KINTER  =     0    interpolate to denser k-point grid
   CSHIFT  =0.1000    complex shift for real part using Kramers Kronig
   OMEGAMAX=  -1.0    maximum frequency
   DEG_THRESHOLD= 0.2000000E-02 threshold for treating states as degnerate
   RTIME   =   -0.100 relaxation time in fs
  (WPLASMAI=    0.000 imaginary part of plasma frequency in eV, 0.658/RTIME)
   DFIELD  = 0.0000000 0.0000000 0.0000000 field for delta impulse in time
 
 Orbital magnetization related:
   ORBITALMAG=     F  switch on orbital magnetization
   LCHIMAG   =     F  perturbation theory with respect to B field
   DQ        =  0.001000  dq finite difference perturbation B field
   LLRAUG    =     F  two centre corrections for induced B field



--------------------------------------------------------------------------------------------------------


 Static calculation
 charge density and potential will be updated during run
 non-spin polarized calculation
 Variant of blocked Davidson
 Davidson routine will perform the subspace rotation
 perform sub-space diagonalisation
    after iterative eigenvector-optimisation
 modified Broyden-mixing scheme, WC =      100.0
 initial mixing is a Kerker type mixing with AMIX =  0.4000 and BMIX =      0.0100
 Hartree-type preconditioning will be used
 using additional bands           165
 real space projection scheme for non local part
[...]
     13.54561      0.00000     45.35368        -0.000884     -0.004802      0.013097
     13.54315      9.03140     45.35368         0.003616     -0.009097     -0.006209
     14.00397     10.03032     32.49000         0.141771      0.115725     -0.084373
     13.02556      8.61130     32.83201        -0.031428     -0.129986      0.035504
     15.71819      9.05196     33.80882         0.044054      0.008337     -0.097696
     15.46536      8.70450     35.50568         0.038662     -0.072654      0.073579
     13.41733     11.57120     34.97186        -0.069310      0.113745      0.045233
     14.58501     10.80421     36.07265        -0.086413     -0.104062      0.016726
     12.03846      9.91739     35.60712        -0.013525      0.133827      0.003134
     12.23150      8.27021     35.03708         0.054510     -0.142855      0.044103
     11.12258     10.02393     33.60326         0.055525      0.021044     -0.219749
     12.12765     11.48274     33.46320        -0.057459     -0.285241     -0.129211
     10.94567     11.64163     31.51119         0.027604      0.056132     -0.014952
     12.39954     10.85515     30.91879         0.139681      0.008855     -0.018157
     14.24956      7.07607     33.16098        -0.065934      0.011053     -0.045053
     14.05536      6.66825     34.87189        -0.078248      0.006134      0.101344
     15.64554      6.64900     34.11639         0.094381     -0.071846      0.083338
     15.59750     12.55095     34.70926        -0.023502     -0.012386     -0.029788
     15.25475     11.69361     33.21179        -0.001187      0.022380     -0.084192
     16.39894     10.99736     34.40234        -0.035794     -0.011117     -0.004050
     13.72618      9.55675     37.43992         0.018110      0.024878     -0.072065
     14.00059      7.88915     36.88077        -0.169817      0.121414     -0.063353
     12.41587      8.38999     37.47977        -0.024070     -0.046386      0.024949
      9.65429      9.57079     31.45681         0.236324      0.012724      0.008879
     10.42472      9.89267     29.90581        -0.052446      0.004202     -0.261940
     12.57161      8.60555     29.25923        -0.214718     -0.379526      0.470808
     10.13890      7.54714     32.67467        -0.129504      0.070168      0.075159
     13.75621      6.42358     29.45279        -0.183978      0.118231      0.174830
     11.35820      5.38909     32.86267        -0.110066     -0.009709      0.072822
     13.17074      4.82677     31.28496        -0.056460      0.097044      0.027256
      0.36356      4.54401     34.89328         0.211977      0.077155     -0.202070
      0.60886     13.68945     35.02194        -0.263334      0.004655      0.356756
      8.35876      4.13150     34.61085         0.823352     -0.479252      0.025080
      9.02049     13.72724     34.79877         0.220838     -0.174924     -0.279219
      4.31796      9.55185     34.90038        -0.063737     -0.290937      0.052204
      4.52325      0.18479     34.68196        -0.470498     -0.133386     -0.091155
     13.89957     17.71688     35.09750         0.223149      0.068070     -0.062395
      0.17993      4.41901     40.60777         0.630817     -0.745371      0.335512
      0.10400     13.73393     40.75474         0.808839     -0.363544      0.188635
      8.82488      4.21516     40.84039         0.406193     -0.397834     -0.031005
      8.96967     13.66649     40.56169        -0.101101     -0.016575      0.939602
      4.64823      8.94827     40.53851         0.458285      0.498123      0.049278
      4.55977     18.05201     40.40395        -0.498723     -0.504925      0.180163
     14.00430      8.82519     40.89859        -0.028394     -0.501482     -0.049256
     13.66384     18.03079     40.59546        -0.626929     -0.632237      0.074731
      9.02897      4.51561     46.44552         0.012451     -0.002192     -0.000492
      9.02651     13.54701     46.44552         0.006916      0.009986      0.037723
     18.05937      4.51561     46.44552        -0.002049      0.019486      0.053060
     18.05691     13.54701     46.44552         0.007874      0.014044      0.010021
      4.51521      0.00002     46.44421         0.003265      0.002208      0.055768
      4.51275      9.03142     46.44421        -0.009505     -0.011035      0.035204
     13.54561      0.00002     46.44421        -0.006086     -0.008155      0.013388
     13.54315      9.03142     46.44421        -0.008490     -0.014821      0.010039
     11.27283      8.23702     30.97706        -0.012708      0.140086     -0.236225
     12.28643      7.89285     30.06653         0.192062      0.555241     -0.401969
     10.92611      7.30903     31.96340         0.031128     -0.059043      0.022260
     12.96692      6.68212     30.17404         0.212609     -0.329383     -0.147939
     11.60132      6.09537     32.07043         0.175905     -0.232304      0.064483
     12.63614      5.77632     31.19044         0.027880      0.055388     -0.203780
     13.21815      9.63881     33.13968        -0.215906      0.135731      0.127804
     15.00392      8.62234     34.51612         0.060102     -0.003846     -0.065932
     14.29473     10.92288     35.02178         0.200325      0.050859     -0.103883
     12.75975      9.09928     35.52387        -0.068979     -0.189990     -0.140209
     11.94251     10.47915     33.01961         0.332329      0.397903      0.247233
     11.51636     10.70217     31.55348        -0.235483      0.005594      0.247358
     14.69376      7.18876     34.15469         0.093630     -0.026628     -0.090661
     15.45774     11.54924     34.27886        -0.066378     -0.001679     -0.062672
     13.27759      8.71997     36.88943         0.148167     -0.156672      0.108200
     10.63280      9.60309     30.93980        -0.123496     -0.187109      0.188053
      0.03046      3.41160     35.45196        -0.364004     -0.177331      0.256607
      0.57486     12.59356     35.73409        -0.314401     -0.263429      0.239353
      9.64339      3.99291     34.86612         0.030146      0.212805      0.177998
      8.61665     12.59216     35.31354        -0.026002     -0.045413      0.097069
      7.64789      5.16785     34.92888        -0.187171      0.936481      0.389222
      8.39455     14.86809     34.92310        -0.015782      0.313654      0.053647
     18.01464      5.71940     35.30399        -0.122301     -0.002622     -0.023911
     17.82862     14.68675     35.18385        -0.069578     -0.024062     -0.099133
      4.37839      8.28537     35.25657        -0.185983      0.053038      0.076548
      3.43121     17.57319     34.98428        -0.023517      0.381366     -0.168877
     12.60591     17.84155     35.22515        -0.460538     -0.455138     -0.004683
      5.70717     17.94404     35.12114         0.730194      0.355149     -0.219278
      5.30839     10.39908     34.97916        -0.227049      0.568007     -0.232290
     14.77647      0.56910     35.43455         0.340585     -0.445329     -0.205786
      0.99577      3.45420     41.01895        -0.681819      0.830888     -0.793426
      1.07738     12.91152     41.10726        -0.852011      0.485239     -0.284842
     10.11505      3.97699     40.91200        -0.282451      0.320222      0.082965
      9.60442     12.73422     41.23555         0.184133     -0.266083      0.004263
      3.80978      8.11817     41.08966        -0.334906     -0.197014      0.764240
      3.75160     17.25842     41.08055         0.126309      0.110152      0.018078
     12.92246      8.25490     41.37109        -0.229579     -0.089857      0.123905
     12.73889     17.28385     41.16539         0.224460      0.221909      0.071639
      8.23504      5.29534     41.25494         0.120283      0.923938      0.500850
      8.20807     14.59403     41.09719        -0.034887      0.045237     -0.119714
     17.49519      5.15964     41.38504        -0.112212      0.110477      0.213399
     16.99263     13.78491     41.31892        -0.313970      0.076348     -0.019602
      5.43882      0.80664     40.91521         0.465535      0.415150      0.726241
      5.40735      9.82039     41.17564        -0.288190     -0.278909      0.133374
     14.39288      0.86669     41.19259         0.301238      0.537204      0.808809
     14.26606     10.10001     40.97430         0.579496      0.564426     -0.261349
      0.82731      3.68697     47.03596         0.026117     -0.034223     -0.089253
      0.82485     12.71837     47.03596         0.027538     -0.031404     -0.068309
      9.85771      3.68697     47.03596         0.019649     -0.025017     -0.067384
      9.85525     12.71837     47.03596         0.025395     -0.029685     -0.098893
      3.68432      8.20234     47.03465        -0.009212     -0.005341     -0.067385
      3.68186     17.23373     47.03465        -0.010854     -0.008936     -0.059572
     12.71472      8.20234     47.03465        -0.013642     -0.007382     -0.067594
     12.71226     17.23373     47.03465        -0.012462     -0.012257     -0.056942
      8.20068      5.34457     47.03603        -0.024535      0.024331     -0.067295
      8.19822     14.37597     47.03603        -0.019076      0.013980     -0.094657
     17.23108      5.34457     47.03603        -0.007760      0.004671     -0.087826
     17.22862     14.37597     47.03603        -0.015294      0.013713     -0.065407
      5.34365      0.82909     47.03465         0.005120      0.004515     -0.063621
      5.34119      9.86049     47.03465         0.017789      0.021132     -0.067548
     14.37405      0.82909     47.03465         0.023315      0.019728     -0.058774
     14.37159      9.86049     47.03465         0.022826      0.027180     -0.071972
     13.82468      9.56366     34.53765        -0.242087      0.145260      0.061782
      9.13652      0.33768     34.45275         0.028001     -0.024223      0.010728
      8.60262      9.02313     34.68427         0.023395     -0.000249      0.043113
      0.03015      0.04502     34.34407         0.026723      0.020704     -0.000741
      0.71949      9.12460     34.56690        -0.075815     -0.061702     -0.000700
      4.18387      4.36544     34.48201         0.016012     -0.007621      0.031851
      4.53100     13.84563     34.57660         0.038058     -0.007148      0.026096
     13.28005      3.64652     34.69883         0.059736      0.087888     -0.035181
     12.72390     14.31274     34.55464        -0.033833     -0.057627     -0.049358
      0.02314     17.73504     40.87737        -0.021041      0.010656     -0.019678
      0.05126      8.98446     40.94637        -0.007452      0.022049     -0.010396
      9.08584      0.25643     40.87022        -0.032402     -0.015433      0.044821
      9.28869      8.81162     40.92617        -0.010028      0.005366      0.097861
      4.70496      4.44115     40.89185         0.007824     -0.007970     -0.019764
      4.56307     13.63244     40.91420         0.085141     -0.005886     -0.040050
     13.64360      4.76566     40.91220        -0.050466     -0.026478     -0.015357
     13.45790     13.60115     40.87548        -0.022694     -0.000699      0.037453
      2.42758      1.95166     37.99298         0.037871      0.049910     -0.031878
      2.68523     10.94210     38.10287         0.025753     -0.010906     -0.021288
     11.69926      1.89546     38.13424         0.035930      0.015745      0.039821
     11.14365     11.41405     38.23537        -0.052391     -0.084888     -0.160716
      6.50508      6.92315     37.88373         0.013980      0.076613     -0.011620
      6.71797     15.94385     37.95670        -0.028986     -0.028651     -0.044524
     16.11362      6.58105     38.22731        -0.047421     -0.007621     -0.171474
     15.74630     15.73798     37.91965         0.028299      0.060034     -0.011324
      2.25906      6.61457     38.10750        -0.017541     -0.026429     -0.014145
      2.25041     15.71955     37.95091        -0.011361     -0.044154     -0.021821
     10.59020      6.02786     37.61938         0.080762      0.050953      0.013765
     11.14570     15.77627     38.22131         0.002494     -0.058885     -0.004226
      6.96825      2.42499     37.84229        -0.017773      0.005835     -0.034649
      6.93138     11.35957     38.21067         0.014932      0.022008     -0.032862
     15.99713      2.40909     38.24173         0.026762      0.031016      0.012087
     16.30911     11.56572     38.27861        -0.121720      0.039115     -0.186218
      0.00000      0.00000     47.17356         0.001335      0.005107      0.322044
     -0.00246      9.03140     47.17356        -0.001949      0.003392      0.436817
      9.03040      0.00000     47.17356        -0.002279     -0.004035      0.374631
      9.02794      9.03140     47.17356         0.005061      0.004028      0.411252
      4.51398      4.51570     47.17425        -0.003978     -0.003345      0.441738
      4.51152     13.54710     47.17425         0.006346     -0.001167      0.422592
     13.54438      4.51570     47.17425         0.003329      0.002024      0.438274
     13.54192     13.54710     47.17425        -0.006337     -0.008172      0.394382
      2.45192      2.06295     44.04013        -0.010658     -0.031362     -0.026368
      2.44946     11.09435     44.04013         0.026270     -0.019160     -0.047057
     11.48232      2.06295     44.04013         0.061325     -0.028680     -0.059693
     11.47986     11.09435     44.04013         0.003432     -0.024435     -0.094925
      6.57602      6.96845     44.04013        -0.024373      0.072419     -0.006155
      6.57356     15.99985     44.04013         0.000352      0.013315     -0.035858
     15.60642      6.96845     44.04013         0.064979     -0.017304      0.024581
     15.60396     15.99985     44.04013        -0.032950      0.011904     -0.001215
      2.06108      6.57881     44.04000         0.024533      0.006006     -0.039755
      2.05862     15.61021     44.04000         0.064697      0.043300     -0.005750
     11.09148      6.57881     44.04000        -0.035792     -0.054186     -0.009470
     11.08902     15.61021     44.04000        -0.030705      0.006365     -0.036713
      6.96686      2.45259     44.04007        -0.055964     -0.089984     -0.030876
      6.96440     11.48399     44.04007         0.042291      0.010344     -0.043345
     15.99726      2.45259     44.04007         0.035334      0.025080     -0.048057
     15.99481     11.48399     44.04007        -0.001048      0.018226     -0.033749
      2.43163      2.08322     50.06849         0.000678     -0.019401      0.023236
      2.42917     11.11462     50.06849         0.014145     -0.007118      0.024589
     11.46203      2.08322     50.06849         0.006086     -0.016330      0.026739
     11.45957     11.11462     50.06849         0.011467     -0.007157      0.022273
      6.59631      6.94818     50.06849        -0.009439      0.013142      0.025737
      6.59385     15.97958     50.06849        -0.008620      0.010198      0.022535
     15.62671      6.94818     50.06849        -0.009004      0.010620      0.024010
     15.62425     15.97958     50.06849        -0.007086      0.014112      0.025474
      2.08113      6.59901     50.06905        -0.011450     -0.009862      0.024101
      2.07867     15.63041     50.06905        -0.015309     -0.004713      0.024144
     11.11153      6.59901     50.06905        -0.011434     -0.007632      0.024549
     11.10907     15.63041     50.06905        -0.010889     -0.012334      0.024785
      6.94681      2.43239     50.06905         0.013250      0.004038      0.025556
      6.94435     11.46379     50.06905         0.009619      0.011217      0.023265
     15.97721      2.43239     50.06905         0.019539      0.001192      0.024684
     15.97475     11.46379     50.06905         0.004751      0.013735      0.024006
     18.01216     18.02273     37.82903        -0.000211     -0.050299      0.014686
      0.16442      9.05064     37.82716        -0.031720     -0.017664     -0.000976
      9.06706      0.13346     37.72287        -0.034929      0.019704     -0.016991
      8.99489      8.89960     37.79878        -0.020660     -0.027476     -0.055584
      4.42332      4.40785     37.63387         0.023339     -0.014236      0.047712
      4.48553     13.45675     37.74312         0.041432      0.043940     -0.006672
     13.40535      4.45250     37.66894        -0.041294      0.027757     -0.023789
     13.27883     13.67113     37.63715         0.010684     -0.024015      0.042504
      0.00001      0.00001     44.04300        -0.041475     -0.136310      0.165493
     -0.00245      9.03141     44.04300        -0.023324     -0.068852      0.185107
      9.03041      0.00001     44.04300         0.039922      0.107063      0.090100
      9.02795      9.03141     44.04300        -0.073091     -0.070555      0.201128
      4.51397      4.51569     44.04275         0.067528      0.014748      0.034361
      4.51151     13.54709     44.04275        -0.096455      0.026309      0.137784
     13.54437      4.51569     44.04275        -0.038608      0.009891      0.185418
     13.54191     13.54709     44.04275         0.017410      0.150272      0.098731
      0.00000      0.00000     50.44728        -0.000632      0.003524     -0.609175
     -0.00246      9.03140     50.44728        -0.000157     -0.004684     -0.636777
      9.03040      0.00000     50.44728         0.000700      0.007568     -0.623888
      9.02794      9.03140     50.44728        -0.001037     -0.007721     -0.629409
      4.51397      4.51570     50.44728         0.003056      0.005436     -0.641252
      4.51151     13.54710     50.44728        -0.000419     -0.006724     -0.633293
     13.54437      4.51570     50.44728        -0.004045      0.004583     -0.642506
     13.54191     13.54710     50.44728         0.000011     -0.005096     -0.627448
 -----------------------------------------------------------------------------------
    total drift:                                0.095342      0.128848      0.685829


--------------------------------------------------------------------------------------------------------



  FREE ENERGIE OF THE ION-ELECTRON SYSTEM (eV)
  ---------------------------------------------------
  free  energy   TOTEN  =     -1575.78906375 eV

  energy  without entropy=    -1575.78906375  energy(sigma->0) =    -1575.78906375
 


--------------------------------------------------------------------------------------------------------


    POTLOK:  cpu time    0.5037: real time    0.5036


--------------------------------------------------------------------------------------------------------


     LOOP+:  cpu time  265.9131: real time  266.4842
 vacuum level on the upper side and lower side of the slab         2.276         1.575
    4ORBIT:  cpu time    0.0000: real time    0.0000

 total amount of memory used by VASP MPI-rank0  8653588. kBytes
=======================================================================

   base      :      30000. kBytes
   nonlr-proj:      53626. kBytes
   fftplans  :     249280. kBytes
   grid      :     701440. kBytes
   one-center:       2636. kBytes
   wavefun   :    7616606. kBytes
 
  
  
 General timing and accounting informations for this job:
 ========================================================
  
                  Total CPU time used (sec):      479.753
                            User time (sec):      392.352
                          System time (sec):       87.401
                         Elapsed time (sec):      482.265
  
                   Maximum memory used (kb):    10323624.
                   Average memory used (kb):          N/A
  
                          Minor page faults:      3575983
                          Major page faults:           13
                 Voluntary context switches:        10930
