<?xml version="1.0" encoding="ISO-8859-1"?>
<modeling>
 <generator>
  <i name="program" type="string">vasp </i>
  <i name="version" type="string">6.2.1  </i>
  <i name="subversion" type="string">16May21 (build Nov 15 2021 14:57:28) complex                          parallel </i>
  <i name="platform" type="string">LinuxPGI </i>
  <i name="date" type="string">2023 07 25 </i>
  <i name="time" type="string">01:07:32 </i>
 </generator>
 <incar>
  <i type="string" name="SYSTEM">PSC</i>
  <i type="int" name="ISTART">     1</i>
  <i type="string" name="PREC">Normal</i>
  <i name="BMIX">      0.01000000</i>
  <i name="AMIN">      0.01000000</i>
  <i type="int" name="ICHARG">     1</i>
  <i type="int" name="NELM">   600</i>
  <i type="int" name="ISYM">     0</i>
  <i name="ENCUT">    500.00000000</i>
  <i type="string" name="LREAL">Auto</i>
  <i type="int" name="ISMEAR">     0</i>
  <i name="SIGMA">      0.05000000</i>
  <i type="logical" name="LWAVE"> F  </i>
  <i type="logical" name="LVTOT"> T  </i>
  <i type="logical" name="GGA_COMPAT"> F  </i>
  <i type="logical" name="LDIPOL"> T  </i>
  <i type="int" name="IDIPOL">     3</i>
  <i type="int" name="IVDW">    12</i>
 </incar>
 <primitive_cell>
  <structure name="primitive_cell" >
   <crystal>
    <varray name="basis" >
     <v>      18.06080055       0.00000000       0.00000000 </v>
     <v>      -0.00491865      18.06279945       0.00000000 </v>
     <v>       0.00000000       0.00000000      62.48749924 </v>
    </varray>
    <i name="volume">  20385.21054034 </i>
    <varray name="rec_basis" >
     <v>       0.05536853       0.00001508      -0.00000000 </v>
     <v>       0.00000000       0.05536240       0.00000000 </v>
     <v>       0.00000000      -0.00000000       0.01600320 </v>
    </varray>
   </crystal>
   <varray name="positions" >
    <v>       0.44352945       0.32898682       0.56813085 </v>
    <v>       0.42032725       0.82913153       0.56873552 </v>
    <v>       0.96269108       0.32205833       0.57792083 </v>
    <v>       0.94777597       0.81412400       0.57493079 </v>
    <v>       0.32504332       0.95300891       0.57312782 </v>
    <v>       0.34420701       0.56147844       0.56577051 </v>
    <v>       0.80295860       0.08102069       0.57326407 </v>
    <v>       0.01630983       0.13872150       0.56117395 </v>
    <v>       0.06445434       0.65305795       0.56816851 </v>
    <v>       0.55973267       0.17247980       0.55444677 </v>
    <v>       0.50547454       0.64884121       0.56262193 </v>
    <v>       0.36350540       0.02066338       0.55693006 </v>
    <v>       0.28642217       0.63032300       0.55523160 </v>
    <v>       0.87315562       0.02260441       0.56369734 </v>
    <v>       0.96703375       0.18556948       0.58030296 </v>
    <v>       0.99334531       0.68764853       0.58390036 </v>
    <v>       0.56154951       0.25769651       0.56795784 </v>
    <v>       0.43409635       0.69415294       0.57570872 </v>
    <v>       0.28551286       0.43846689       0.57313142 </v>
    <v>       0.19099036       0.93045480       0.57050382 </v>
    <v>       0.67453950       0.03206572       0.57095184 </v>
    <v>       0.36786996       0.28523793       0.55613565 </v>
    <v>       0.48787165       0.87131030       0.55327808 </v>
    <v>       0.01886033       0.36476156       0.55883211 </v>
    <v>       0.99636494       0.86218680       0.55534948 </v>
    <v>       0.19514451       0.42797427       0.56426453 </v>
    <v>       0.13866253       0.99053025       0.55508753 </v>
    <v>       0.66559533       0.94232322       0.56101364 </v>
    <v>       0.43572802       0.18368259       0.54553905 </v>
    <v>       0.55107471       0.75968181       0.54767711 </v>
    <v>       0.05771821       0.24905455       0.54471680 </v>
    <v>       0.07731195       0.76300083       0.54854899 </v>
    <v>       0.18622903       0.54765251       0.55221665 </v>
    <v>       0.24492134       0.05774032       0.54442652 </v>
    <v>       0.78953709       0.92898075       0.55477942 </v>
    <v>       0.48420197       0.33677371       0.66713362 </v>
    <v>       0.44332052       0.81338261       0.67369145 </v>
    <v>       0.96732957       0.28064706       0.67852408 </v>
    <v>       0.92501190       0.72745472       0.67304062 </v>
    <v>       0.31081088       0.05231408       0.67092252 </v>
    <v>       0.29977113       0.55096789       0.67520939 </v>
    <v>       0.79413837       0.06055509       0.67525170 </v>
    <v>       0.75567078       0.59668875       0.66276550 </v>
    <v>       0.08409910       0.16329974       0.64500651 </v>
    <v>       0.10978794       0.71970423       0.65076938 </v>
    <v>       0.58110657       0.17237537       0.64901482 </v>
    <v>       0.56404363       0.66796280       0.65153217 </v>
    <v>       0.18200031       0.41456247       0.64795797 </v>
    <v>       0.17288458       0.92191591       0.64913582 </v>
    <v>       0.71100858       0.40023256       0.66180522 </v>
    <v>       0.67717073       0.92011065       0.64957939 </v>
    <v>       0.06383640       0.17728586       0.67193408 </v>
    <v>       0.05539640       0.67734659       0.66984382 </v>
    <v>       0.59682499       0.25737726       0.66065106 </v>
    <v>       0.53002626       0.69897458       0.67619280 </v>
    <v>       0.20006224       0.44626741       0.67373784 </v>
    <v>       0.20628895       0.95115174       0.67374737 </v>
    <v>       0.67469916       0.48626177       0.66958180 </v>
    <v>       0.69121284       0.95909403       0.67463152 </v>
    <v>       0.39964371       0.29623339       0.66008191 </v>
    <v>       0.42928149       0.84490184       0.64778466 </v>
    <v>       0.93636180       0.32556898       0.65566520 </v>
    <v>       0.90201022       0.79759383       0.65511956 </v>
    <v>       0.33249832       0.07632656       0.64480689 </v>
    <v>       0.33325342       0.57709172       0.65023736 </v>
    <v>       0.83478685       0.07701838       0.65065034 </v>
    <v>       0.83714223       0.58025573       0.64859036 </v>
    <v>       0.00699527       0.25565395       0.63272983 </v>
    <v>       0.01755400       0.79956318       0.63940670 </v>
    <v>       0.45437217       0.19089854       0.64643777 </v>
    <v>       0.50367064       0.75656922       0.63203352 </v>
    <v>       0.24844985       0.99739579       0.62922516 </v>
    <v>       0.26200242       0.49340082       0.63134729 </v>
    <v>       0.76703415       0.98958753       0.63269362 </v>
    <v>       0.81552016       0.45259051       0.64640450 </v>
    <v>       0.44874502       0.30128397       0.76888902 </v>
    <v>       0.44874501       0.80128391       0.76888902 </v>
    <v>       0.94874497       0.30128397       0.76888902 </v>
    <v>       0.94874501       0.80128391       0.76888902 </v>
    <v>       0.30127600       0.05129450       0.76887296 </v>
    <v>       0.30127601       0.55129450       0.76887296 </v>
    <v>       0.80127594       0.05129450       0.76887296 </v>
    <v>       0.80127598       0.55129450       0.76887296 </v>
    <v>       0.07877100       0.17118050       0.74344197 </v>
    <v>       0.07877101       0.67118045       0.74344197 </v>
    <v>       0.57877100       0.17118050       0.74344197 </v>
    <v>       0.57877099       0.67118045       0.74344197 </v>
    <v>       0.17119950       0.42117448       0.74342103 </v>
    <v>       0.17119950       0.92117451       0.74342103 </v>
    <v>       0.67119951       0.42117448       0.74342103 </v>
    <v>       0.67119950       0.92117451       0.74342103 </v>
    <v>       0.05125600       0.19871499       0.76888902 </v>
    <v>       0.05125600       0.69871493       0.76888902 </v>
    <v>       0.55125603       0.19871499       0.76888902 </v>
    <v>       0.55125602       0.69871493       0.76888902 </v>
    <v>       0.19872349       0.44870397       0.76887205 </v>
    <v>       0.19872349       0.94870397       0.76887205 </v>
    <v>       0.69872352       0.44870397       0.76887205 </v>
    <v>       0.69872351       0.94870397       0.76887205 </v>
    <v>       0.42123152       0.32881747       0.74344197 </v>
    <v>       0.42123151       0.82881744       0.74344197 </v>
    <v>       0.92123147       0.32881747       0.74344197 </v>
    <v>       0.92123151       0.82881744       0.74344197 </v>
    <v>       0.32880050       0.07882500       0.74342103 </v>
    <v>       0.32880049       0.57882496       0.74342103 </v>
    <v>       0.82880048       0.07882500       0.74342103 </v>
    <v>       0.82880052       0.57882496       0.74342103 </v>
    <v>       0.00000350       0.25000148       0.72582199 </v>
    <v>       0.00000350       0.75000145       0.72582199 </v>
    <v>       0.50000351       0.25000148       0.72582199 </v>
    <v>       0.50000350       0.75000145       0.72582199 </v>
    <v>       0.25000050       0.00000000       0.72580398 </v>
    <v>       0.25000052       0.50000000       0.72580398 </v>
    <v>       0.75000050       0.00000000       0.72580398 </v>
    <v>       0.75000049       0.50000000       0.72580398 </v>
    <v>       0.77553070       0.55530243       0.51994396 </v>
    <v>       0.72133593       0.47674219       0.52541728 </v>
    <v>       0.87042937       0.50113816       0.54104938 </v>
    <v>       0.85642554       0.48190211       0.56820453 </v>
    <v>       0.74307246       0.64060957       0.55966168 </v>
    <v>       0.80771335       0.59814723       0.57727794 </v>
    <v>       0.66670136       0.54905081       0.56982784 </v>
    <v>       0.67736513       0.45785872       0.56070535 </v>
    <v>       0.61599198       0.55494910       0.53775978 </v>
    <v>       0.67166352       0.63571232       0.53551837 </v>
    <v>       0.60622141       0.64450863       0.50427994 </v>
    <v>       0.68670772       0.60096748       0.49479965 </v>
    <v>       0.78908402       0.39174800       0.53068189 </v>
    <v>       0.77832528       0.36917012       0.55806181 </v>
    <v>       0.86637094       0.36810469       0.54597138 </v>
    <v>       0.86379984       0.69485071       0.55545930 </v>
    <v>       0.84480927       0.64738642       0.53149492 </v>
    <v>       0.90815109       0.60884041       0.55054756 </v>
    <v>       0.76014263       0.52908483       0.59915860 </v>
    <v>       0.77531081       0.43676245       0.59021040 </v>
    <v>       0.68757513       0.46448990       0.59979624 </v>
    <v>       0.53468817       0.52986196       0.50340971 </v>
    <v>       0.57735053       0.54768219       0.47858874 </v>
    <v>       0.69620120       0.47642377       0.46824130 </v>
    <v>       0.56148973       0.41782782       0.52289933 </v>
    <v>       0.76175775       0.35562489       0.47133896 </v>
    <v>       0.62896806       0.29835282       0.52590798 </v>
    <v>       0.72931747       0.26722132       0.50065946 </v>
    <v>       0.02019807       0.25156754       0.55840417 </v>
    <v>       0.03391808       0.75788077       0.56046311 </v>
    <v>       0.46287439       0.22872989       0.55388434 </v>
    <v>       0.49965839       0.75997320       0.55689166 </v>
    <v>       0.23922300       0.52881313       0.55851784 </v>
    <v>       0.25044845       0.01023062       0.55502233 </v>
    <v>       0.76986589       0.98084908       0.56167240 </v>
    <v>       0.01002896       0.24464705       0.64985422 </v>
    <v>       0.00596517       0.76034347       0.65220625 </v>
    <v>       0.48868397       0.23336117       0.65357695 </v>
    <v>       0.49684331       0.75660998       0.64911683 </v>
    <v>       0.25750035       0.49539752       0.64874591 </v>
    <v>       0.25274018       0.99940284       0.64659246 </v>
    <v>       0.77553038       0.48858382       0.65450841 </v>
    <v>       0.75681880       0.99822795       0.64965722 </v>
    <v>       0.49998898       0.24999498       0.74327702 </v>
    <v>       0.49998903       0.74999496       0.74327702 </v>
    <v>       0.99998898       0.24999498       0.74327702 </v>
    <v>       0.99998903       0.74999496       0.74327702 </v>
    <v>       0.25000050       0.00000100       0.74325596 </v>
    <v>       0.25000052       0.50000100       0.74325596 </v>
    <v>       0.75000050       0.00000100       0.74325596 </v>
    <v>       0.75000049       0.50000100       0.74325596 </v>
    <v>       0.62428402       0.45602115       0.49573206 </v>
    <v>       0.68040040       0.43696693       0.48116075 </v>
    <v>       0.60507293       0.40464561       0.51151674 </v>
    <v>       0.71806027       0.36993819       0.48288119 </v>
    <v>       0.64243997       0.33745454       0.51322948 </v>
    <v>       0.69973165       0.31979120       0.49914689 </v>
    <v>       0.73201494       0.53362765       0.53034100 </v>
    <v>       0.83087489       0.47735353       0.55236835 </v>
    <v>       0.79164280       0.60471690       0.56046055 </v>
    <v>       0.70662567       0.50375819       0.56849566 </v>
    <v>       0.66139727       0.58015077       0.52841947 </v>
    <v>       0.63780542       0.59249762       0.50495665 </v>
    <v>       0.81368056       0.39798681       0.54658442 </v>
    <v>       0.85604648       0.63939354       0.54857151 </v>
    <v>       0.73529238       0.48275854       0.59034903 </v>
    <v>       0.58886705       0.53164995       0.49513590 </v>
    <v>       0.00173809       0.18887454       0.56734486 </v>
    <v>       0.03201922       0.69720972       0.57185986 </v>
    <v>       0.53400079       0.22105703       0.55796951 </v>
    <v>       0.47728093       0.69713205       0.56512963 </v>
    <v>       0.42353036       0.28610434       0.55897386 </v>
    <v>       0.46501815       0.82313313       0.55888144 </v>
    <v>       0.99753054       0.31663986       0.56497689 </v>
    <v>       0.98736610       0.81309386       0.56305427 </v>
    <v>       0.24255004       0.45869821       0.56421801 </v>
    <v>       0.19024601       0.97289378       0.55986045 </v>
    <v>       0.69823961       0.98775134       0.56371511 </v>
    <v>       0.31626824       0.99342505       0.56205065 </v>
    <v>       0.29407445       0.57571814       0.55977859 </v>
    <v>       0.81816030       0.03150676       0.56706624 </v>
    <v>       0.05518647       0.19123303       0.65643446 </v>
    <v>       0.05984781       0.71481268       0.65784770 </v>
    <v>       0.56011534       0.22017584       0.65472299 </v>
    <v>       0.53197461       0.70499711       0.65990085 </v>
    <v>       0.21106428       0.44944161       0.65756615 </v>
    <v>       0.20798079       0.95546737       0.65742025 </v>
    <v>       0.71562207       0.45701127       0.66206992 </v>
    <v>       0.70559433       0.95687554       0.65877806 </v>
    <v>       0.45604168       0.29316286       0.66021109 </v>
    <v>       0.45468865       0.80796050       0.65768654 </v>
    <v>       0.96876084       0.28565009       0.66229311 </v>
    <v>       0.94106455       0.76316571       0.66123492 </v>
    <v>       0.30115184       0.04465745       0.65477433 </v>
    <v>       0.29954510       0.54368038       0.65894198 </v>
    <v>       0.79692561       0.04798222       0.65921333 </v>
    <v>       0.79004280       0.55916093       0.65571990 </v>
    <v>       0.04586250       0.20411950       0.75272599 </v>
    <v>       0.04586250       0.70411946       0.75272599 </v>
    <v>       0.54586251       0.20411950       0.75272599 </v>
    <v>       0.54586250       0.70411946       0.75272599 </v>
    <v>       0.20411900       0.45410100       0.75270499 </v>
    <v>       0.20411899       0.95410095       0.75270499 </v>
    <v>       0.70411898       0.45410100       0.75270499 </v>
    <v>       0.70411896       0.95410095       0.75270499 </v>
    <v>       0.45414002       0.29588849       0.75272697 </v>
    <v>       0.45414001       0.79588852       0.75272697 </v>
    <v>       0.95414002       0.29588849       0.75272697 </v>
    <v>       0.95414006       0.79588852       0.75272697 </v>
    <v>       0.29588249       0.04590050       0.75270499 </v>
    <v>       0.29588248       0.54590053       0.75270499 </v>
    <v>       0.79588244       0.04590050       0.75270499 </v>
    <v>       0.79588248       0.54590053       0.75270499 </v>
    <v>       0.76559633       0.52946735       0.55271297 </v>
    <v>       0.50588081       0.01869453       0.55135424 </v>
    <v>       0.47645038       0.49954209       0.55505938 </v>
    <v>       0.00167028       0.00249234       0.54961506 </v>
    <v>       0.03997444       0.50515992       0.55318102 </v>
    <v>       0.23172055       0.24168141       0.55182247 </v>
    <v>       0.25108382       0.76652761       0.55333632 </v>
    <v>       0.73535175       0.20187994       0.55529234 </v>
    <v>       0.70471934       0.79238782       0.55298481 </v>
    <v>       0.00154857       0.98185421       0.65416874 </v>
    <v>       0.00297356       0.49740119       0.65527297 </v>
    <v>       0.50307323       0.01419631       0.65405428 </v>
    <v>       0.51443385       0.48783245       0.65494978 </v>
    <v>       0.26057355       0.24587294       0.65440054 </v>
    <v>       0.25285601       0.75472479       0.65475816 </v>
    <v>       0.75549771       0.26383865       0.65472623 </v>
    <v>       0.74534944       0.75299234       0.65413847 </v>
    <v>       0.13444113       0.10804837       0.60800930 </v>
    <v>       0.14884197       0.60578104       0.60976796 </v>
    <v>       0.64779930       0.10493695       0.61026989 </v>
    <v>       0.61717968       0.63190941       0.61188825 </v>
    <v>       0.36028091       0.38328244       0.60626097 </v>
    <v>       0.37220460       0.88269005       0.60742868 </v>
    <v>       0.89228684       0.36434248       0.61175938 </v>
    <v>       0.87208678       0.87129261       0.60683579 </v>
    <v>       0.12518040       0.36619840       0.60984195 </v>
    <v>       0.12483866       0.87027224       0.60733607 </v>
    <v>       0.58645489       0.33371672       0.60203045 </v>
    <v>       0.61735877       0.87341228       0.61166329 </v>
    <v>       0.38585806       0.13425354       0.60559781 </v>
    <v>       0.38395159       0.62889324       0.61149303 </v>
    <v>       0.88577367       0.13337292       0.61199008 </v>
    <v>       0.90318599       0.64030594       0.61258029 </v>
    <v>       0.00000000       0.00000000       0.75492797 </v>
    <v>       0.00000000       0.50000000       0.75492797 </v>
    <v>       0.50000000       0.00000000       0.75492797 </v>
    <v>       0.49999999       0.50000000       0.75492797 </v>
    <v>       0.25000050       0.25000000       0.75493902 </v>
    <v>       0.25000051       0.74999997       0.75493902 </v>
    <v>       0.75000047       0.25000000       0.75493902 </v>
    <v>       0.75000046       0.74999997       0.75493902 </v>
    <v>       0.13579050       0.11421000       0.70478299 </v>
    <v>       0.13579050       0.61420998       0.70478299 </v>
    <v>       0.63579045       0.11421000       0.70478299 </v>
    <v>       0.63579049       0.61420998       0.70478299 </v>
    <v>       0.36420952       0.38578999       0.70478299 </v>
    <v>       0.36420950       0.88578996       0.70478299 </v>
    <v>       0.86420954       0.38578999       0.70478299 </v>
    <v>       0.86420953       0.88578996       0.70478299 </v>
    <v>       0.11421799       0.36421899       0.70478098 </v>
    <v>       0.11421799       0.86421899       0.70478098 </v>
    <v>       0.61421800       0.36421899       0.70478098 </v>
    <v>       0.61421799       0.86421899       0.70478098 </v>
    <v>       0.38578201       0.13578149       0.70478202 </v>
    <v>       0.38578200       0.63578149       0.70478202 </v>
    <v>       0.88578199       0.13578149       0.70478202 </v>
    <v>       0.88578203       0.63578149       0.70478202 </v>
    <v>       0.13466700       0.11533200       0.80125603 </v>
    <v>       0.13466699       0.61533199       0.80125603 </v>
    <v>       0.63466699       0.11533200       0.80125603 </v>
    <v>       0.63466698       0.61533199       0.80125603 </v>
    <v>       0.36533300       0.38466799       0.80125603 </v>
    <v>       0.36533299       0.88466796       0.80125603 </v>
    <v>       0.86533295       0.38466799       0.80125603 </v>
    <v>       0.86533294       0.88466796       0.80125603 </v>
    <v>       0.11532850       0.36533700       0.80126500 </v>
    <v>       0.11532850       0.86533698       0.80126500 </v>
    <v>       0.61532850       0.36533700       0.80126500 </v>
    <v>       0.61532849       0.86533698       0.80126500 </v>
    <v>       0.38467151       0.13466300       0.80126500 </v>
    <v>       0.38467150       0.63466297       0.80126500 </v>
    <v>       0.88467149       0.13466300       0.80126500 </v>
    <v>       0.88467153       0.63466297       0.80126500 </v>
    <v>       0.99757845       0.99778159       0.60538561 </v>
    <v>       0.00923988       0.50106519       0.60535570 </v>
    <v>       0.50203189       0.00738890       0.60368660 </v>
    <v>       0.49816794       0.49270309       0.60490144 </v>
    <v>       0.24497902       0.24402911       0.60226237 </v>
    <v>       0.24856031       0.74499792       0.60401070 </v>
    <v>       0.74230171       0.24650089       0.60282364 </v>
    <v>       0.73543526       0.75686653       0.60231487 </v>
    <v>       0.00000050       0.00000050       0.70482896 </v>
    <v>       0.00000050       0.50000048       0.70482896 </v>
    <v>       0.50000048       0.00000050       0.70482896 </v>
    <v>       0.50000046       0.50000048       0.70482896 </v>
    <v>       0.24999999       0.24999947       0.70482499 </v>
    <v>       0.25000001       0.74999950       0.70482499 </v>
    <v>       0.74999999       0.24999947       0.70482499 </v>
    <v>       0.74999998       0.74999950       0.70482499 </v>
    <v>       0.00000000       0.00000000       0.80731797 </v>
    <v>       0.00000000       0.50000000       0.80731797 </v>
    <v>       0.50000000       0.00000000       0.80731797 </v>
    <v>       0.49999999       0.50000000       0.80731797 </v>
    <v>       0.24999999       0.25000000       0.80731797 </v>
    <v>       0.25000001       0.74999997       0.80731797 </v>
    <v>       0.74999999       0.25000000       0.80731797 </v>
    <v>       0.74999998       0.74999997       0.80731797 </v>
   </varray>
  </structure>
  <varray name="primitive_index" >
   <v type="int" >        1 </v>
   <v type="int" >        2 </v>
   <v type="int" >        3 </v>
   <v type="int" >        4 </v>
   <v type="int" >        5 </v>
   <v type="int" >        6 </v>
   <v type="int" >        7 </v>
   <v type="int" >        8 </v>
   <v type="int" >        9 </v>
   <v type="int" >       10 </v>
   <v type="int" >       11 </v>
   <v type="int" >       12 </v>
   <v type="int" >       13 </v>
   <v type="int" >       14 </v>
   <v type="int" >       15 </v>
   <v type="int" >       16 </v>
   <v type="int" >       17 </v>
   <v type="int" >       18 </v>
   <v type="int" >       19 </v>
   <v type="int" >       20 </v>
   <v type="int" >       21 </v>
   <v type="int" >       22 </v>
   <v type="int" >       23 </v>
   <v type="int" >       24 </v>
   <v type="int" >       25 </v>
   <v type="int" >       26 </v>
   <v type="int" >       27 </v>
   <v type="int" >       28 </v>
   <v type="int" >       29 </v>
   <v type="int" >       30 </v>
   <v type="int" >       31 </v>
   <v type="int" >       32 </v>
   <v type="int" >       33 </v>
   <v type="int" >       34 </v>
   <v type="int" >       35 </v>
   <v type="int" >       36 </v>
   <v type="int" >       37 </v>
   <v type="int" >       38 </v>
   <v type="int" >       39 </v>
   <v type="int" >       40 </v>
   <v type="int" >       41 </v>
   <v type="int" >       42 </v>
   <v type="int" >       43 </v>
   <v type="int" >       44 </v>
   <v type="int" >       45 </v>
   <v type="int" >       46 </v>
   <v type="int" >       47 </v>
   <v type="int" >       48 </v>
   <v type="int" >       49 </v>
   <v type="int" >       50 </v>
   <v type="int" >       51 </v>
   <v type="int" >       52 </v>
   <v type="int" >       53 </v>
   <v type="int" >       54 </v>
   <v type="int" >       55 </v>
   <v type="int" >       56 </v>
   <v type="int" >       57 </v>
   <v type="int" >       58 </v>
   <v type="int" >       59 </v>
   <v type="int" >       60 </v>
   <v type="int" >       61 </v>
   <v type="int" >       62 </v>
   <v type="int" >       63 </v>
   <v type="int" >       64 </v>
   <v type="int" >       65 </v>
   <v type="int" >       66 </v>
   <v type="int" >       67 </v>
   <v type="int" >       68 </v>
   <v type="int" >       69 </v>
   <v type="int" >       70 </v>
   <v type="int" >       71 </v>
   <v type="int" >       72 </v>
   <v type="int" >       73 </v>
   <v type="int" >       74 </v>
   <v type="int" >       75 </v>
   <v type="int" >       76 </v>
   <v type="int" >       77 </v>
   <v type="int" >       78 </v>
   <v type="int" >       79 </v>
   <v type="int" >       80 </v>
   <v type="int" >       81 </v>
   <v type="int" >       82 </v>
   <v type="int" >       83 </v>
   <v type="int" >       84 </v>
   <v type="int" >       85 </v>
   <v type="int" >       86 </v>
   <v type="int" >       87 </v>
   <v type="int" >       88 </v>
   <v type="int" >       89 </v>
   <v type="int" >       90 </v>
   <v type="int" >       91 </v>
   <v type="int" >       92 </v>
   <v type="int" >       93 </v>
   <v type="int" >       94 </v>
   <v type="int" >       95 </v>
   <v type="int" >       96 </v>
   <v type="int" >       97 </v>
   <v type="int" >       98 </v>
   <v type="int" >       99 </v>
   <v type="int" >      100 </v>
   <v type="int" >      101 </v>
   <v type="int" >      102 </v>
   <v type="int" >      103 </v>
   <v type="int" >      104 </v>
   <v type="int" >      105 </v>
   <v type="int" >      106 </v>
   <v type="int" >      107 </v>
   <v type="int" >      108 </v>
   <v type="int" >      109 </v>
   <v type="int" >      110 </v>
   <v type="int" >      111 </v>
   <v type="int" >      112 </v>
   <v type="int" >      113 </v>
   <v type="int" >      114 </v>
   <v type="int" >      115 </v>
   <v type="int" >      116 </v>
   <v type="int" >      117 </v>
   <v type="int" >      118 </v>
   <v type="int" >      119 </v>
   <v type="int" >      120 </v>
   <v type="int" >      121 </v>
   <v type="int" >      122 </v>
   <v type="int" >      123 </v>
   <v type="int" >      124 </v>
   <v type="int" >      125 </v>
   <v type="int" >      126 </v>
   <v type="int" >      127 </v>
   <v type="int" >      128 </v>
   <v type="int" >      129 </v>
   <v type="int" >      130 </v>
   <v type="int" >      131 </v>
   <v type="int" >      132 </v>
   <v type="int" >      133 </v>
   <v type="int" >      134 </v>
   <v type="int" >      135 </v>
   <v type="int" >      136 </v>
   <v type="int" >      137 </v>
   <v type="int" >      138 </v>
   <v type="int" >      139 </v>
   <v type="int" >      140 </v>
   <v type="int" >      141 </v>
   <v type="int" >      142 </v>
   <v type="int" >      143 </v>
   <v type="int" >      144 </v>
   <v type="int" >      145 </v>
   <v type="int" >      146 </v>
   <v type="int" >      147 </v>
   <v type="int" >      148 </v>
   <v type="int" >      149 </v>
   <v type="int" >      150 </v>
   <v type="int" >      151 </v>
   <v type="int" >      152 </v>
   <v type="int" >      153 </v>
   <v type="int" >      154 </v>
   <v type="int" >      155 </v>
   <v type="int" >      156 </v>
   <v type="int" >      157 </v>
   <v type="int" >      158 </v>
   <v type="int" >      159 </v>
   <v type="int" >      160 </v>
   <v type="int" >      161 </v>
   <v type="int" >      162 </v>
   <v type="int" >      163 </v>
   <v type="int" >      164 </v>
   <v type="int" >      165 </v>
   <v type="int" >      166 </v>
   <v type="int" >      167 </v>
   <v type="int" >      168 </v>
   <v type="int" >      169 </v>
   <v type="int" >      170 </v>
   <v type="int" >      171 </v>
   <v type="int" >      172 </v>
   <v type="int" >      173 </v>
   <v type="int" >      174 </v>
   <v type="int" >      175 </v>
   <v type="int" >      176 </v>
   <v type="int" >      177 </v>
   <v type="int" >      178 </v>
   <v type="int" >      179 </v>
   <v type="int" >      180 </v>
   <v type="int" >      181 </v>
   <v type="int" >      182 </v>
   <v type="int" >      183 </v>
   <v type="int" >      184 </v>
   <v type="int" >      185 </v>
   <v type="int" >      186 </v>
   <v type="int" >      187 </v>
   <v type="int" >      188 </v>
   <v type="int" >      189 </v>
   <v type="int" >      190 </v>
   <v type="int" >      191 </v>
   <v type="int" >      192 </v>
   <v type="int" >      193 </v>
   <v type="int" >      194 </v>
   <v type="int" >      195 </v>
   <v type="int" >      196 </v>
   <v type="int" >      197 </v>
   <v type="int" >      198 </v>
   <v type="int" >      199 </v>
   <v type="int" >      200 </v>
   <v type="int" >      201 </v>
   <v type="int" >      202 </v>
   <v type="int" >      203 </v>
   <v type="int" >      204 </v>
   <v type="int" >      205 </v>
   <v type="int" >      206 </v>
   <v type="int" >      207 </v>
   <v type="int" >      208 </v>
   <v type="int" >      209 </v>
   <v type="int" >      210 </v>
   <v type="int" >      211 </v>
   <v type="int" >      212 </v>
   <v type="int" >      213 </v>
   <v type="int" >      214 </v>
   <v type="int" >      215 </v>
   <v type="int" >      216 </v>
   <v type="int" >      217 </v>
   <v type="int" >      218 </v>
   <v type="int" >      219 </v>
   <v type="int" >      220 </v>
   <v type="int" >      221 </v>
   <v type="int" >      222 </v>
   <v type="int" >      223 </v>
   <v type="int" >      224 </v>
   <v type="int" >      225 </v>
   <v type="int" >      226 </v>
   <v type="int" >      227 </v>
   <v type="int" >      228 </v>
   <v type="int" >      229 </v>
   <v type="int" >      230 </v>
   <v type="int" >      231 </v>
   <v type="int" >      232 </v>
   <v type="int" >      233 </v>
   <v type="int" >      234 </v>
   <v type="int" >      235 </v>
   <v type="int" >      236 </v>
   <v type="int" >      237 </v>
   <v type="int" >      238 </v>
   <v type="int" >      239 </v>
   <v type="int" >      240 </v>
   <v type="int" >      241 </v>
   <v type="int" >      242 </v>
   <v type="int" >      243 </v>
   <v type="int" >      244 </v>
   <v type="int" >      245 </v>
   <v type="int" >      246 </v>
   <v type="int" >      247 </v>
   <v type="int" >      248 </v>
   <v type="int" >      249 </v>
   <v type="int" >      250 </v>
   <v type="int" >      251 </v>
   <v type="int" >      252 </v>
   <v type="int" >      253 </v>
   <v type="int" >      254 </v>
   <v type="int" >      255 </v>
   <v type="int" >      256 </v>
   <v type="int" >      257 </v>
   <v type="int" >      258 </v>
   <v type="int" >      259 </v>
   <v type="int" >      260 </v>
   <v type="int" >      261 </v>
   <v type="int" >      262 </v>
   <v type="int" >      263 </v>
   <v type="int" >      264 </v>
   <v type="int" >      265 </v>
   <v type="int" >      266 </v>
   <v type="int" >      267 </v>
   <v type="int" >      268 </v>
   <v type="int" >      269 </v>
   <v type="int" >      270 </v>
   <v type="int" >      271 </v>
   <v type="int" >      272 </v>
   <v type="int" >      273 </v>
   <v type="int" >      274 </v>
   <v type="int" >      275 </v>
   <v type="int" >      276 </v>
   <v type="int" >      277 </v>
   <v type="int" >      278 </v>
   <v type="int" >      279 </v>
   <v type="int" >      280 </v>
   <v type="int" >      281 </v>
   <v type="int" >      282 </v>
   <v type="int" >      283 </v>
   <v type="int" >      284 </v>
   <v type="int" >      285 </v>
   <v type="int" >      286 </v>
   <v type="int" >      287 </v>
   <v type="int" >      288 </v>
   <v type="int" >      289 </v>
   <v type="int" >      290 </v>
   <v type="int" >      291 </v>
   <v type="int" >      292 </v>
   <v type="int" >      293 </v>
   <v type="int" >      294 </v>
   <v type="int" >      295 </v>
   <v type="int" >      296 </v>
   <v type="int" >      297 </v>
   <v type="int" >      298 </v>
   <v type="int" >      299 </v>
   <v type="int" >      300 </v>
   <v type="int" >      301 </v>
   <v type="int" >      302 </v>
   <v type="int" >      303 </v>
   <v type="int" >      304 </v>
   <v type="int" >      305 </v>
   <v type="int" >      306 </v>
   <v type="int" >      307 </v>
   <v type="int" >      308 </v>
   <v type="int" >      309 </v>
   <v type="int" >      310 </v>
   <v type="int" >      311 </v>
   <v type="int" >      312 </v>
   <v type="int" >      313 </v>
   <v type="int" >      314 </v>
   <v type="int" >      315 </v>
   <v type="int" >      316 </v>
   <v type="int" >      317 </v>
   <v type="int" >      318 </v>
   <v type="int" >      319 </v>
   <v type="int" >      320 </v>
   <v type="int" >      321 </v>
   <v type="int" >      322 </v>
   <v type="int" >      323 </v>
   <v type="int" >      324 </v>
   <v type="int" >      325 </v>
  </varray>
 </primitive_cell>
 <kpoints>
  <generation param="Gamma">
   <v type="int" name="divisions">       3        3        1 </v>
   <v name="usershift">      0.00000000       0.00000000       0.00000000 </v>
   <v name="genvec1">      0.33333333       0.00000000       0.00000000 </v>
   <v name="genvec2">      0.00000000       0.33333333       0.00000000 </v>
   <v name="genvec3">      0.00000000       0.00000000       1.00000000 </v>
   <v name="shift">      0.00000000       0.00000000       0.00000000 </v>
  </generation>
  <varray name="kpointlist" >
   <v>       0.00000000       0.00000000       0.00000000 </v>
   <v>       0.33333333       0.00000000       0.00000000 </v>
   <v>       0.00000000       0.33333333       0.00000000 </v>
   <v>       0.33333333       0.33333333       0.00000000 </v>
   <v>      -0.33333333       0.33333333       0.00000000 </v>
  </varray>
  <varray name="weights" >
   <v>       0.11111111 </v>
   <v>       0.22222222 </v>
   <v>       0.22222222 </v>
   <v>       0.22222222 </v>
   <v>       0.22222222 </v>
  </varray>
 </kpoints>
 <parameters>
  <separator name="general" >
   <i type="string" name="SYSTEM">PSC</i>
   <i type="logical" name="LCOMPAT"> F  </i>
  </separator>
  <separator name="electronic" >
   <i type="string" name="PREC">normal</i>
   <i name="ENMAX">    500.00000000</i>
   <i name="ENAUG">    644.87300000</i>
   <i name="EDIFF">      0.00010000</i>
   <i type="int" name="IALGO">    38</i>
   <i type="int" name="IWAVPR">    10</i>
   <i type="int" name="NBANDS">   732</i>
   <i type="int" name="NBANDSLOW">    -1</i>
   <i type="int" name="NBANDSHIGH">    -1</i>
   <i name="NELECT">   1134.00000000</i>
   <i type="int" name="TURBO">     0</i>
   <i type="int" name="IRESTART">     0</i>
   <i type="int" name="NREBOOT">     0</i>
   <i type="int" name="NMIN">     0</i>
   <i name="EREF">      0.00000000</i>
   <separator name="electronic smearing" >
    <i type="int" name="ISMEAR">     0</i>
    <i name="SIGMA">      0.05000000</i>
    <i name="KSPACING">      0.50000000</i>
    <i type="logical" name="KGAMMA"> T  </i>
    <i type="logical" name="KBLOWUP"> T  </i>
   </separator>
   <separator name="electronic projectors" >
    <i type="logical" name="LREAL"> T  </i>
    <v name="ROPT">     -0.00050000     -0.00050000     -0.00050000     -0.00050000     -0.00050000</v>
    <i type="int" name="LMAXPAW">  -100</i>
    <i type="int" name="LMAXMIX">     2</i>
    <i type="logical" name="NLSPLINE"> F  </i>
   </separator>
   <separator name="electronic startup" >
    <i type="int" name="ISTART">     0</i>
    <i type="int" name="ICHARG">     1</i>
    <i type="int" name="INIWAV">     1</i>
   </separator>
   <separator name="electronic spin" >
    <i type="int" name="ISPIN">     1</i>
    <i type="logical" name="LNONCOLLINEAR"> F  </i>
    <v name="MAGMOM">      1.00000000      1.00000000      1.00000000      1.00000000      1.00000000      1.00000000      1.00000000      1.00000000      1.00000000      1.00000000      1.00000000      1.00000000      1.00000000      1.00000000      1.00000000      1.00000000      1.00000000      1.00000000      1.00000000      1.00000000
      1.00000000      1.00000000      1.00000000      1.00000000      1.00000000      1.00000000      1.00000000      1.00000000      1.00000000      1.00000000      1.00000000      1.00000000      1.00000000      1.00000000      1.00000000      1.00000000      1.00000000      1.00000000      1.00000000      1.00000000
      1.00000000      1.00000000      1.00000000      1.00000000      1.00000000      1.00000000      1.00000000      1.00000000      1.00000000      1.00000000      1.00000000      1.00000000      1.00000000      1.00000000      1.00000000      1.00000000      1.00000000      1.00000000      1.00000000      1.00000000
      1.00000000      1.00000000      1.00000000      1.00000000      1.00000000      1.00000000      1.00000000      1.00000000      1.00000000      1.00000000      1.00000000      1.00000000      1.00000000      1.00000000      1.00000000      1.00000000      1.00000000      1.00000000      1.00000000      1.00000000
      1.00000000      1.00000000      1.00000000      1.00000000      1.00000000      1.00000000      1.00000000      1.00000000      1.00000000      1.00000000      1.00000000      1.00000000      1.00000000      1.00000000      1.00000000      1.00000000      1.00000000      1.00000000      1.00000000      1.00000000
      1.00000000      1.00000000      1.00000000      1.00000000      1.00000000      1.00000000      1.00000000      1.00000000      1.00000000      1.00000000      1.00000000      1.00000000      1.00000000      1.00000000      1.00000000      1.00000000      1.00000000      1.00000000      1.00000000      1.00000000
      1.00000000      1.00000000      1.00000000      1.00000000      1.00000000      1.00000000      1.00000000      1.00000000      1.00000000      1.00000000      1.00000000      1.00000000      1.00000000      1.00000000      1.00000000      1.00000000      1.00000000      1.00000000      1.00000000      1.00000000
      1.00000000      1.00000000      1.00000000      1.00000000      1.00000000      1.00000000      1.00000000      1.00000000      1.00000000      1.00000000      1.00000000      1.00000000      1.00000000      1.00000000      1.00000000      1.00000000      1.00000000      1.00000000      1.00000000      1.00000000
      1.00000000      1.00000000      1.00000000      1.00000000      1.00000000      1.00000000      1.00000000      1.00000000      1.00000000      1.00000000      1.00000000      1.00000000      1.00000000      1.00000000      1.00000000      1.00000000      1.00000000      1.00000000      1.00000000      1.00000000
      1.00000000      1.00000000      1.00000000      1.00000000      1.00000000      1.00000000      1.00000000      1.00000000      1.00000000      1.00000000      1.00000000      1.00000000      1.00000000      1.00000000      1.00000000      1.00000000      1.00000000      1.00000000      1.00000000      1.00000000
      1.00000000      1.00000000      1.00000000      1.00000000      1.00000000      1.00000000      1.00000000      1.00000000      1.00000000      1.00000000      1.00000000      1.00000000      1.00000000      1.00000000      1.00000000      1.00000000      1.00000000      1.00000000      1.00000000      1.00000000
      1.00000000      1.00000000      1.00000000      1.00000000      1.00000000      1.00000000      1.00000000      1.00000000      1.00000000      1.00000000      1.00000000      1.00000000      1.00000000      1.00000000      1.00000000      1.00000000      1.00000000      1.00000000      1.00000000      1.00000000
      1.00000000      1.00000000      1.00000000      1.00000000      1.00000000      1.00000000      1.00000000      1.00000000      1.00000000      1.00000000      1.00000000      1.00000000      1.00000000      1.00000000      1.00000000      1.00000000      1.00000000      1.00000000      1.00000000      1.00000000
      1.00000000      1.00000000      1.00000000      1.00000000      1.00000000      1.00000000      1.00000000      1.00000000      1.00000000      1.00000000      1.00000000      1.00000000      1.00000000      1.00000000      1.00000000      1.00000000      1.00000000      1.00000000      1.00000000      1.00000000
      1.00000000      1.00000000      1.00000000      1.00000000      1.00000000      1.00000000      1.00000000      1.00000000      1.00000000      1.00000000      1.00000000      1.00000000      1.00000000      1.00000000      1.00000000      1.00000000      1.00000000      1.00000000      1.00000000      1.00000000
      1.00000000      1.00000000      1.00000000      1.00000000      1.00000000      1.00000000      1.00000000      1.00000000      1.00000000      1.00000000      1.00000000      1.00000000      1.00000000      1.00000000      1.00000000      1.00000000      1.00000000      1.00000000      1.00000000      1.00000000
      1.00000000      1.00000000      1.00000000      1.00000000      1.00000000</v>
    <i name="NUPDOWN">     -1.00000000</i>
    <i type="logical" name="LSORBIT"> F  </i>
    <v name="SAXIS">      0.00000000      0.00000000      1.00000000</v>
    <i type="logical" name="LSPIRAL"> F  </i>
    <v name="QSPIRAL">      0.00000000      0.00000000      0.00000000</v>
    <i type="logical" name="LZEROZ"> F  </i>
   </separator>
   <separator name="electronic exchange-correlation" >
    <i type="logical" name="LASPH"> F  </i>
    <i type="logical" name="LMETAGGA"> F  </i>
   </separator>
   <separator name="electronic convergence" >
    <i type="int" name="NELM">   600</i>
    <i type="int" name="NELMDL">     0</i>
    <i type="int" name="NELMIN">     2</i>
    <i name="ENINI">    500.00000000</i>
    <separator name="electronic convergence detail" >
     <i type="logical" name="LDIAG"> T  </i>
     <i type="logical" name="LSUBROT"> F  </i>
     <i name="WEIMIN">      0.00000000</i>
     <i name="EBREAK">      0.00000003</i>
     <i name="DEPER">      0.30000000</i>
     <i type="int" name="NRMM">     4</i>
     <i name="TIME">      0.40000000</i>
    </separator>
   </separator>
   <separator name="electronic mixer" >
    <i name="AMIX">      0.40000000</i>
    <i name="BMIX">      0.01000000</i>
    <i name="AMIN">      0.01000000</i>
    <i name="AMIX_MAG">      1.60000000</i>
    <i name="BMIX_MAG">      0.01000000</i>
    <separator name="electronic mixer details" >
     <i type="int" name="IMIX">     4</i>
     <i type="logical" name="MIXFIRST"> F  </i>
     <i type="int" name="MAXMIX">   -45</i>
     <i name="WC">    100.00000000</i>
     <i type="int" name="INIMIX">     1</i>
     <i type="int" name="MIXPRE">     1</i>
     <i type="int" name="MREMOVE">     5</i>
    </separator>
   </separator>
   <separator name="electronic dipolcorrection" >
    <i type="logical" name="LDIPOL"> T  </i>
    <i type="logical" name="LMONO"> F  </i>
    <i type="int" name="IDIPOL">     3</i>
    <i name="EPSILON">      1.00000000</i>
    <v name="DIPOL">   -100.00000000   -100.00000000   -100.00000000</v>
    <i name="EFIELD">      0.00000000</i>
   </separator>
  </separator>
  <separator name="grids" >
   <i type="int" name="NGX">   100</i>
   <i type="int" name="NGY">   100</i>
   <i type="int" name="NGZ">   350</i>
   <i type="int" name="NGXF">   200</i>
   <i type="int" name="NGYF">   200</i>
   <i type="int" name="NGZF">   700</i>
   <i type="logical" name="ADDGRID"> F  </i>
  </separator>
  <separator name="ionic" >
   <i type="int" name="NSW">     0</i>
   <i type="int" name="IBRION">    -1</i>
   <i type="int" name="MDALGO">     0</i>
   <i type="int" name="ISIF">     2</i>
   <i name="PSTRESS">      0.00000000</i>
   <i name="EDIFFG">      0.00100000</i>
   <i type="int" name="NFREE">     0</i>
   <i name="POTIM">      0.50000000</i>
   <i name="SMASS">     -3.00000000</i>
   <i name="SCALEE">      1.00000000</i>
  </separator>
  <separator name="ionic md" >
   <i name="TEBEG">      0.00010000</i>
   <i name="TEEND">      0.00010000</i>
   <i type="int" name="NBLOCK">     1</i>
   <i type="int" name="KBLOCK">     1</i>
   <i type="int" name="NPACO">   256</i>
   <i name="APACO">     16.00000000</i>
  </separator>
  <separator name="symmetry" >
   <i type="int" name="ISYM">     0</i>
   <i name="SYMPREC">      0.00001000</i>
  </separator>
  <separator name="dos" >
   <i type="int" name="LORBIT">     0</i>
   <v name="RWIGS">     -1.00000000     -1.00000000     -1.00000000     -1.00000000     -1.00000000</v>
   <i type="int" name="NEDOS">   301</i>
   <i name="EMIN">     10.00000000</i>
   <i name="EMAX">    -10.00000000</i>
   <i name="EFERMI">      0.00000000</i>
  </separator>
  <separator name="writing" >
   <i type="int" name="NWRITE">     2</i>
   <i type="logical" name="LWAVE"> F  </i>
   <i type="logical" name="LDOWNSAMPLE"> F  </i>
   <i type="logical" name="LCHARG"> T  </i>
   <i type="logical" name="LPARD"> F  </i>
   <i type="logical" name="LVTOT"> T  </i>
   <i type="logical" name="LVHAR"> F  </i>
   <i type="logical" name="LELF"> F  </i>
   <i type="logical" name="LOPTICS"> F  </i>
   <v name="STM">      0.00000000      0.00000000      0.00000000      0.00000000      0.00000000      0.00000000      0.00000000</v>
  </separator>
  <separator name="performance" >
   <i type="int" name="NPAR">     4</i>
   <i type="int" name="NSIM">     4</i>
   <i type="int" name="NBLK">    -1</i>
   <i type="logical" name="LPLANE"> T  </i>
   <i type="logical" name="LSCALAPACK"> T  </i>
   <i type="logical" name="LSCAAWARE"> F  </i>
   <i type="logical" name="LSCALU"> F  </i>
   <i type="logical" name="LASYNC"> F  </i>
   <i type="logical" name="LORBITALREAL"> F  </i>
  </separator>
  <separator name="miscellaneous" >
   <i type="int" name="IDIOT">     3</i>
   <i type="int" name="PHON_NSTRUCT">    -1</i>
   <i type="logical" name="LMUSIC"> F  </i>
   <v name="POMASS">      1.00000000     12.01100000     14.00100000    126.90400000    207.20000000</v>
   <v name="DARWINR">      0.00000000      0.00000000      0.00000000      0.00000000      0.00000000</v>
   <v name="DARWINV">      1.00000000      1.00000000      1.00000000      1.00000000      1.00000000</v>
   <i type="logical" name="LCORR"> T  </i>
  </separator>
  <i type="logical" name="GGA_COMPAT"> F  </i>
  <i type="logical" name="LBERRY"> F  </i>
  <i type="int" name="ICORELEVEL">     0</i>
  <i type="logical" name="LDAU"> F  </i>
  <i type="int" name="I_CONSTRAINED_M">     0</i>
  <separator name="electronic exchange-correlation" >
   <i type="string" name="GGA">--</i>
   <i type="int" name="VOSKOWN">     0</i>
   <i type="logical" name="LHFCALC"> F  </i>
   <i type="string" name="PRECFOCK"></i>
   <i type="logical" name="LSYMGRAD"> F  </i>
   <i type="logical" name="LHFONE"> F  </i>
   <i type="logical" name="LRHFCALC"> F  </i>
   <i type="logical" name="LTHOMAS"> F  </i>
   <i type="logical" name="LMODELHF"> F  </i>
   <i type="logical" name="LFOCKACE"> F  </i>
   <i name="ENCUT4O">     -1.00000000</i>
   <i type="int" name="EXXOEP">     0</i>
   <i type="int" name="FOURORBIT">     0</i>
   <i name="AEXX">      0.00000000</i>
   <i name="HFALPHA">      0.00000000</i>
   <i name="MCALPHA">      0.00000000</i>
   <i name="ALDAX">      1.00000000</i>
   <i name="AGGAX">      1.00000000</i>
   <i name="ALDAC">      1.00000000</i>
   <i name="AGGAC">      1.00000000</i>
   <i type="int" name="NKREDX">     1</i>
   <i type="int" name="NKREDY">     1</i>
   <i type="int" name="NKREDZ">     1</i>
   <i type="logical" name="SHIFTRED"> F  </i>
   <i type="logical" name="ODDONLY"> F  </i>
   <i type="logical" name="EVENONLY"> F  </i>
   <i type="int" name="LMAXFOCK">     0</i>
   <i type="int" name="NMAXFOCKAE">     0</i>
   <i type="logical" name="LFOCKAEDFT"> F  </i>
   <i name="HFSCREEN">      0.00000000</i>
   <i name="HFSCREENC">      0.00000000</i>
   <i type="int" name="NBANDSGWLOW">     0</i>
  </separator>
  <separator name="vdW DFT" >
   <i type="logical" name="LUSE_VDW"> F  </i>
   <i name="Zab_VDW">     -0.84910000</i>
   <i name="PARAM1">      0.12340000</i>
   <i name="PARAM2">      1.00000000</i>
   <i name="PARAM3">      0.00000000</i>
  </separator>
  <separator name="model GW" >
   <i type="int" name="MODEL_GW">     0</i>
   <i name="MODEL_EPS0">     37.63423484</i>
   <i name="MODEL_ALPHA">      1.00000000</i>
  </separator>
  <separator name="linear response parameters" >
   <i type="logical" name="LEPSILON"> F  </i>
   <i type="logical" name="LRPA"> F  </i>
   <i type="logical" name="LNABLA"> F  </i>
   <i type="logical" name="LVEL"> F  </i>
   <i type="int" name="KINTER">     0</i>
   <i name="CSHIFT">      0.10000000</i>
   <i name="OMEGAMAX">     -1.00000000</i>
   <i name="DEG_THRESHOLD">      0.00200000</i>
   <i name="RTIME">     -0.10000000</i>
   <i name="WPLASMAI">      0.00000000</i>
   <v name="DFIELD">      0.00000000      0.00000000      0.00000000</v>
   <v name="WPLASMA">      0.00000000      0.00000000      0.00000000      0.00000000      0.00000000      0.00000000      0.00000000      0.00000000      0.00000000</v>
  </separator>
  <separator name="orbital magnetization" >
   <i type="logical" name="NUCIND"> F  </i>
   <v name="MAGPOS">      0.00000000      0.00000000      0.00000000</v>
   <i type="logical" name="LNICSALL"> T  </i>
   <i type="logical" name="ORBITALMAG"> F  </i>
   <i type="logical" name="LMAGBLOCH"> F  </i>
   <i type="logical" name="LCHIMAG"> F  </i>
   <i type="logical" name="LGAUGE"> T  </i>
   <i type="int" name="MAGATOM">     0</i>
   <v name="MAGDIPOL">      0.00000000      0.00000000      0.00000000</v>
   <v name="AVECCONST">      0.00000000      0.00000000      0.00000000</v>
  </separator>
  <separator name="response functions" >
   <i type="logical" name="LFINITE_TEMPERATURE"> F  </i>
   <i type="logical" name="LADDER"> F  </i>
   <i type="logical" name="LRPAFORCE"> F  </i>
   <i type="logical" name="LFXC"> F  </i>
   <i type="logical" name="LHARTREE"> T  </i>
   <i type="int" name="IBSE">     0</i>
   <v type="int" name="KPOINT">    -1     0     0     0</v>
   <i type="logical" name="LTCTC"> F  </i>
   <i type="logical" name="LTCTE"> F  </i>
   <i type="logical" name="LTETE"> F  </i>
   <i type="logical" name="LTRIPLET"> F  </i>
   <i type="logical" name="LFXCEPS"> F  </i>
   <i type="logical" name="LFXHEG"> F  </i>
   <i type="int" name="NATURALO">     2</i>
   <i type="logical" name="LHOLEGF"> F  </i>
   <i type="logical" name="L2ORDER"> F  </i>
   <i type="logical" name="LDMP1"> F  </i>
   <i type="logical" name="LMP2LT"> F  </i>
   <i type="logical" name="LSMP2LT"> F  </i>
   <i type="logical" name="LGWLF"> F  </i>
   <i name="ENCUTGW">     -2.00000000</i>
   <i name="ENCUTGWSOFT">     -2.00000000</i>
   <i name="ENCUTLF">     -1.00000000</i>
   <i type="logical" name="LESF_SPLINES"> F  </i>
   <i type="int" name="LMAXMP2">    -1</i>
   <i name="SCISSOR">      0.00000000</i>
   <i type="int" name="NOMEGA">     0</i>
   <i type="int" name="NOMEGAR">     0</i>
   <i type="int" name="NBANDSGW">    -1</i>
   <i type="int" name="NBANDSO">    -1</i>
   <i type="int" name="NBANDSV">    -1</i>
   <i type="int" name="NELM">   600</i>
   <i type="int" name="NELMHF">     1</i>
   <i type="int" name="DIM">     3</i>
   <i type="int" name="IESPILON">     4</i>
   <i type="int" name="ANTIRES">     0</i>
   <i name="OMEGAMAX">    -30.00000000</i>
   <i name="OMEGAMIN">    -30.00000000</i>
   <i name="OMEGATL">   -200.00000000</i>
   <i type="int" name="OMEGAGRID">     0</i>
   <i name="CSHIFT">     -0.10000000</i>
   <i type="logical" name="LSELFENERGY"> F  </i>
   <i type="logical" name="LSPECTRAL"> F  </i>
   <i type="logical" name="LSPECTRALGW"> F  </i>
   <i type="logical" name="LSINGLES"> F  </i>
   <i type="logical" name="LFERMIGW"> F  </i>
   <i type="logical" name="ODDONLYGW"> F  </i>
   <i type="logical" name="EVENONLYGW"> F  </i>
   <i type="int" name="NKREDLFX">     1</i>
   <i type="int" name="NKREDLFY">     1</i>
   <i type="int" name="NKREDLFZ">     1</i>
   <i type="int" name="MAXMEM">  2800</i>
   <i type="int" name="TELESCOPE">     0</i>
   <i type="int" name="NTAUPAR">    -1</i>
   <i type="int" name="NOMEGAPAR">    -1</i>
   <i name="DAMP_NEWTON">      0.80000001</i>
   <i name="LAMBDA">      1.00000000</i>
  </separator>
  <separator name="External order field" >
   <i name="OFIELD_KAPPA">      0.00000000</i>
   <v name="OFIELD_K">      0.00000000      0.00000000      0.00000000</v>
   <i name="OFIELD_Q6_NEAR">      0.00000000</i>
   <i name="OFIELD_Q6_FAR">      0.00000000</i>
   <i name="OFIELD_A">      0.00000000</i>
  </separator>
 </parameters>
 <atominfo>
  <atoms>     325 </atoms>
  <types>       5 </types>
  <array name="atoms" >
   <dimension dim="1">ion</dimension>
   <field type="string">element</field>
   <field type="int">atomtype</field>
   <set>
    <rc><c>H </c><c>   1</c></rc>
    <rc><c>H </c><c>   1</c></rc>
    <rc><c>H </c><c>   1</c></rc>
    <rc><c>H </c><c>   1</c></rc>
    <rc><c>H </c><c>   1</c></rc>
    <rc><c>H </c><c>   1</c></rc>
    <rc><c>H </c><c>   1</c></rc>
    <rc><c>H </c><c>   1</c></rc>
    <rc><c>H </c><c>   1</c></rc>
    <rc><c>H </c><c>   1</c></rc>
    <rc><c>H </c><c>   1</c></rc>
    <rc><c>H </c><c>   1</c></rc>
    <rc><c>H </c><c>   1</c></rc>
    <rc><c>H </c><c>   1</c></rc>
    <rc><c>H </c><c>   1</c></rc>
    <rc><c>H </c><c>   1</c></rc>
    <rc><c>H </c><c>   1</c></rc>
    <rc><c>H </c><c>   1</c></rc>
    <rc><c>H </c><c>   1</c></rc>
    <rc><c>H </c><c>   1</c></rc>
    <rc><c>H </c><c>   1</c></rc>
    <rc><c>H </c><c>   1</c></rc>
    <rc><c>H </c><c>   1</c></rc>
    <rc><c>H </c><c>   1</c></rc>
    <rc><c>H </c><c>   1</c></rc>
    <rc><c>H </c><c>   1</c></rc>
    <rc><c>H </c><c>   1</c></rc>
    <rc><c>H </c><c>   1</c></rc>
    <rc><c>H </c><c>   1</c></rc>
    <rc><c>H </c><c>   1</c></rc>
    <rc><c>H </c><c>   1</c></rc>
    <rc><c>H </c><c>   1</c></rc>
    <rc><c>H </c><c>   1</c></rc>
    <rc><c>H </c><c>   1</c></rc>
    <rc><c>H </c><c>   1</c></rc>
    <rc><c>H </c><c>   1</c></rc>
    <rc><c>H </c><c>   1</c></rc>
    <rc><c>H </c><c>   1</c></rc>
    <rc><c>H </c><c>   1</c></rc>
    <rc><c>H </c><c>   1</c></rc>
    <rc><c>H </c><c>   1</c></rc>
    <rc><c>H </c><c>   1</c></rc>
    <rc><c>H </c><c>   1</c></rc>
    <rc><c>H </c><c>   1</c></rc>
    <rc><c>H </c><c>   1</c></rc>
    <rc><c>H </c><c>   1</c></rc>
    <rc><c>H </c><c>   1</c></rc>
    <rc><c>H </c><c>   1</c></rc>
    <rc><c>H </c><c>   1</c></rc>
    <rc><c>H </c><c>   1</c></rc>
    <rc><c>H </c><c>   1</c></rc>
    <rc><c>H </c><c>   1</c></rc>
    <rc><c>H </c><c>   1</c></rc>
    <rc><c>H </c><c>   1</c></rc>
    <rc><c>H </c><c>   1</c></rc>
    <rc><c>H </c><c>   1</c></rc>
    <rc><c>H </c><c>   1</c></rc>
    <rc><c>H </c><c>   1</c></rc>
    <rc><c>H </c><c>   1</c></rc>
    <rc><c>H </c><c>   1</c></rc>
    <rc><c>H </c><c>   1</c></rc>
    <rc><c>H </c><c>   1</c></rc>
    <rc><c>H </c><c>   1</c></rc>
    <rc><c>H </c><c>   1</c></rc>
    <rc><c>H </c><c>   1</c></rc>
    <rc><c>H </c><c>   1</c></rc>
    <rc><c>H </c><c>   1</c></rc>
    <rc><c>H </c><c>   1</c></rc>
    <rc><c>H </c><c>   1</c></rc>
    <rc><c>H </c><c>   1</c></rc>
    <rc><c>H </c><c>   1</c></rc>
    <rc><c>H </c><c>   1</c></rc>
    <rc><c>H </c><c>   1</c></rc>
    <rc><c>H </c><c>   1</c></rc>
    <rc><c>H </c><c>   1</c></rc>
    <rc><c>H </c><c>   1</c></rc>
    <rc><c>H </c><c>   1</c></rc>
    <rc><c>H </c><c>   1</c></rc>
    <rc><c>H </c><c>   1</c></rc>
    <rc><c>H </c><c>   1</c></rc>
    <rc><c>H </c><c>   1</c></rc>
    <rc><c>H </c><c>   1</c></rc>
    <rc><c>H </c><c>   1</c></rc>
    <rc><c>H </c><c>   1</c></rc>
    <rc><c>H </c><c>   1</c></rc>
    <rc><c>H </c><c>   1</c></rc>
    <rc><c>H </c><c>   1</c></rc>
    <rc><c>H </c><c>   1</c></rc>
    <rc><c>H </c><c>   1</c></rc>
    <rc><c>H </c><c>   1</c></rc>
    <rc><c>H </c><c>   1</c></rc>
    <rc><c>H </c><c>   1</c></rc>
    <rc><c>H </c><c>   1</c></rc>
    <rc><c>H </c><c>   1</c></rc>
    <rc><c>H </c><c>   1</c></rc>
    <rc><c>H </c><c>   1</c></rc>
    <rc><c>H </c><c>   1</c></rc>
    <rc><c>H </c><c>   1</c></rc>
    <rc><c>H </c><c>   1</c></rc>
    <rc><c>H </c><c>   1</c></rc>
    <rc><c>H </c><c>   1</c></rc>
    <rc><c>H </c><c>   1</c></rc>
    <rc><c>H </c><c>   1</c></rc>
    <rc><c>H </c><c>   1</c></rc>
    <rc><c>H </c><c>   1</c></rc>
    <rc><c>H </c><c>   1</c></rc>
    <rc><c>H </c><c>   1</c></rc>
    <rc><c>H </c><c>   1</c></rc>
    <rc><c>H </c><c>   1</c></rc>
    <rc><c>H </c><c>   1</c></rc>
    <rc><c>H </c><c>   1</c></rc>
    <rc><c>H </c><c>   1</c></rc>
    <rc><c>H </c><c>   1</c></rc>
    <rc><c>H </c><c>   1</c></rc>
    <rc><c>H </c><c>   1</c></rc>
    <rc><c>H </c><c>   1</c></rc>
    <rc><c>H </c><c>   1</c></rc>
    <rc><c>H </c><c>   1</c></rc>
    <rc><c>H </c><c>   1</c></rc>
    <rc><c>H </c><c>   1</c></rc>
    <rc><c>H </c><c>   1</c></rc>
    <rc><c>H </c><c>   1</c></rc>
    <rc><c>H </c><c>   1</c></rc>
    <rc><c>H </c><c>   1</c></rc>
    <rc><c>H </c><c>   1</c></rc>
    <rc><c>H </c><c>   1</c></rc>
    <rc><c>H </c><c>   1</c></rc>
    <rc><c>H </c><c>   1</c></rc>
    <rc><c>H </c><c>   1</c></rc>
    <rc><c>H </c><c>   1</c></rc>
    <rc><c>H </c><c>   1</c></rc>
    <rc><c>H </c><c>   1</c></rc>
    <rc><c>H </c><c>   1</c></rc>
    <rc><c>H </c><c>   1</c></rc>
    <rc><c>H </c><c>   1</c></rc>
    <rc><c>H </c><c>   1</c></rc>
    <rc><c>H </c><c>   1</c></rc>
    <rc><c>H </c><c>   1</c></rc>
    <rc><c>H </c><c>   1</c></rc>
    <rc><c>H </c><c>   1</c></rc>
    <rc><c>H </c><c>   1</c></rc>
    <rc><c>H </c><c>   1</c></rc>
    <rc><c>H </c><c>   1</c></rc>
    <rc><c>C </c><c>   2</c></rc>
    <rc><c>C </c><c>   2</c></rc>
    <rc><c>C </c><c>   2</c></rc>
    <rc><c>C </c><c>   2</c></rc>
    <rc><c>C </c><c>   2</c></rc>
    <rc><c>C </c><c>   2</c></rc>
    <rc><c>C </c><c>   2</c></rc>
    <rc><c>C </c><c>   2</c></rc>
    <rc><c>C </c><c>   2</c></rc>
    <rc><c>C </c><c>   2</c></rc>
    <rc><c>C </c><c>   2</c></rc>
    <rc><c>C </c><c>   2</c></rc>
    <rc><c>C </c><c>   2</c></rc>
    <rc><c>C </c><c>   2</c></rc>
    <rc><c>C </c><c>   2</c></rc>
    <rc><c>C </c><c>   2</c></rc>
    <rc><c>C </c><c>   2</c></rc>
    <rc><c>C </c><c>   2</c></rc>
    <rc><c>C </c><c>   2</c></rc>
    <rc><c>C </c><c>   2</c></rc>
    <rc><c>C </c><c>   2</c></rc>
    <rc><c>C </c><c>   2</c></rc>
    <rc><c>C </c><c>   2</c></rc>
    <rc><c>C </c><c>   2</c></rc>
    <rc><c>C </c><c>   2</c></rc>
    <rc><c>C </c><c>   2</c></rc>
    <rc><c>C </c><c>   2</c></rc>
    <rc><c>C </c><c>   2</c></rc>
    <rc><c>C </c><c>   2</c></rc>
    <rc><c>C </c><c>   2</c></rc>
    <rc><c>C </c><c>   2</c></rc>
    <rc><c>C </c><c>   2</c></rc>
    <rc><c>C </c><c>   2</c></rc>
    <rc><c>C </c><c>   2</c></rc>
    <rc><c>C </c><c>   2</c></rc>
    <rc><c>C </c><c>   2</c></rc>
    <rc><c>C </c><c>   2</c></rc>
    <rc><c>C </c><c>   2</c></rc>
    <rc><c>C </c><c>   2</c></rc>
    <rc><c>N </c><c>   3</c></rc>
    <rc><c>N </c><c>   3</c></rc>
    <rc><c>N </c><c>   3</c></rc>
    <rc><c>N </c><c>   3</c></rc>
    <rc><c>N </c><c>   3</c></rc>
    <rc><c>N </c><c>   3</c></rc>
    <rc><c>N </c><c>   3</c></rc>
    <rc><c>N </c><c>   3</c></rc>
    <rc><c>N </c><c>   3</c></rc>
    <rc><c>N </c><c>   3</c></rc>
    <rc><c>N </c><c>   3</c></rc>
    <rc><c>N </c><c>   3</c></rc>
    <rc><c>N </c><c>   3</c></rc>
    <rc><c>N </c><c>   3</c></rc>
    <rc><c>N </c><c>   3</c></rc>
    <rc><c>N </c><c>   3</c></rc>
    <rc><c>N </c><c>   3</c></rc>
    <rc><c>N </c><c>   3</c></rc>
    <rc><c>N </c><c>   3</c></rc>
    <rc><c>N </c><c>   3</c></rc>
    <rc><c>N </c><c>   3</c></rc>
    <rc><c>N </c><c>   3</c></rc>
    <rc><c>N </c><c>   3</c></rc>
    <rc><c>N </c><c>   3</c></rc>
    <rc><c>N </c><c>   3</c></rc>
    <rc><c>N </c><c>   3</c></rc>
    <rc><c>N </c><c>   3</c></rc>
    <rc><c>N </c><c>   3</c></rc>
    <rc><c>N </c><c>   3</c></rc>
    <rc><c>N </c><c>   3</c></rc>
    <rc><c>N </c><c>   3</c></rc>
    <rc><c>N </c><c>   3</c></rc>
    <rc><c>N </c><c>   3</c></rc>
    <rc><c>N </c><c>   3</c></rc>
    <rc><c>N </c><c>   3</c></rc>
    <rc><c>N </c><c>   3</c></rc>
    <rc><c>N </c><c>   3</c></rc>
    <rc><c>N </c><c>   3</c></rc>
    <rc><c>N </c><c>   3</c></rc>
    <rc><c>N </c><c>   3</c></rc>
    <rc><c>N </c><c>   3</c></rc>
    <rc><c>N </c><c>   3</c></rc>
    <rc><c>N </c><c>   3</c></rc>
    <rc><c>N </c><c>   3</c></rc>
    <rc><c>N </c><c>   3</c></rc>
    <rc><c>N </c><c>   3</c></rc>
    <rc><c>N </c><c>   3</c></rc>
    <rc><c>I </c><c>   4</c></rc>
    <rc><c>I </c><c>   4</c></rc>
    <rc><c>I </c><c>   4</c></rc>
    <rc><c>I </c><c>   4</c></rc>
    <rc><c>I </c><c>   4</c></rc>
    <rc><c>I </c><c>   4</c></rc>
    <rc><c>I </c><c>   4</c></rc>
    <rc><c>I </c><c>   4</c></rc>
    <rc><c>I </c><c>   4</c></rc>
    <rc><c>I </c><c>   4</c></rc>
    <rc><c>I </c><c>   4</c></rc>
    <rc><c>I </c><c>   4</c></rc>
    <rc><c>I </c><c>   4</c></rc>
    <rc><c>I </c><c>   4</c></rc>
    <rc><c>I </c><c>   4</c></rc>
    <rc><c>I </c><c>   4</c></rc>
    <rc><c>I </c><c>   4</c></rc>
    <rc><c>I </c><c>   4</c></rc>
    <rc><c>I </c><c>   4</c></rc>
    <rc><c>I </c><c>   4</c></rc>
    <rc><c>I </c><c>   4</c></rc>
    <rc><c>I </c><c>   4</c></rc>
    <rc><c>I </c><c>   4</c></rc>
    <rc><c>I </c><c>   4</c></rc>
    <rc><c>I </c><c>   4</c></rc>
    <rc><c>I </c><c>   4</c></rc>
    <rc><c>I </c><c>   4</c></rc>
    <rc><c>I </c><c>   4</c></rc>
    <rc><c>I </c><c>   4</c></rc>
    <rc><c>I </c><c>   4</c></rc>
    <rc><c>I </c><c>   4</c></rc>
    <rc><c>I </c><c>   4</c></rc>
    <rc><c>I </c><c>   4</c></rc>
    <rc><c>I </c><c>   4</c></rc>
    <rc><c>I </c><c>   4</c></rc>
    <rc><c>I </c><c>   4</c></rc>
    <rc><c>I </c><c>   4</c></rc>
    <rc><c>I </c><c>   4</c></rc>
    <rc><c>I </c><c>   4</c></rc>
    <rc><c>I </c><c>   4</c></rc>
    <rc><c>I </c><c>   4</c></rc>
    <rc><c>I </c><c>   4</c></rc>
    <rc><c>I </c><c>   4</c></rc>
    <rc><c>I </c><c>   4</c></rc>
    <rc><c>I </c><c>   4</c></rc>
    <rc><c>I </c><c>   4</c></rc>
    <rc><c>I </c><c>   4</c></rc>
    <rc><c>I </c><c>   4</c></rc>
    <rc><c>I </c><c>   4</c></rc>
    <rc><c>I </c><c>   4</c></rc>
    <rc><c>I </c><c>   4</c></rc>
    <rc><c>I </c><c>   4</c></rc>
    <rc><c>I </c><c>   4</c></rc>
    <rc><c>I </c><c>   4</c></rc>
    <rc><c>I </c><c>   4</c></rc>
    <rc><c>I </c><c>   4</c></rc>
    <rc><c>I </c><c>   4</c></rc>
    <rc><c>I </c><c>   4</c></rc>
    <rc><c>I </c><c>   4</c></rc>
    <rc><c>I </c><c>   4</c></rc>
    <rc><c>I </c><c>   4</c></rc>
    <rc><c>I </c><c>   4</c></rc>
    <rc><c>I </c><c>   4</c></rc>
    <rc><c>I </c><c>   4</c></rc>
    <rc><c>I </c><c>   4</c></rc>
    <rc><c>I </c><c>   4</c></rc>
    <rc><c>I </c><c>   4</c></rc>
    <rc><c>I </c><c>   4</c></rc>
    <rc><c>I </c><c>   4</c></rc>
    <rc><c>I </c><c>   4</c></rc>
    <rc><c>I </c><c>   4</c></rc>
    <rc><c>I </c><c>   4</c></rc>
    <rc><c>Pb</c><c>   5</c></rc>
    <rc><c>Pb</c><c>   5</c></rc>
    <rc><c>Pb</c><c>   5</c></rc>
    <rc><c>Pb</c><c>   5</c></rc>
    <rc><c>Pb</c><c>   5</c></rc>
    <rc><c>Pb</c><c>   5</c></rc>
    <rc><c>Pb</c><c>   5</c></rc>
    <rc><c>Pb</c><c>   5</c></rc>
    <rc><c>Pb</c><c>   5</c></rc>
    <rc><c>Pb</c><c>   5</c></rc>
    <rc><c>Pb</c><c>   5</c></rc>
    <rc><c>Pb</c><c>   5</c></rc>
    <rc><c>Pb</c><c>   5</c></rc>
    <rc><c>Pb</c><c>   5</c></rc>
    <rc><c>Pb</c><c>   5</c></rc>
    <rc><c>Pb</c><c>   5</c></rc>
    <rc><c>Pb</c><c>   5</c></rc>
    <rc><c>Pb</c><c>   5</c></rc>
    <rc><c>Pb</c><c>   5</c></rc>
    <rc><c>Pb</c><c>   5</c></rc>
    <rc><c>Pb</c><c>   5</c></rc>
    <rc><c>Pb</c><c>   5</c></rc>
    <rc><c>Pb</c><c>   5</c></rc>
    <rc><c>Pb</c><c>   5</c></rc>
   </set>
  </array>
  <array name="atomtypes" >
   <dimension dim="1">type</dimension>
   <field type="int">atomspertype</field>
   <field type="string">element</field>
   <field>mass</field>
   <field>valence</field>
   <field type="string">pseudopotential</field>
   <set>
    <rc><c> 143</c><c>H </c><c>      1.00000000</c><c>      1.00000000</c><c>  PAW_PBE H 15Jun2001                   </c></rc>
    <rc><c>  39</c><c>C </c><c>     12.01100000</c><c>      4.00000000</c><c>  PAW_PBE C 08Apr2002                   </c></rc>
    <rc><c>  47</c><c>N </c><c>     14.00100000</c><c>      5.00000000</c><c>  PAW_PBE N 08Apr2002                   </c></rc>
    <rc><c>  72</c><c>I </c><c>    126.90400000</c><c>      7.00000000</c><c>  PAW_PBE I 08Apr2002                   </c></rc>
    <rc><c>  24</c><c>Pb</c><c>    207.20000000</c><c>      4.00000000</c><c>  PAW_PBE Pb 08Apr2002                  </c></rc>
   </set>
  </array>
 </atominfo>
 <structure name="initialpos" >
  <crystal>
   <varray name="basis" >
    <v>      18.06080055       0.00000000       0.00000000 </v>
    <v>      -0.00491865      18.06279945       0.00000000 </v>
    <v>       0.00000000       0.00000000      62.48749924 </v>
   </varray>
   <i name="volume">  20385.21054034 </i>
   <varray name="rec_basis" >
    <v>       0.05536853       0.00001508      -0.00000000 </v>
    <v>       0.00000000       0.05536240       0.00000000 </v>
    <v>       0.00000000      -0.00000000       0.01600320 </v>
   </varray>
  </crystal>
  <varray name="positions" >
   <v>       0.44352945       0.32898682       0.56813085 </v>
   <v>       0.42032725       0.82913153       0.56873552 </v>
   <v>       0.96269108       0.32205833       0.57792083 </v>
   <v>       0.94777597       0.81412400       0.57493079 </v>
   <v>       0.32504332       0.95300891       0.57312782 </v>
   <v>       0.34420701       0.56147844       0.56577051 </v>
   <v>       0.80295860       0.08102069       0.57326407 </v>
   <v>       0.01630983       0.13872150       0.56117395 </v>
   <v>       0.06445434       0.65305795       0.56816851 </v>
   <v>       0.55973267       0.17247980       0.55444677 </v>
   <v>       0.50547454       0.64884121       0.56262193 </v>
   <v>       0.36350540       0.02066338       0.55693006 </v>
   <v>       0.28642217       0.63032300       0.55523160 </v>
   <v>       0.87315562       0.02260441       0.56369734 </v>
   <v>       0.96703375       0.18556948       0.58030296 </v>
   <v>       0.99334531       0.68764853       0.58390036 </v>
   <v>       0.56154951       0.25769651       0.56795784 </v>
   <v>       0.43409635       0.69415294       0.57570872 </v>
   <v>       0.28551286       0.43846689       0.57313142 </v>
   <v>       0.19099036       0.93045480       0.57050382 </v>
   <v>       0.67453950       0.03206572       0.57095184 </v>
   <v>       0.36786996       0.28523793       0.55613565 </v>
   <v>       0.48787165       0.87131030       0.55327808 </v>
   <v>       0.01886033       0.36476156       0.55883211 </v>
   <v>       0.99636494       0.86218680       0.55534948 </v>
   <v>       0.19514451       0.42797427       0.56426453 </v>
   <v>       0.13866253       0.99053025       0.55508753 </v>
   <v>       0.66559533       0.94232322       0.56101364 </v>
   <v>       0.43572802       0.18368259       0.54553905 </v>
   <v>       0.55107471       0.75968181       0.54767711 </v>
   <v>       0.05771821       0.24905455       0.54471680 </v>
   <v>       0.07731195       0.76300083       0.54854899 </v>
   <v>       0.18622903       0.54765251       0.55221665 </v>
   <v>       0.24492134       0.05774032       0.54442652 </v>
   <v>       0.78953709       0.92898075       0.55477942 </v>
   <v>       0.48420197       0.33677371       0.66713362 </v>
   <v>       0.44332052       0.81338261       0.67369145 </v>
   <v>       0.96732957       0.28064706       0.67852408 </v>
   <v>       0.92501190       0.72745472       0.67304062 </v>
   <v>       0.31081088       0.05231408       0.67092252 </v>
   <v>       0.29977113       0.55096789       0.67520939 </v>
   <v>       0.79413837       0.06055509       0.67525170 </v>
   <v>       0.75567078       0.59668875       0.66276550 </v>
   <v>       0.08409910       0.16329974       0.64500651 </v>
   <v>       0.10978794       0.71970423       0.65076938 </v>
   <v>       0.58110657       0.17237537       0.64901482 </v>
   <v>       0.56404363       0.66796280       0.65153217 </v>
   <v>       0.18200031       0.41456247       0.64795797 </v>
   <v>       0.17288458       0.92191591       0.64913582 </v>
   <v>       0.71100858       0.40023256       0.66180522 </v>
   <v>       0.67717073       0.92011065       0.64957939 </v>
   <v>       0.06383640       0.17728586       0.67193408 </v>
   <v>       0.05539640       0.67734659       0.66984382 </v>
   <v>       0.59682499       0.25737726       0.66065106 </v>
   <v>       0.53002626       0.69897458       0.67619280 </v>
   <v>       0.20006224       0.44626741       0.67373784 </v>
   <v>       0.20628895       0.95115174       0.67374737 </v>
   <v>       0.67469916       0.48626177       0.66958180 </v>
   <v>       0.69121284       0.95909403       0.67463152 </v>
   <v>       0.39964371       0.29623339       0.66008191 </v>
   <v>       0.42928149       0.84490184       0.64778466 </v>
   <v>       0.93636180       0.32556898       0.65566520 </v>
   <v>       0.90201022       0.79759383       0.65511956 </v>
   <v>       0.33249832       0.07632656       0.64480689 </v>
   <v>       0.33325342       0.57709172       0.65023736 </v>
   <v>       0.83478685       0.07701838       0.65065034 </v>
   <v>       0.83714223       0.58025573       0.64859036 </v>
   <v>       0.00699527       0.25565395       0.63272983 </v>
   <v>       0.01755400       0.79956318       0.63940670 </v>
   <v>       0.45437217       0.19089854       0.64643777 </v>
   <v>       0.50367064       0.75656922       0.63203352 </v>
   <v>       0.24844985       0.99739579       0.62922516 </v>
   <v>       0.26200242       0.49340082       0.63134729 </v>
   <v>       0.76703415       0.98958753       0.63269362 </v>
   <v>       0.81552016       0.45259051       0.64640450 </v>
   <v>       0.44874502       0.30128397       0.76888902 </v>
   <v>       0.44874501       0.80128391       0.76888902 </v>
   <v>       0.94874497       0.30128397       0.76888902 </v>
   <v>       0.94874501       0.80128391       0.76888902 </v>
   <v>       0.30127600       0.05129450       0.76887296 </v>
   <v>       0.30127601       0.55129450       0.76887296 </v>
   <v>       0.80127594       0.05129450       0.76887296 </v>
   <v>       0.80127598       0.55129450       0.76887296 </v>
   <v>       0.07877100       0.17118050       0.74344197 </v>
   <v>       0.07877101       0.67118045       0.74344197 </v>
   <v>       0.57877100       0.17118050       0.74344197 </v>
   <v>       0.57877099       0.67118045       0.74344197 </v>
   <v>       0.17119950       0.42117448       0.74342103 </v>
   <v>       0.17119950       0.92117451       0.74342103 </v>
   <v>       0.67119951       0.42117448       0.74342103 </v>
   <v>       0.67119950       0.92117451       0.74342103 </v>
   <v>       0.05125600       0.19871499       0.76888902 </v>
   <v>       0.05125600       0.69871493       0.76888902 </v>
   <v>       0.55125603       0.19871499       0.76888902 </v>
   <v>       0.55125602       0.69871493       0.76888902 </v>
   <v>       0.19872349       0.44870397       0.76887205 </v>
   <v>       0.19872349       0.94870397       0.76887205 </v>
   <v>       0.69872352       0.44870397       0.76887205 </v>
   <v>       0.69872351       0.94870397       0.76887205 </v>
   <v>       0.42123152       0.32881747       0.74344197 </v>
   <v>       0.42123151       0.82881744       0.74344197 </v>
   <v>       0.92123147       0.32881747       0.74344197 </v>
   <v>       0.92123151       0.82881744       0.74344197 </v>
   <v>       0.32880050       0.07882500       0.74342103 </v>
   <v>       0.32880049       0.57882496       0.74342103 </v>
   <v>       0.82880048       0.07882500       0.74342103 </v>
   <v>       0.82880052       0.57882496       0.74342103 </v>
   <v>       0.00000350       0.25000148       0.72582199 </v>
   <v>       0.00000350       0.75000145       0.72582199 </v>
   <v>       0.50000351       0.25000148       0.72582199 </v>
   <v>       0.50000350       0.75000145       0.72582199 </v>
   <v>       0.25000050       0.00000000       0.72580398 </v>
   <v>       0.25000052       0.50000000       0.72580398 </v>
   <v>       0.75000050       0.00000000       0.72580398 </v>
   <v>       0.75000049       0.50000000       0.72580398 </v>
   <v>       0.77553070       0.55530243       0.51994396 </v>
   <v>       0.72133593       0.47674219       0.52541728 </v>
   <v>       0.87042937       0.50113816       0.54104938 </v>
   <v>       0.85642554       0.48190211       0.56820453 </v>
   <v>       0.74307246       0.64060957       0.55966168 </v>
   <v>       0.80771335       0.59814723       0.57727794 </v>
   <v>       0.66670136       0.54905081       0.56982784 </v>
   <v>       0.67736513       0.45785872       0.56070535 </v>
   <v>       0.61599198       0.55494910       0.53775978 </v>
   <v>       0.67166352       0.63571232       0.53551837 </v>
   <v>       0.60622141       0.64450863       0.50427994 </v>
   <v>       0.68670772       0.60096748       0.49479965 </v>
   <v>       0.78908402       0.39174800       0.53068189 </v>
   <v>       0.77832528       0.36917012       0.55806181 </v>
   <v>       0.86637094       0.36810469       0.54597138 </v>
   <v>       0.86379984       0.69485071       0.55545930 </v>
   <v>       0.84480927       0.64738642       0.53149492 </v>
   <v>       0.90815109       0.60884041       0.55054756 </v>
   <v>       0.76014263       0.52908483       0.59915860 </v>
   <v>       0.77531081       0.43676245       0.59021040 </v>
   <v>       0.68757513       0.46448990       0.59979624 </v>
   <v>       0.53468817       0.52986196       0.50340971 </v>
   <v>       0.57735053       0.54768219       0.47858874 </v>
   <v>       0.69620120       0.47642377       0.46824130 </v>
   <v>       0.56148973       0.41782782       0.52289933 </v>
   <v>       0.76175775       0.35562489       0.47133896 </v>
   <v>       0.62896806       0.29835282       0.52590798 </v>
   <v>       0.72931747       0.26722132       0.50065946 </v>
   <v>       0.02019807       0.25156754       0.55840417 </v>
   <v>       0.03391808       0.75788077       0.56046311 </v>
   <v>       0.46287439       0.22872989       0.55388434 </v>
   <v>       0.49965839       0.75997320       0.55689166 </v>
   <v>       0.23922300       0.52881313       0.55851784 </v>
   <v>       0.25044845       0.01023062       0.55502233 </v>
   <v>       0.76986589       0.98084908       0.56167240 </v>
   <v>       0.01002896       0.24464705       0.64985422 </v>
   <v>       0.00596517       0.76034347       0.65220625 </v>
   <v>       0.48868397       0.23336117       0.65357695 </v>
   <v>       0.49684331       0.75660998       0.64911683 </v>
   <v>       0.25750035       0.49539752       0.64874591 </v>
   <v>       0.25274018       0.99940284       0.64659246 </v>
   <v>       0.77553038       0.48858382       0.65450841 </v>
   <v>       0.75681880       0.99822795       0.64965722 </v>
   <v>       0.49998898       0.24999498       0.74327702 </v>
   <v>       0.49998903       0.74999496       0.74327702 </v>
   <v>       0.99998898       0.24999498       0.74327702 </v>
   <v>       0.99998903       0.74999496       0.74327702 </v>
   <v>       0.25000050       0.00000100       0.74325596 </v>
   <v>       0.25000052       0.50000100       0.74325596 </v>
   <v>       0.75000050       0.00000100       0.74325596 </v>
   <v>       0.75000049       0.50000100       0.74325596 </v>
   <v>       0.62428402       0.45602115       0.49573206 </v>
   <v>       0.68040040       0.43696693       0.48116075 </v>
   <v>       0.60507293       0.40464561       0.51151674 </v>
   <v>       0.71806027       0.36993819       0.48288119 </v>
   <v>       0.64243997       0.33745454       0.51322948 </v>
   <v>       0.69973165       0.31979120       0.49914689 </v>
   <v>       0.73201494       0.53362765       0.53034100 </v>
   <v>       0.83087489       0.47735353       0.55236835 </v>
   <v>       0.79164280       0.60471690       0.56046055 </v>
   <v>       0.70662567       0.50375819       0.56849566 </v>
   <v>       0.66139727       0.58015077       0.52841947 </v>
   <v>       0.63780542       0.59249762       0.50495665 </v>
   <v>       0.81368056       0.39798681       0.54658442 </v>
   <v>       0.85604648       0.63939354       0.54857151 </v>
   <v>       0.73529238       0.48275854       0.59034903 </v>
   <v>       0.58886705       0.53164995       0.49513590 </v>
   <v>       0.00173809       0.18887454       0.56734486 </v>
   <v>       0.03201922       0.69720972       0.57185986 </v>
   <v>       0.53400079       0.22105703       0.55796951 </v>
   <v>       0.47728093       0.69713205       0.56512963 </v>
   <v>       0.42353036       0.28610434       0.55897386 </v>
   <v>       0.46501815       0.82313313       0.55888144 </v>
   <v>       0.99753054       0.31663986       0.56497689 </v>
   <v>       0.98736610       0.81309386       0.56305427 </v>
   <v>       0.24255004       0.45869821       0.56421801 </v>
   <v>       0.19024601       0.97289378       0.55986045 </v>
   <v>       0.69823961       0.98775134       0.56371511 </v>
   <v>       0.31626824       0.99342505       0.56205065 </v>
   <v>       0.29407445       0.57571814       0.55977859 </v>
   <v>       0.81816030       0.03150676       0.56706624 </v>
   <v>       0.05518647       0.19123303       0.65643446 </v>
   <v>       0.05984781       0.71481268       0.65784770 </v>
   <v>       0.56011534       0.22017584       0.65472299 </v>
   <v>       0.53197461       0.70499711       0.65990085 </v>
   <v>       0.21106428       0.44944161       0.65756615 </v>
   <v>       0.20798079       0.95546737       0.65742025 </v>
   <v>       0.71562207       0.45701127       0.66206992 </v>
   <v>       0.70559433       0.95687554       0.65877806 </v>
   <v>       0.45604168       0.29316286       0.66021109 </v>
   <v>       0.45468865       0.80796050       0.65768654 </v>
   <v>       0.96876084       0.28565009       0.66229311 </v>
   <v>       0.94106455       0.76316571       0.66123492 </v>
   <v>       0.30115184       0.04465745       0.65477433 </v>
   <v>       0.29954510       0.54368038       0.65894198 </v>
   <v>       0.79692561       0.04798222       0.65921333 </v>
   <v>       0.79004280       0.55916093       0.65571990 </v>
   <v>       0.04586250       0.20411950       0.75272599 </v>
   <v>       0.04586250       0.70411946       0.75272599 </v>
   <v>       0.54586251       0.20411950       0.75272599 </v>
   <v>       0.54586250       0.70411946       0.75272599 </v>
   <v>       0.20411900       0.45410100       0.75270499 </v>
   <v>       0.20411899       0.95410095       0.75270499 </v>
   <v>       0.70411898       0.45410100       0.75270499 </v>
   <v>       0.70411896       0.95410095       0.75270499 </v>
   <v>       0.45414002       0.29588849       0.75272697 </v>
   <v>       0.45414001       0.79588852       0.75272697 </v>
   <v>       0.95414002       0.29588849       0.75272697 </v>
[...]
   <v>       0.55973267       0.17247980       0.55444677 </v>
   <v>       0.50547454       0.64884121       0.56262193 </v>
   <v>       0.36350540       0.02066338       0.55693006 </v>
   <v>       0.28642217       0.63032300       0.55523160 </v>
   <v>       0.87315562       0.02260441       0.56369734 </v>
   <v>       0.96703375       0.18556948       0.58030296 </v>
   <v>       0.99334531       0.68764853       0.58390036 </v>
   <v>       0.56154951       0.25769651       0.56795784 </v>
   <v>       0.43409635       0.69415294       0.57570872 </v>
   <v>       0.28551286       0.43846689       0.57313142 </v>
   <v>       0.19099036       0.93045480       0.57050382 </v>
   <v>       0.67453950       0.03206572       0.57095184 </v>
   <v>       0.36786996       0.28523793       0.55613565 </v>
   <v>       0.48787165       0.87131030       0.55327808 </v>
   <v>       0.01886033       0.36476156       0.55883211 </v>
   <v>       0.99636494       0.86218680       0.55534948 </v>
   <v>       0.19514451       0.42797427       0.56426453 </v>
   <v>       0.13866253       0.99053025       0.55508753 </v>
   <v>       0.66559533       0.94232322       0.56101364 </v>
   <v>       0.43572802       0.18368259       0.54553905 </v>
   <v>       0.55107471       0.75968181       0.54767711 </v>
   <v>       0.05771821       0.24905455       0.54471680 </v>
   <v>       0.07731195       0.76300083       0.54854899 </v>
   <v>       0.18622903       0.54765251       0.55221665 </v>
   <v>       0.24492134       0.05774032       0.54442652 </v>
   <v>       0.78953709       0.92898075       0.55477942 </v>
   <v>       0.48420197       0.33677371       0.66713362 </v>
   <v>       0.44332052       0.81338261       0.67369145 </v>
   <v>       0.96732957       0.28064706       0.67852408 </v>
   <v>       0.92501190       0.72745472       0.67304062 </v>
   <v>       0.31081088       0.05231408       0.67092252 </v>
   <v>       0.29977113       0.55096789       0.67520939 </v>
   <v>       0.79413837       0.06055509       0.67525170 </v>
   <v>       0.75567078       0.59668875       0.66276550 </v>
   <v>       0.08409910       0.16329974       0.64500651 </v>
   <v>       0.10978794       0.71970423       0.65076938 </v>
   <v>       0.58110657       0.17237537       0.64901482 </v>
   <v>       0.56404363       0.66796280       0.65153217 </v>
   <v>       0.18200031       0.41456247       0.64795797 </v>
   <v>       0.17288458       0.92191591       0.64913582 </v>
   <v>       0.71100858       0.40023256       0.66180522 </v>
   <v>       0.67717073       0.92011065       0.64957939 </v>
   <v>       0.06383640       0.17728586       0.67193408 </v>
   <v>       0.05539640       0.67734659       0.66984382 </v>
   <v>       0.59682499       0.25737726       0.66065106 </v>
   <v>       0.53002626       0.69897458       0.67619280 </v>
   <v>       0.20006224       0.44626741       0.67373784 </v>
   <v>       0.20628895       0.95115174       0.67374737 </v>
   <v>       0.67469916       0.48626177       0.66958180 </v>
   <v>       0.69121284       0.95909403       0.67463152 </v>
   <v>       0.39964371       0.29623339       0.66008191 </v>
   <v>       0.42928149       0.84490184       0.64778466 </v>
   <v>       0.93636180       0.32556898       0.65566520 </v>
   <v>       0.90201022       0.79759383       0.65511956 </v>
   <v>       0.33249832       0.07632656       0.64480689 </v>
   <v>       0.33325342       0.57709172       0.65023736 </v>
   <v>       0.83478685       0.07701838       0.65065034 </v>
   <v>       0.83714223       0.58025573       0.64859036 </v>
   <v>       0.00699527       0.25565395       0.63272983 </v>
   <v>       0.01755400       0.79956318       0.63940670 </v>
   <v>       0.45437217       0.19089854       0.64643777 </v>
   <v>       0.50367064       0.75656922       0.63203352 </v>
   <v>       0.24844985       0.99739579       0.62922516 </v>
   <v>       0.26200242       0.49340082       0.63134729 </v>
   <v>       0.76703415       0.98958753       0.63269362 </v>
   <v>       0.81552016       0.45259051       0.64640450 </v>
   <v>       0.44874502       0.30128397       0.76888902 </v>
   <v>       0.44874501       0.80128391       0.76888902 </v>
   <v>       0.94874497       0.30128397       0.76888902 </v>
   <v>       0.94874501       0.80128391       0.76888902 </v>
   <v>       0.30127600       0.05129450       0.76887296 </v>
   <v>       0.30127601       0.55129450       0.76887296 </v>
   <v>       0.80127594       0.05129450       0.76887296 </v>
   <v>       0.80127598       0.55129450       0.76887296 </v>
   <v>       0.07877100       0.17118050       0.74344197 </v>
   <v>       0.07877101       0.67118045       0.74344197 </v>
   <v>       0.57877100       0.17118050       0.74344197 </v>
   <v>       0.57877099       0.67118045       0.74344197 </v>
   <v>       0.17119950       0.42117448       0.74342103 </v>
   <v>       0.17119950       0.92117451       0.74342103 </v>
   <v>       0.67119951       0.42117448       0.74342103 </v>
   <v>       0.67119950       0.92117451       0.74342103 </v>
   <v>       0.05125600       0.19871499       0.76888902 </v>
   <v>       0.05125600       0.69871493       0.76888902 </v>
   <v>       0.55125603       0.19871499       0.76888902 </v>
   <v>       0.55125602       0.69871493       0.76888902 </v>
   <v>       0.19872349       0.44870397       0.76887205 </v>
   <v>       0.19872349       0.94870397       0.76887205 </v>
   <v>       0.69872352       0.44870397       0.76887205 </v>
   <v>       0.69872351       0.94870397       0.76887205 </v>
   <v>       0.42123152       0.32881747       0.74344197 </v>
   <v>       0.42123151       0.82881744       0.74344197 </v>
   <v>       0.92123147       0.32881747       0.74344197 </v>
   <v>       0.92123151       0.82881744       0.74344197 </v>
   <v>       0.32880050       0.07882500       0.74342103 </v>
   <v>       0.32880049       0.57882496       0.74342103 </v>
   <v>       0.82880048       0.07882500       0.74342103 </v>
   <v>       0.82880052       0.57882496       0.74342103 </v>
   <v>       0.00000350       0.25000148       0.72582199 </v>
   <v>       0.00000350       0.75000145       0.72582199 </v>
   <v>       0.50000351       0.25000148       0.72582199 </v>
   <v>       0.50000350       0.75000145       0.72582199 </v>
   <v>       0.25000050       0.00000000       0.72580398 </v>
   <v>       0.25000052       0.50000000       0.72580398 </v>
   <v>       0.75000050       0.00000000       0.72580398 </v>
   <v>       0.75000049       0.50000000       0.72580398 </v>
   <v>       0.77553070       0.55530243       0.51994396 </v>
   <v>       0.72133593       0.47674219       0.52541728 </v>
   <v>       0.87042937       0.50113816       0.54104938 </v>
   <v>       0.85642554       0.48190211       0.56820453 </v>
   <v>       0.74307246       0.64060957       0.55966168 </v>
   <v>       0.80771335       0.59814723       0.57727794 </v>
   <v>       0.66670136       0.54905081       0.56982784 </v>
   <v>       0.67736513       0.45785872       0.56070535 </v>
   <v>       0.61599198       0.55494910       0.53775978 </v>
   <v>       0.67166352       0.63571232       0.53551837 </v>
   <v>       0.60622141       0.64450863       0.50427994 </v>
   <v>       0.68670772       0.60096748       0.49479965 </v>
   <v>       0.78908402       0.39174800       0.53068189 </v>
   <v>       0.77832528       0.36917012       0.55806181 </v>
   <v>       0.86637094       0.36810469       0.54597138 </v>
   <v>       0.86379984       0.69485071       0.55545930 </v>
   <v>       0.84480927       0.64738642       0.53149492 </v>
   <v>       0.90815109       0.60884041       0.55054756 </v>
   <v>       0.76014263       0.52908483       0.59915860 </v>
   <v>       0.77531081       0.43676245       0.59021040 </v>
   <v>       0.68757513       0.46448990       0.59979624 </v>
   <v>       0.53468817       0.52986196       0.50340971 </v>
   <v>       0.57735053       0.54768219       0.47858874 </v>
   <v>       0.69620120       0.47642377       0.46824130 </v>
   <v>       0.56148973       0.41782782       0.52289933 </v>
   <v>       0.76175775       0.35562489       0.47133896 </v>
   <v>       0.62896806       0.29835282       0.52590798 </v>
   <v>       0.72931747       0.26722132       0.50065946 </v>
   <v>       0.02019807       0.25156754       0.55840417 </v>
   <v>       0.03391808       0.75788077       0.56046311 </v>
   <v>       0.46287439       0.22872989       0.55388434 </v>
   <v>       0.49965839       0.75997320       0.55689166 </v>
   <v>       0.23922300       0.52881313       0.55851784 </v>
   <v>       0.25044845       0.01023062       0.55502233 </v>
   <v>       0.76986589       0.98084908       0.56167240 </v>
   <v>       0.01002896       0.24464705       0.64985422 </v>
   <v>       0.00596517       0.76034347       0.65220625 </v>
   <v>       0.48868397       0.23336117       0.65357695 </v>
   <v>       0.49684331       0.75660998       0.64911683 </v>
   <v>       0.25750035       0.49539752       0.64874591 </v>
   <v>       0.25274018       0.99940284       0.64659246 </v>
   <v>       0.77553038       0.48858382       0.65450841 </v>
   <v>       0.75681880       0.99822795       0.64965722 </v>
   <v>       0.49998898       0.24999498       0.74327702 </v>
   <v>       0.49998903       0.74999496       0.74327702 </v>
   <v>       0.99998898       0.24999498       0.74327702 </v>
   <v>       0.99998903       0.74999496       0.74327702 </v>
   <v>       0.25000050       0.00000100       0.74325596 </v>
   <v>       0.25000052       0.50000100       0.74325596 </v>
   <v>       0.75000050       0.00000100       0.74325596 </v>
   <v>       0.75000049       0.50000100       0.74325596 </v>
   <v>       0.62428402       0.45602115       0.49573206 </v>
   <v>       0.68040040       0.43696693       0.48116075 </v>
   <v>       0.60507293       0.40464561       0.51151674 </v>
   <v>       0.71806027       0.36993819       0.48288119 </v>
   <v>       0.64243997       0.33745454       0.51322948 </v>
   <v>       0.69973165       0.31979120       0.49914689 </v>
   <v>       0.73201494       0.53362765       0.53034100 </v>
   <v>       0.83087489       0.47735353       0.55236835 </v>
   <v>       0.79164280       0.60471690       0.56046055 </v>
   <v>       0.70662567       0.50375819       0.56849566 </v>
   <v>       0.66139727       0.58015077       0.52841947 </v>
   <v>       0.63780542       0.59249762       0.50495665 </v>
   <v>       0.81368056       0.39798681       0.54658442 </v>
   <v>       0.85604648       0.63939354       0.54857151 </v>
   <v>       0.73529238       0.48275854       0.59034903 </v>
   <v>       0.58886705       0.53164995       0.49513590 </v>
   <v>       0.00173809       0.18887454       0.56734486 </v>
   <v>       0.03201922       0.69720972       0.57185986 </v>
   <v>       0.53400079       0.22105703       0.55796951 </v>
   <v>       0.47728093       0.69713205       0.56512963 </v>
   <v>       0.42353036       0.28610434       0.55897386 </v>
   <v>       0.46501815       0.82313313       0.55888144 </v>
   <v>       0.99753054       0.31663986       0.56497689 </v>
   <v>       0.98736610       0.81309386       0.56305427 </v>
   <v>       0.24255004       0.45869821       0.56421801 </v>
   <v>       0.19024601       0.97289378       0.55986045 </v>
   <v>       0.69823961       0.98775134       0.56371511 </v>
   <v>       0.31626824       0.99342505       0.56205065 </v>
   <v>       0.29407445       0.57571814       0.55977859 </v>
   <v>       0.81816030       0.03150676       0.56706624 </v>
   <v>       0.05518647       0.19123303       0.65643446 </v>
   <v>       0.05984781       0.71481268       0.65784770 </v>
   <v>       0.56011534       0.22017584       0.65472299 </v>
   <v>       0.53197461       0.70499711       0.65990085 </v>
   <v>       0.21106428       0.44944161       0.65756615 </v>
   <v>       0.20798079       0.95546737       0.65742025 </v>
   <v>       0.71562207       0.45701127       0.66206992 </v>
   <v>       0.70559433       0.95687554       0.65877806 </v>
   <v>       0.45604168       0.29316286       0.66021109 </v>
   <v>       0.45468865       0.80796050       0.65768654 </v>
   <v>       0.96876084       0.28565009       0.66229311 </v>
   <v>       0.94106455       0.76316571       0.66123492 </v>
   <v>       0.30115184       0.04465745       0.65477433 </v>
   <v>       0.29954510       0.54368038       0.65894198 </v>
   <v>       0.79692561       0.04798222       0.65921333 </v>
   <v>       0.79004280       0.55916093       0.65571990 </v>
   <v>       0.04586250       0.20411950       0.75272599 </v>
   <v>       0.04586250       0.70411946       0.75272599 </v>
   <v>       0.54586251       0.20411950       0.75272599 </v>
   <v>       0.54586250       0.70411946       0.75272599 </v>
   <v>       0.20411900       0.45410100       0.75270499 </v>
   <v>       0.20411899       0.95410095       0.75270499 </v>
   <v>       0.70411898       0.45410100       0.75270499 </v>
   <v>       0.70411896       0.95410095       0.75270499 </v>
   <v>       0.45414002       0.29588849       0.75272697 </v>
   <v>       0.45414001       0.79588852       0.75272697 </v>
   <v>       0.95414002       0.29588849       0.75272697 </v>
   <v>       0.95414006       0.79588852       0.75272697 </v>
   <v>       0.29588249       0.04590050       0.75270499 </v>
   <v>       0.29588248       0.54590053       0.75270499 </v>
   <v>       0.79588244       0.04590050       0.75270499 </v>
   <v>       0.79588248       0.54590053       0.75270499 </v>
   <v>       0.76559633       0.52946735       0.55271297 </v>
   <v>       0.50588081       0.01869453       0.55135424 </v>
   <v>       0.47645038       0.49954209       0.55505938 </v>
   <v>       0.00167028       0.00249234       0.54961506 </v>
   <v>       0.03997444       0.50515992       0.55318102 </v>
   <v>       0.23172055       0.24168141       0.55182247 </v>
   <v>       0.25108382       0.76652761       0.55333632 </v>
   <v>       0.73535175       0.20187994       0.55529234 </v>
   <v>       0.70471934       0.79238782       0.55298481 </v>
   <v>       0.00154857       0.98185421       0.65416874 </v>
   <v>       0.00297356       0.49740119       0.65527297 </v>
   <v>       0.50307323       0.01419631       0.65405428 </v>
   <v>       0.51443385       0.48783245       0.65494978 </v>
   <v>       0.26057355       0.24587294       0.65440054 </v>
   <v>       0.25285601       0.75472479       0.65475816 </v>
   <v>       0.75549771       0.26383865       0.65472623 </v>
   <v>       0.74534944       0.75299234       0.65413847 </v>
   <v>       0.13444113       0.10804837       0.60800930 </v>
   <v>       0.14884197       0.60578104       0.60976796 </v>
   <v>       0.64779930       0.10493695       0.61026989 </v>
   <v>       0.61717968       0.63190941       0.61188825 </v>
   <v>       0.36028091       0.38328244       0.60626097 </v>
   <v>       0.37220460       0.88269005       0.60742868 </v>
   <v>       0.89228684       0.36434248       0.61175938 </v>
   <v>       0.87208678       0.87129261       0.60683579 </v>
   <v>       0.12518040       0.36619840       0.60984195 </v>
   <v>       0.12483866       0.87027224       0.60733607 </v>
   <v>       0.58645489       0.33371672       0.60203045 </v>
   <v>       0.61735877       0.87341228       0.61166329 </v>
   <v>       0.38585806       0.13425354       0.60559781 </v>
   <v>       0.38395159       0.62889324       0.61149303 </v>
   <v>       0.88577367       0.13337292       0.61199008 </v>
   <v>       0.90318599       0.64030594       0.61258029 </v>
   <v>       0.00000000       0.00000000       0.75492797 </v>
   <v>       0.00000000       0.50000000       0.75492797 </v>
   <v>       0.50000000       0.00000000       0.75492797 </v>
   <v>       0.49999999       0.50000000       0.75492797 </v>
   <v>       0.25000050       0.25000000       0.75493902 </v>
   <v>       0.25000051       0.74999997       0.75493902 </v>
   <v>       0.75000047       0.25000000       0.75493902 </v>
   <v>       0.75000046       0.74999997       0.75493902 </v>
   <v>       0.13579050       0.11421000       0.70478299 </v>
   <v>       0.13579050       0.61420998       0.70478299 </v>
   <v>       0.63579045       0.11421000       0.70478299 </v>
   <v>       0.63579049       0.61420998       0.70478299 </v>
   <v>       0.36420952       0.38578999       0.70478299 </v>
   <v>       0.36420950       0.88578996       0.70478299 </v>
   <v>       0.86420954       0.38578999       0.70478299 </v>
   <v>       0.86420953       0.88578996       0.70478299 </v>
   <v>       0.11421799       0.36421899       0.70478098 </v>
   <v>       0.11421799       0.86421899       0.70478098 </v>
   <v>       0.61421800       0.36421899       0.70478098 </v>
   <v>       0.61421799       0.86421899       0.70478098 </v>
   <v>       0.38578201       0.13578149       0.70478202 </v>
   <v>       0.38578200       0.63578149       0.70478202 </v>
   <v>       0.88578199       0.13578149       0.70478202 </v>
   <v>       0.88578203       0.63578149       0.70478202 </v>
   <v>       0.13466700       0.11533200       0.80125603 </v>
   <v>       0.13466699       0.61533199       0.80125603 </v>
   <v>       0.63466699       0.11533200       0.80125603 </v>
   <v>       0.63466698       0.61533199       0.80125603 </v>
   <v>       0.36533300       0.38466799       0.80125603 </v>
   <v>       0.36533299       0.88466796       0.80125603 </v>
   <v>       0.86533295       0.38466799       0.80125603 </v>
   <v>       0.86533294       0.88466796       0.80125603 </v>
   <v>       0.11532850       0.36533700       0.80126500 </v>
   <v>       0.11532850       0.86533698       0.80126500 </v>
   <v>       0.61532850       0.36533700       0.80126500 </v>
   <v>       0.61532849       0.86533698       0.80126500 </v>
   <v>       0.38467151       0.13466300       0.80126500 </v>
   <v>       0.38467150       0.63466297       0.80126500 </v>
   <v>       0.88467149       0.13466300       0.80126500 </v>
   <v>       0.88467153       0.63466297       0.80126500 </v>
   <v>       0.99757845       0.99778159       0.60538561 </v>
   <v>       0.00923988       0.50106519       0.60535570 </v>
   <v>       0.50203189       0.00738890       0.60368660 </v>
   <v>       0.49816794       0.49270309       0.60490144 </v>
   <v>       0.24497902       0.24402911       0.60226237 </v>
   <v>       0.24856031       0.74499792       0.60401070 </v>
   <v>       0.74230171       0.24650089       0.60282364 </v>
   <v>       0.73543526       0.75686653       0.60231487 </v>
   <v>       0.00000050       0.00000050       0.70482896 </v>
   <v>       0.00000050       0.50000048       0.70482896 </v>
   <v>       0.50000048       0.00000050       0.70482896 </v>
   <v>       0.50000046       0.50000048       0.70482896 </v>
   <v>       0.24999999       0.24999947       0.70482499 </v>
   <v>       0.25000001       0.74999950       0.70482499 </v>
   <v>       0.74999999       0.24999947       0.70482499 </v>
   <v>       0.74999998       0.74999950       0.70482499 </v>
   <v>       0.00000000       0.00000000       0.80731797 </v>
   <v>       0.00000000       0.50000000       0.80731797 </v>
   <v>       0.50000000       0.00000000       0.80731797 </v>
   <v>       0.49999999       0.50000000       0.80731797 </v>
   <v>       0.24999999       0.25000000       0.80731797 </v>
   <v>       0.25000001       0.74999997       0.80731797 </v>
   <v>       0.74999999       0.25000000       0.80731797 </v>
   <v>       0.74999998       0.74999997       0.80731797 </v>
  </varray>
 </structure>
</modeling>
