<?xml version="1.0" encoding="ISO-8859-1"?>
<modeling>
 <generator>
  <i name="program" type="string">vasp </i>
  <i name="version" type="string">6.2.1  </i>
  <i name="subversion" type="string">16May21 (build Nov 15 2021 14:57:28) complex                          parallel </i>
  <i name="platform" type="string">LinuxPGI </i>
  <i name="date" type="string">2023 07 24 </i>
  <i name="time" type="string">22:58:25 </i>
 </generator>
 <incar>
  <i type="string" name="SYSTEM">PSC</i>
  <i type="int" name="ISTART">     1</i>
  <i type="string" name="PREC">Normal</i>
  <i name="BMIX">      0.01000000</i>
  <i name="AMIN">      0.01000000</i>
  <i type="int" name="ICHARG">     1</i>
  <i type="int" name="NELM">   600</i>
  <i type="int" name="ISYM">     0</i>
  <i name="ENCUT">    500.00000000</i>
  <i type="string" name="LREAL">Auto</i>
  <i type="int" name="ISMEAR">     0</i>
  <i name="SIGMA">      0.05000000</i>
  <i type="logical" name="LWAVE"> F  </i>
  <i type="logical" name="LVTOT"> T  </i>
  <i type="logical" name="GGA_COMPAT"> F  </i>
  <i type="logical" name="LDIPOL"> T  </i>
  <i type="int" name="IDIPOL">     3</i>
  <i type="int" name="IVDW">    12</i>
 </incar>
 <primitive_cell>
  <structure name="primitive_cell" >
   <crystal>
    <varray name="basis" >
     <v>      18.06080055       0.00000000       0.00000000 </v>
     <v>      -0.00491865      18.06279945       0.00000000 </v>
     <v>       0.00000000       0.00000000      62.48749924 </v>
    </varray>
    <i name="volume">  20385.21054034 </i>
    <varray name="rec_basis" >
     <v>       0.05536853       0.00001508      -0.00000000 </v>
     <v>       0.00000000       0.05536240       0.00000000 </v>
     <v>       0.00000000      -0.00000000       0.01600320 </v>
    </varray>
   </crystal>
   <varray name="positions" >
    <v>       0.43838578       0.30147649       0.57466664 </v>
    <v>       0.43782930       0.83211080       0.57607152 </v>
    <v>       0.98451402       0.30879476       0.58214103 </v>
    <v>       0.96779603       0.79985748       0.58256293 </v>
    <v>       0.31845594       0.98603414       0.57799744 </v>
    <v>       0.31773787       0.55891257       0.57880827 </v>
    <v>       0.78889266       0.06795197       0.58247319 </v>
    <v>       0.04928799       0.13648746       0.56097292 </v>
    <v>       0.05504783       0.64149462       0.55849360 </v>
    <v>       0.58780466       0.19281272       0.55374363 </v>
    <v>       0.54239411       0.66850783       0.56264336 </v>
    <v>       0.34557824       0.04224406       0.55724854 </v>
    <v>       0.29057106       0.61408797       0.55784528 </v>
    <v>       0.85568802       0.05588067       0.56336280 </v>
    <v>       0.02595135       0.17600134       0.58472920 </v>
    <v>       0.02066066       0.67321907       0.58242234 </v>
    <v>       0.56498951       0.25948653       0.57251649 </v>
    <v>       0.47925212       0.70228885       0.58220074 </v>
    <v>       0.25631220       0.43329644       0.58088694 </v>
    <v>       0.18430686       0.94543661       0.57810098 </v>
    <v>       0.67988129       0.98310861       0.58127715 </v>
    <v>       0.37277873       0.26049996       0.55750305 </v>
    <v>       0.47820918       0.88040623       0.55497880 </v>
    <v>       0.99814504       0.35413663       0.55793899 </v>
    <v>       0.97336011       0.85087537       0.55909406 </v>
    <v>       0.18914829       0.41542399       0.56166703 </v>
    <v>       0.12920761       0.98279267       0.55821327 </v>
    <v>       0.68305902       0.91489736       0.56154255 </v>
    <v>       0.46300134       0.18842265       0.54113973 </v>
    <v>       0.54751455       0.77758049       0.54394101 </v>
    <v>       0.03582815       0.24233702       0.54118442 </v>
    <v>       0.02761839       0.75235993       0.54049183 </v>
    <v>       0.20734269       0.52779509       0.54452841 </v>
    <v>       0.22591643       0.04835712       0.54283361 </v>
    <v>       0.79458956       0.95423032       0.54809711 </v>
    <v>       0.46200146       0.31334251       0.67448439 </v>
    <v>       0.43306720       0.81791318       0.67130779 </v>
    <v>       0.97123789       0.27823706       0.68185684 </v>
    <v>       0.92786331       0.78215467       0.67444508 </v>
    <v>       0.29750277       0.05443963       0.67488663 </v>
    <v>       0.30582589       0.54386127       0.67508760 </v>
    <v>       0.79105512       0.05900828       0.67529626 </v>
    <v>       0.80238098       0.58492637       0.66980053 </v>
    <v>       0.08346384       0.16749160       0.64500413 </v>
    <v>       0.10031613       0.69668005       0.65604217 </v>
    <v>       0.57191369       0.16193921       0.65200462 </v>
    <v>       0.57509316       0.67868591       0.65790961 </v>
    <v>       0.17659716       0.41333674       0.64922189 </v>
    <v>       0.17726552       0.91474167       0.64998492 </v>
    <v>       0.69651184       0.41689845       0.66007044 </v>
    <v>       0.67362515       0.92172401       0.64844305 </v>
    <v>       0.06854451       0.17876538       0.67220720 </v>
    <v>       0.04214946       0.69554416       0.67791873 </v>
    <v>       0.57037438       0.22191901       0.67365995 </v>
    <v>       0.53149551       0.71969731       0.68012254 </v>
    <v>       0.21063228       0.43577994       0.67430589 </v>
    <v>       0.20041642       0.94756023       0.67496734 </v>
    <v>       0.70782493       0.48548285       0.67938448 </v>
    <v>       0.68908795       0.95825651       0.67364231 </v>
    <v>       0.40003446       0.30467514       0.65345895 </v>
    <v>       0.42063426       0.83196930       0.64408256 </v>
    <v>       0.93174887       0.32283570       0.65970733 </v>
    <v>       0.92357707       0.83141477       0.65036317 </v>
    <v>       0.32786817       0.08092693       0.64965991 </v>
    <v>       0.32348600       0.58337291       0.65033784 </v>
    <v>       0.83386541       0.07812189       0.65103964 </v>
    <v>       0.83902879       0.57831040       0.64425832 </v>
    <v>       0.99753814       0.25876790       0.63521812 </v>
    <v>       0.03171082       0.78357720       0.63726009 </v>
    <v>       0.46504281       0.20814720       0.63764878 </v>
    <v>       0.51016748       0.74512400       0.63389583 </v>
    <v>       0.25453455       0.99456070       0.63206191 </v>
    <v>       0.24394997       0.50357599       0.63217210 </v>
    <v>       0.76482512       0.99427086       0.63234413 </v>
    <v>       0.77694529       0.47030731       0.63640201 </v>
    <v>       0.44874502       0.30128397       0.76888902 </v>
    <v>       0.44874501       0.80128391       0.76888902 </v>
    <v>       0.94874497       0.30128397       0.76888902 </v>
    <v>       0.94874501       0.80128391       0.76888902 </v>
    <v>       0.30127600       0.05129450       0.76887296 </v>
    <v>       0.30127601       0.55129450       0.76887296 </v>
    <v>       0.80127594       0.05129450       0.76887296 </v>
    <v>       0.80127598       0.55129450       0.76887296 </v>
    <v>       0.07877100       0.17118050       0.74344197 </v>
    <v>       0.07877101       0.67118045       0.74344197 </v>
    <v>       0.57877100       0.17118050       0.74344197 </v>
    <v>       0.57877099       0.67118045       0.74344197 </v>
    <v>       0.17119950       0.42117448       0.74342103 </v>
    <v>       0.17119950       0.92117451       0.74342103 </v>
    <v>       0.67119951       0.42117448       0.74342103 </v>
    <v>       0.67119950       0.92117451       0.74342103 </v>
    <v>       0.05125600       0.19871499       0.76888902 </v>
    <v>       0.05125600       0.69871493       0.76888902 </v>
    <v>       0.55125603       0.19871499       0.76888902 </v>
    <v>       0.55125602       0.69871493       0.76888902 </v>
    <v>       0.19872349       0.44870397       0.76887205 </v>
    <v>       0.19872349       0.94870397       0.76887205 </v>
    <v>       0.69872352       0.44870397       0.76887205 </v>
    <v>       0.69872351       0.94870397       0.76887205 </v>
    <v>       0.42123152       0.32881747       0.74344197 </v>
    <v>       0.42123151       0.82881744       0.74344197 </v>
    <v>       0.92123147       0.32881747       0.74344197 </v>
    <v>       0.92123151       0.82881744       0.74344197 </v>
    <v>       0.32880050       0.07882500       0.74342103 </v>
    <v>       0.32880049       0.57882496       0.74342103 </v>
    <v>       0.82880048       0.07882500       0.74342103 </v>
    <v>       0.82880052       0.57882496       0.74342103 </v>
    <v>       0.00000350       0.25000148       0.72582199 </v>
    <v>       0.00000350       0.75000145       0.72582199 </v>
    <v>       0.50000351       0.25000148       0.72582199 </v>
    <v>       0.50000350       0.75000145       0.72582199 </v>
    <v>       0.25000050       0.00000000       0.72580398 </v>
    <v>       0.25000052       0.50000000       0.72580398 </v>
    <v>       0.75000050       0.00000000       0.72580398 </v>
    <v>       0.75000049       0.50000000       0.72580398 </v>
    <v>       0.77477780       0.55714375       0.52315163 </v>
    <v>       0.72505424       0.47496101       0.52739589 </v>
    <v>       0.87025368       0.50146493       0.54461161 </v>
    <v>       0.85215285       0.48001132       0.57132948 </v>
    <v>       0.74074256       0.63634664       0.56189791 </v>
    <v>       0.80167343       0.59391766       0.58065972 </v>
    <v>       0.66206608       0.54194656       0.57113773 </v>
    <v>       0.67567881       0.45209205       0.56086419 </v>
    <v>       0.61543458       0.54776772       0.53878061 </v>
    <v>       0.66754012       0.62979138       0.53998960 </v>
    <v>       0.61126038       0.64848525       0.50782267 </v>
    <v>       0.68982033       0.60389484       0.49801334 </v>
    <v>       0.82891503       0.38660751       0.53161365 </v>
    <v>       0.75946537       0.37474014       0.55123995 </v>
    <v>       0.85210052       0.36114996       0.55789357 </v>
    <v>       0.86183841       0.69122356       0.55868517 </v>
    <v>       0.84859874       0.63625593       0.53543919 </v>
    <v>       0.90738408       0.60423106       0.55662378 </v>
    <v>       0.75871718       0.51486540       0.60047356 </v>
    <v>       0.76269268       0.42132266       0.59113569 </v>
    <v>       0.67766383       0.45801173       0.60091896 </v>
    <v>       0.53863489       0.53635592       0.50661662 </v>
    <v>       0.57471522       0.55508252       0.48092844 </v>
    <v>       0.70352868       0.48820093       0.47255948 </v>
    <v>       0.55360910       0.41932704       0.52199283 </v>
    <v>       0.76999395       0.36865463       0.47484626 </v>
    <v>       0.61993082       0.29828881       0.52472342 </v>
    <v>       0.72808021       0.27314609       0.50126185 </v>
    <v>       0.02118200       0.24379490       0.55812341 </v>
    <v>       0.01341729       0.74537051       0.55739109 </v>
    <v>       0.47981819       0.22519878       0.55406730 </v>
    <v>       0.51102246       0.77316629       0.55786347 </v>
    <v>       0.23880521       0.51402513       0.55860208 </v>
    <v>       0.23611177       0.01425247       0.55664936 </v>
    <v>       0.77060421       0.98419378       0.56135251 </v>
    <v>       0.00691066       0.24568717       0.65240417 </v>
    <v>       0.01206812       0.76417748       0.65306318 </v>
    <v>       0.48651269       0.23261424       0.65240106 </v>
    <v>       0.49813988       0.75536316       0.65093030 </v>
    <v>       0.25085934       0.49892546       0.64958586 </v>
    <v>       0.25207169       0.99726250       0.64958018 </v>
    <v>       0.76690291       0.49653605       0.65185322 </v>
    <v>       0.75343573       0.99938211       0.64949978 </v>
    <v>       0.49998898       0.24999498       0.74327702 </v>
    <v>       0.49998903       0.74999496       0.74327702 </v>
    <v>       0.99998898       0.24999498       0.74327702 </v>
    <v>       0.99998903       0.74999496       0.74327702 </v>
    <v>       0.25000050       0.00000100       0.74325596 </v>
    <v>       0.25000052       0.50000100       0.74325596 </v>
    <v>       0.75000050       0.00000100       0.74325596 </v>
    <v>       0.75000049       0.50000100       0.74325596 </v>
    <v>       0.62533430       0.46307735       0.49721929 </v>
    <v>       0.68600471       0.44689216       0.48390495 </v>
    <v>       0.60158081       0.40790256       0.51167836 </v>
    <v>       0.72247359       0.37807944       0.48518029 </v>
    <v>       0.63848672       0.33919171       0.51302046 </v>
    <v>       0.69917184       0.32526859       0.49981194 </v>
    <v>       0.73088345       0.53221674       0.53302134 </v>
    <v>       0.82986808       0.47521686       0.55510816 </v>
    <v>       0.78878258       0.60082096       0.56364215 </v>
    <v>       0.70351223       0.49701862       0.56961362 </v>
    <v>       0.66184118       0.57722393       0.53145926 </v>
    <v>       0.64079952       0.59690115       0.50822864 </v>
    <v>       0.81595380       0.39661186       0.54848544 </v>
    <v>       0.85613215       0.63403864       0.55277621 </v>
    <v>       0.72797089       0.47163174       0.59149709 </v>
    <v>       0.59023092       0.53884195       0.49740555 </v>
    <v>       0.03219803       0.18306813       0.56881702 </v>
    <v>       0.03178042       0.68314694       0.56679781 </v>
    <v>       0.54858423       0.22471679       0.56052917 </v>
    <v>       0.51206983       0.71097255       0.56880951 </v>
    <v>       0.42733955       0.26833960       0.56215296 </v>
    <v>       0.47022242       0.83150717       0.56313430 </v>
    <v>       0.99466929       0.30524071       0.56613185 </v>
    <v>       0.97985463       0.80085029       0.56661754 </v>
    <v>       0.22804735       0.44972613       0.56738814 </v>
    <v>       0.18049431       0.97737452       0.56454639 </v>
    <v>       0.70533938       0.96185628       0.56811027 </v>
    <v>       0.30320195       0.01533193       0.56468960 </v>
    <v>       0.28483305       0.56460575       0.56567082 </v>
    <v>       0.80911414       0.03669760       0.57016897 </v>
    <v>       0.05501444       0.19497903       0.65674696 </v>
    <v>       0.05234739       0.71651129       0.66304680 </v>
    <v>       0.54664313       0.20462020       0.65998815 </v>
    <v>       0.53737236       0.71550444       0.66413003 </v>
    <v>       0.21071475       0.44663488       0.65865316 </v>
    <v>       0.20834002       0.95200771       0.65925942 </v>
    <v>       0.72004473       0.46397871       0.66477597 </v>
    <v>       0.70331466       0.95846265       0.65823902 </v>
    <v>       0.44777063       0.28770329       0.66083347 </v>
    <v>       0.44783426       0.80460726       0.65599559 </v>
    <v>       0.96730451       0.28455868       0.66588135 </v>
    <v>       0.94978526       0.79344134       0.65974420 </v>
    <v>       0.29531491       0.04737204       0.65903117 </v>
    <v>       0.29488292       0.54369364       0.65945081 </v>
    <v>       0.79526392       0.04886984       0.65965153 </v>
    <v>       0.80484801       0.55815973       0.65536149 </v>
    <v>       0.04586250       0.20411950       0.75272599 </v>
    <v>       0.04586250       0.70411946       0.75272599 </v>
    <v>       0.54586251       0.20411950       0.75272599 </v>
    <v>       0.54586250       0.70411946       0.75272599 </v>
    <v>       0.20411900       0.45410100       0.75270499 </v>
    <v>       0.20411899       0.95410095       0.75270499 </v>
    <v>       0.70411898       0.45410100       0.75270499 </v>
    <v>       0.70411896       0.95410095       0.75270499 </v>
    <v>       0.45414002       0.29588849       0.75272697 </v>
    <v>       0.45414001       0.79588852       0.75272697 </v>
    <v>       0.95414002       0.29588849       0.75272697 </v>
    <v>       0.95414006       0.79588852       0.75272697 </v>
    <v>       0.29588249       0.04590050       0.75270499 </v>
    <v>       0.29588248       0.54590053       0.75270499 </v>
    <v>       0.79588244       0.04590050       0.75270499 </v>
    <v>       0.79588248       0.54590053       0.75270499 </v>
    <v>       0.76304021       0.52556555       0.55541419 </v>
    <v>       0.49809047       0.02269961       0.55171612 </v>
    <v>       0.47045534       0.51180873       0.55762496 </v>
    <v>       0.99091486       0.99571922       0.55038358 </v>
    <v>       0.03625671       0.49353397       0.55265729 </v>
    <v>       0.23001804       0.23706963       0.55210414 </v>
    <v>       0.25816746       0.75838557       0.55288121 </v>
    <v>       0.74595721       0.21070408       0.55554154 </v>
    <v>       0.71754221       0.78658609       0.54717237 </v>
    <v>       0.00091522       0.99384286       0.65414072 </v>
    <v>       0.01450026       0.49912757       0.65551655 </v>
    <v>       0.49428403       0.00217365       0.65435030 </v>
    <v>       0.50505462       0.49015893       0.65610340 </v>
    <v>       0.25341162       0.24677443       0.65475114 </v>
    <v>       0.24734417       0.75163744       0.65423895 </v>
    <v>       0.74177062       0.25933764       0.65525649 </v>
    <v>       0.75213583       0.75598301       0.65370002 </v>
    <v>       0.14293360       0.10462683       0.61120294 </v>
    <v>       0.14636238       0.60591758       0.60863608 </v>
    <v>       0.65134209       0.10412530       0.61010708 </v>
    <v>       0.61743117       0.63610926       0.61464149 </v>
    <v>       0.35182404       0.39081580       0.60823658 </v>
    <v>       0.36041419       0.89246101       0.60791267 </v>
    <v>       0.89209159       0.36246494       0.61438833 </v>
    <v>       0.86307847       0.88691978       0.60824855 </v>
    <v>       0.11556406       0.35661218       0.61139566 </v>
    <v>       0.11265350       0.86420188       0.60710379 </v>
    <v>       0.57772123       0.32808801       0.60728772 </v>
    <v>       0.61365668       0.86360368       0.61113285 </v>
    <v>       0.38292414       0.13110141       0.60812023 </v>
    <v>       0.38824150       0.63951672       0.61280280 </v>
    <v>       0.88799317       0.14135419       0.61190932 </v>
    <v>       0.91428617       0.64971734       0.61522535 </v>
    <v>       0.00000000       0.00000000       0.75492797 </v>
    <v>       0.00000000       0.50000000       0.75492797 </v>
    <v>       0.50000000       0.00000000       0.75492797 </v>
    <v>       0.49999999       0.50000000       0.75492797 </v>
    <v>       0.25000050       0.25000000       0.75493902 </v>
    <v>       0.25000051       0.74999997       0.75493902 </v>
    <v>       0.75000047       0.25000000       0.75493902 </v>
    <v>       0.75000046       0.74999997       0.75493902 </v>
    <v>       0.13579050       0.11421000       0.70478299 </v>
    <v>       0.13579050       0.61420998       0.70478299 </v>
    <v>       0.63579045       0.11421000       0.70478299 </v>
    <v>       0.63579049       0.61420998       0.70478299 </v>
    <v>       0.36420952       0.38578999       0.70478299 </v>
    <v>       0.36420950       0.88578996       0.70478299 </v>
    <v>       0.86420954       0.38578999       0.70478299 </v>
    <v>       0.86420953       0.88578996       0.70478299 </v>
    <v>       0.11421799       0.36421899       0.70478098 </v>
    <v>       0.11421799       0.86421899       0.70478098 </v>
    <v>       0.61421800       0.36421899       0.70478098 </v>
    <v>       0.61421799       0.86421899       0.70478098 </v>
    <v>       0.38578201       0.13578149       0.70478202 </v>
    <v>       0.38578200       0.63578149       0.70478202 </v>
    <v>       0.88578199       0.13578149       0.70478202 </v>
    <v>       0.88578203       0.63578149       0.70478202 </v>
    <v>       0.13466700       0.11533200       0.80125603 </v>
    <v>       0.13466699       0.61533199       0.80125603 </v>
    <v>       0.63466699       0.11533200       0.80125603 </v>
    <v>       0.63466698       0.61533199       0.80125603 </v>
    <v>       0.36533300       0.38466799       0.80125603 </v>
    <v>       0.36533299       0.88466796       0.80125603 </v>
    <v>       0.86533295       0.38466799       0.80125603 </v>
    <v>       0.86533294       0.88466796       0.80125603 </v>
    <v>       0.11532850       0.36533700       0.80126500 </v>
    <v>       0.11532850       0.86533698       0.80126500 </v>
    <v>       0.61532850       0.36533700       0.80126500 </v>
    <v>       0.61532849       0.86533698       0.80126500 </v>
    <v>       0.38467151       0.13466300       0.80126500 </v>
    <v>       0.38467150       0.63466297       0.80126500 </v>
    <v>       0.88467149       0.13466300       0.80126500 </v>
    <v>       0.88467153       0.63466297       0.80126500 </v>
    <v>       0.99514842       0.00023279       0.60467081 </v>
    <v>       0.00613979       0.49962440       0.60612831 </v>
    <v>       0.50028761       0.00673989       0.60294445 </v>
    <v>       0.49622875       0.49610274       0.60553078 </v>
    <v>       0.24485061       0.24598880       0.60284958 </v>
    <v>       0.24817967       0.74662520       0.60219369 </v>
    <v>       0.74587535       0.25020016       0.60386718 </v>
    <v>       0.74242715       0.75500852       0.60312442 </v>
    <v>       0.00000050       0.00000050       0.70482896 </v>
    <v>       0.00000050       0.50000048       0.70482896 </v>
    <v>       0.50000048       0.00000050       0.70482896 </v>
    <v>       0.50000046       0.50000048       0.70482896 </v>
    <v>       0.24999999       0.24999947       0.70482499 </v>
    <v>       0.25000001       0.74999950       0.70482499 </v>
    <v>       0.74999999       0.24999947       0.70482499 </v>
    <v>       0.74999998       0.74999950       0.70482499 </v>
    <v>       0.00000000       0.00000000       0.80731797 </v>
    <v>       0.00000000       0.50000000       0.80731797 </v>
    <v>       0.50000000       0.00000000       0.80731797 </v>
    <v>       0.49999999       0.50000000       0.80731797 </v>
    <v>       0.24999999       0.25000000       0.80731797 </v>
    <v>       0.25000001       0.74999997       0.80731797 </v>
    <v>       0.74999999       0.25000000       0.80731797 </v>
    <v>       0.74999998       0.74999997       0.80731797 </v>
   </varray>
  </structure>
  <varray name="primitive_index" >
   <v type="int" >        1 </v>
   <v type="int" >        2 </v>
   <v type="int" >        3 </v>
   <v type="int" >        4 </v>
   <v type="int" >        5 </v>
   <v type="int" >        6 </v>
   <v type="int" >        7 </v>
   <v type="int" >        8 </v>
   <v type="int" >        9 </v>
   <v type="int" >       10 </v>
   <v type="int" >       11 </v>
   <v type="int" >       12 </v>
   <v type="int" >       13 </v>
   <v type="int" >       14 </v>
   <v type="int" >       15 </v>
   <v type="int" >       16 </v>
   <v type="int" >       17 </v>
   <v type="int" >       18 </v>
   <v type="int" >       19 </v>
   <v type="int" >       20 </v>
   <v type="int" >       21 </v>
   <v type="int" >       22 </v>
   <v type="int" >       23 </v>
   <v type="int" >       24 </v>
   <v type="int" >       25 </v>
   <v type="int" >       26 </v>
   <v type="int" >       27 </v>
   <v type="int" >       28 </v>
   <v type="int" >       29 </v>
   <v type="int" >       30 </v>
   <v type="int" >       31 </v>
   <v type="int" >       32 </v>
   <v type="int" >       33 </v>
   <v type="int" >       34 </v>
   <v type="int" >       35 </v>
   <v type="int" >       36 </v>
   <v type="int" >       37 </v>
   <v type="int" >       38 </v>
   <v type="int" >       39 </v>
   <v type="int" >       40 </v>
   <v type="int" >       41 </v>
   <v type="int" >       42 </v>
   <v type="int" >       43 </v>
   <v type="int" >       44 </v>
   <v type="int" >       45 </v>
   <v type="int" >       46 </v>
   <v type="int" >       47 </v>
   <v type="int" >       48 </v>
   <v type="int" >       49 </v>
   <v type="int" >       50 </v>
   <v type="int" >       51 </v>
   <v type="int" >       52 </v>
   <v type="int" >       53 </v>
   <v type="int" >       54 </v>
   <v type="int" >       55 </v>
   <v type="int" >       56 </v>
   <v type="int" >       57 </v>
   <v type="int" >       58 </v>
   <v type="int" >       59 </v>
   <v type="int" >       60 </v>
   <v type="int" >       61 </v>
   <v type="int" >       62 </v>
   <v type="int" >       63 </v>
   <v type="int" >       64 </v>
   <v type="int" >       65 </v>
   <v type="int" >       66 </v>
   <v type="int" >       67 </v>
   <v type="int" >       68 </v>
   <v type="int" >       69 </v>
   <v type="int" >       70 </v>
   <v type="int" >       71 </v>
   <v type="int" >       72 </v>
   <v type="int" >       73 </v>
   <v type="int" >       74 </v>
   <v type="int" >       75 </v>
   <v type="int" >       76 </v>
   <v type="int" >       77 </v>
   <v type="int" >       78 </v>
   <v type="int" >       79 </v>
   <v type="int" >       80 </v>
   <v type="int" >       81 </v>
   <v type="int" >       82 </v>
   <v type="int" >       83 </v>
   <v type="int" >       84 </v>
   <v type="int" >       85 </v>
   <v type="int" >       86 </v>
   <v type="int" >       87 </v>
   <v type="int" >       88 </v>
   <v type="int" >       89 </v>
   <v type="int" >       90 </v>
   <v type="int" >       91 </v>
   <v type="int" >       92 </v>
   <v type="int" >       93 </v>
   <v type="int" >       94 </v>
   <v type="int" >       95 </v>
   <v type="int" >       96 </v>
   <v type="int" >       97 </v>
   <v type="int" >       98 </v>
   <v type="int" >       99 </v>
   <v type="int" >      100 </v>
   <v type="int" >      101 </v>
   <v type="int" >      102 </v>
   <v type="int" >      103 </v>
   <v type="int" >      104 </v>
   <v type="int" >      105 </v>
   <v type="int" >      106 </v>
   <v type="int" >      107 </v>
   <v type="int" >      108 </v>
   <v type="int" >      109 </v>
   <v type="int" >      110 </v>
   <v type="int" >      111 </v>
   <v type="int" >      112 </v>
   <v type="int" >      113 </v>
   <v type="int" >      114 </v>
   <v type="int" >      115 </v>
   <v type="int" >      116 </v>
   <v type="int" >      117 </v>
   <v type="int" >      118 </v>
   <v type="int" >      119 </v>
   <v type="int" >      120 </v>
   <v type="int" >      121 </v>
   <v type="int" >      122 </v>
   <v type="int" >      123 </v>
   <v type="int" >      124 </v>
   <v type="int" >      125 </v>
   <v type="int" >      126 </v>
   <v type="int" >      127 </v>
   <v type="int" >      128 </v>
   <v type="int" >      129 </v>
   <v type="int" >      130 </v>
   <v type="int" >      131 </v>
   <v type="int" >      132 </v>
   <v type="int" >      133 </v>
   <v type="int" >      134 </v>
   <v type="int" >      135 </v>
   <v type="int" >      136 </v>
   <v type="int" >      137 </v>
   <v type="int" >      138 </v>
   <v type="int" >      139 </v>
   <v type="int" >      140 </v>
   <v type="int" >      141 </v>
   <v type="int" >      142 </v>
   <v type="int" >      143 </v>
   <v type="int" >      144 </v>
   <v type="int" >      145 </v>
   <v type="int" >      146 </v>
   <v type="int" >      147 </v>
   <v type="int" >      148 </v>
   <v type="int" >      149 </v>
   <v type="int" >      150 </v>
   <v type="int" >      151 </v>
   <v type="int" >      152 </v>
   <v type="int" >      153 </v>
   <v type="int" >      154 </v>
   <v type="int" >      155 </v>
   <v type="int" >      156 </v>
   <v type="int" >      157 </v>
   <v type="int" >      158 </v>
   <v type="int" >      159 </v>
   <v type="int" >      160 </v>
   <v type="int" >      161 </v>
   <v type="int" >      162 </v>
   <v type="int" >      163 </v>
   <v type="int" >      164 </v>
   <v type="int" >      165 </v>
   <v type="int" >      166 </v>
   <v type="int" >      167 </v>
   <v type="int" >      168 </v>
   <v type="int" >      169 </v>
   <v type="int" >      170 </v>
   <v type="int" >      171 </v>
   <v type="int" >      172 </v>
   <v type="int" >      173 </v>
   <v type="int" >      174 </v>
   <v type="int" >      175 </v>
   <v type="int" >      176 </v>
   <v type="int" >      177 </v>
   <v type="int" >      178 </v>
   <v type="int" >      179 </v>
   <v type="int" >      180 </v>
   <v type="int" >      181 </v>
   <v type="int" >      182 </v>
   <v type="int" >      183 </v>
   <v type="int" >      184 </v>
   <v type="int" >      185 </v>
   <v type="int" >      186 </v>
   <v type="int" >      187 </v>
   <v type="int" >      188 </v>
   <v type="int" >      189 </v>
   <v type="int" >      190 </v>
   <v type="int" >      191 </v>
   <v type="int" >      192 </v>
   <v type="int" >      193 </v>
   <v type="int" >      194 </v>
   <v type="int" >      195 </v>
   <v type="int" >      196 </v>
   <v type="int" >      197 </v>
   <v type="int" >      198 </v>
   <v type="int" >      199 </v>
   <v type="int" >      200 </v>
   <v type="int" >      201 </v>
   <v type="int" >      202 </v>
   <v type="int" >      203 </v>
   <v type="int" >      204 </v>
   <v type="int" >      205 </v>
   <v type="int" >      206 </v>
   <v type="int" >      207 </v>
   <v type="int" >      208 </v>
   <v type="int" >      209 </v>
   <v type="int" >      210 </v>
   <v type="int" >      211 </v>
   <v type="int" >      212 </v>
   <v type="int" >      213 </v>
   <v type="int" >      214 </v>
   <v type="int" >      215 </v>
   <v type="int" >      216 </v>
   <v type="int" >      217 </v>
   <v type="int" >      218 </v>
   <v type="int" >      219 </v>
   <v type="int" >      220 </v>
   <v type="int" >      221 </v>
   <v type="int" >      222 </v>
   <v type="int" >      223 </v>
   <v type="int" >      224 </v>
   <v type="int" >      225 </v>
   <v type="int" >      226 </v>
   <v type="int" >      227 </v>
   <v type="int" >      228 </v>
   <v type="int" >      229 </v>
   <v type="int" >      230 </v>
   <v type="int" >      231 </v>
   <v type="int" >      232 </v>
   <v type="int" >      233 </v>
   <v type="int" >      234 </v>
   <v type="int" >      235 </v>
   <v type="int" >      236 </v>
   <v type="int" >      237 </v>
   <v type="int" >      238 </v>
   <v type="int" >      239 </v>
   <v type="int" >      240 </v>
   <v type="int" >      241 </v>
   <v type="int" >      242 </v>
   <v type="int" >      243 </v>
   <v type="int" >      244 </v>
   <v type="int" >      245 </v>
   <v type="int" >      246 </v>
   <v type="int" >      247 </v>
   <v type="int" >      248 </v>
   <v type="int" >      249 </v>
   <v type="int" >      250 </v>
   <v type="int" >      251 </v>
   <v type="int" >      252 </v>
   <v type="int" >      253 </v>
   <v type="int" >      254 </v>
   <v type="int" >      255 </v>
   <v type="int" >      256 </v>
   <v type="int" >      257 </v>
   <v type="int" >      258 </v>
   <v type="int" >      259 </v>
   <v type="int" >      260 </v>
   <v type="int" >      261 </v>
   <v type="int" >      262 </v>
   <v type="int" >      263 </v>
   <v type="int" >      264 </v>
   <v type="int" >      265 </v>
   <v type="int" >      266 </v>
   <v type="int" >      267 </v>
   <v type="int" >      268 </v>
   <v type="int" >      269 </v>
   <v type="int" >      270 </v>
   <v type="int" >      271 </v>
   <v type="int" >      272 </v>
   <v type="int" >      273 </v>
   <v type="int" >      274 </v>
   <v type="int" >      275 </v>
   <v type="int" >      276 </v>
   <v type="int" >      277 </v>
   <v type="int" >      278 </v>
   <v type="int" >      279 </v>
   <v type="int" >      280 </v>
   <v type="int" >      281 </v>
   <v type="int" >      282 </v>
   <v type="int" >      283 </v>
   <v type="int" >      284 </v>
   <v type="int" >      285 </v>
   <v type="int" >      286 </v>
   <v type="int" >      287 </v>
   <v type="int" >      288 </v>
   <v type="int" >      289 </v>
   <v type="int" >      290 </v>
   <v type="int" >      291 </v>
   <v type="int" >      292 </v>
   <v type="int" >      293 </v>
   <v type="int" >      294 </v>
   <v type="int" >      295 </v>
   <v type="int" >      296 </v>
   <v type="int" >      297 </v>
   <v type="int" >      298 </v>
   <v type="int" >      299 </v>
   <v type="int" >      300 </v>
   <v type="int" >      301 </v>
   <v type="int" >      302 </v>
   <v type="int" >      303 </v>
   <v type="int" >      304 </v>
   <v type="int" >      305 </v>
   <v type="int" >      306 </v>
   <v type="int" >      307 </v>
   <v type="int" >      308 </v>
   <v type="int" >      309 </v>
   <v type="int" >      310 </v>
   <v type="int" >      311 </v>
   <v type="int" >      312 </v>
   <v type="int" >      313 </v>
   <v type="int" >      314 </v>
   <v type="int" >      315 </v>
   <v type="int" >      316 </v>
   <v type="int" >      317 </v>
   <v type="int" >      318 </v>
   <v type="int" >      319 </v>
   <v type="int" >      320 </v>
   <v type="int" >      321 </v>
   <v type="int" >      322 </v>
   <v type="int" >      323 </v>
   <v type="int" >      324 </v>
   <v type="int" >      325 </v>
  </varray>
 </primitive_cell>
 <kpoints>
  <generation param="Gamma">
   <v type="int" name="divisions">       3        3        1 </v>
   <v name="usershift">      0.00000000       0.00000000       0.00000000 </v>
   <v name="genvec1">      0.33333333       0.00000000       0.00000000 </v>
   <v name="genvec2">      0.00000000       0.33333333       0.00000000 </v>
   <v name="genvec3">      0.00000000       0.00000000       1.00000000 </v>
   <v name="shift">      0.00000000       0.00000000       0.00000000 </v>
  </generation>
  <varray name="kpointlist" >
   <v>       0.00000000       0.00000000       0.00000000 </v>
   <v>       0.33333333       0.00000000       0.00000000 </v>
   <v>       0.00000000       0.33333333       0.00000000 </v>
   <v>       0.33333333       0.33333333       0.00000000 </v>
   <v>      -0.33333333       0.33333333       0.00000000 </v>
  </varray>
  <varray name="weights" >
   <v>       0.11111111 </v>
   <v>       0.22222222 </v>
   <v>       0.22222222 </v>
   <v>       0.22222222 </v>
   <v>       0.22222222 </v>
  </varray>
 </kpoints>
 <parameters>
  <separator name="general" >
   <i type="string" name="SYSTEM">PSC</i>
   <i type="logical" name="LCOMPAT"> F  </i>
  </separator>
  <separator name="electronic" >
   <i type="string" name="PREC">normal</i>
   <i name="ENMAX">    500.00000000</i>
   <i name="ENAUG">    644.87300000</i>
   <i name="EDIFF">      0.00010000</i>
   <i type="int" name="IALGO">    38</i>
   <i type="int" name="IWAVPR">    10</i>
   <i type="int" name="NBANDS">   732</i>
   <i type="int" name="NBANDSLOW">    -1</i>
   <i type="int" name="NBANDSHIGH">    -1</i>
   <i name="NELECT">   1134.00000000</i>
   <i type="int" name="TURBO">     0</i>
   <i type="int" name="IRESTART">     0</i>
   <i type="int" name="NREBOOT">     0</i>
   <i type="int" name="NMIN">     0</i>
   <i name="EREF">      0.00000000</i>
   <separator name="electronic smearing" >
    <i type="int" name="ISMEAR">     0</i>
    <i name="SIGMA">      0.05000000</i>
    <i name="KSPACING">      0.50000000</i>
    <i type="logical" name="KGAMMA"> T  </i>
    <i type="logical" name="KBLOWUP"> T  </i>
   </separator>
   <separator name="electronic projectors" >
    <i type="logical" name="LREAL"> T  </i>
    <v name="ROPT">     -0.00050000     -0.00050000     -0.00050000     -0.00050000     -0.00050000</v>
    <i type="int" name="LMAXPAW">  -100</i>
    <i type="int" name="LMAXMIX">     2</i>
    <i type="logical" name="NLSPLINE"> F  </i>
   </separator>
   <separator name="electronic startup" >
    <i type="int" name="ISTART">     0</i>
    <i type="int" name="ICHARG">     1</i>
    <i type="int" name="INIWAV">     1</i>
   </separator>
   <separator name="electronic spin" >
    <i type="int" name="ISPIN">     1</i>
    <i type="logical" name="LNONCOLLINEAR"> F  </i>
    <v name="MAGMOM">      1.00000000      1.00000000      1.00000000      1.00000000      1.00000000      1.00000000      1.00000000      1.00000000      1.00000000      1.00000000      1.00000000      1.00000000      1.00000000      1.00000000      1.00000000      1.00000000      1.00000000      1.00000000      1.00000000      1.00000000
      1.00000000      1.00000000      1.00000000      1.00000000      1.00000000      1.00000000      1.00000000      1.00000000      1.00000000      1.00000000      1.00000000      1.00000000      1.00000000      1.00000000      1.00000000      1.00000000      1.00000000      1.00000000      1.00000000      1.00000000
      1.00000000      1.00000000      1.00000000      1.00000000      1.00000000      1.00000000      1.00000000      1.00000000      1.00000000      1.00000000      1.00000000      1.00000000      1.00000000      1.00000000      1.00000000      1.00000000      1.00000000      1.00000000      1.00000000      1.00000000
      1.00000000      1.00000000      1.00000000      1.00000000      1.00000000      1.00000000      1.00000000      1.00000000      1.00000000      1.00000000      1.00000000      1.00000000      1.00000000      1.00000000      1.00000000      1.00000000      1.00000000      1.00000000      1.00000000      1.00000000
      1.00000000      1.00000000      1.00000000      1.00000000      1.00000000      1.00000000      1.00000000      1.00000000      1.00000000      1.00000000      1.00000000      1.00000000      1.00000000      1.00000000      1.00000000      1.00000000      1.00000000      1.00000000      1.00000000      1.00000000
      1.00000000      1.00000000      1.00000000      1.00000000      1.00000000      1.00000000      1.00000000      1.00000000      1.00000000      1.00000000      1.00000000      1.00000000      1.00000000      1.00000000      1.00000000      1.00000000      1.00000000      1.00000000      1.00000000      1.00000000
      1.00000000      1.00000000      1.00000000      1.00000000      1.00000000      1.00000000      1.00000000      1.00000000      1.00000000      1.00000000      1.00000000      1.00000000      1.00000000      1.00000000      1.00000000      1.00000000      1.00000000      1.00000000      1.00000000      1.00000000
      1.00000000      1.00000000      1.00000000      1.00000000      1.00000000      1.00000000      1.00000000      1.00000000      1.00000000      1.00000000      1.00000000      1.00000000      1.00000000      1.00000000      1.00000000      1.00000000      1.00000000      1.00000000      1.00000000      1.00000000
      1.00000000      1.00000000      1.00000000      1.00000000      1.00000000      1.00000000      1.00000000      1.00000000      1.00000000      1.00000000      1.00000000      1.00000000      1.00000000      1.00000000      1.00000000      1.00000000      1.00000000      1.00000000      1.00000000      1.00000000
      1.00000000      1.00000000      1.00000000      1.00000000      1.00000000      1.00000000      1.00000000      1.00000000      1.00000000      1.00000000      1.00000000      1.00000000      1.00000000      1.00000000      1.00000000      1.00000000      1.00000000      1.00000000      1.00000000      1.00000000
      1.00000000      1.00000000      1.00000000      1.00000000      1.00000000      1.00000000      1.00000000      1.00000000      1.00000000      1.00000000      1.00000000      1.00000000      1.00000000      1.00000000      1.00000000      1.00000000      1.00000000      1.00000000      1.00000000      1.00000000
      1.00000000      1.00000000      1.00000000      1.00000000      1.00000000      1.00000000      1.00000000      1.00000000      1.00000000      1.00000000      1.00000000      1.00000000      1.00000000      1.00000000      1.00000000      1.00000000      1.00000000      1.00000000      1.00000000      1.00000000
      1.00000000      1.00000000      1.00000000      1.00000000      1.00000000      1.00000000      1.00000000      1.00000000      1.00000000      1.00000000      1.00000000      1.00000000      1.00000000      1.00000000      1.00000000      1.00000000      1.00000000      1.00000000      1.00000000      1.00000000
      1.00000000      1.00000000      1.00000000      1.00000000      1.00000000      1.00000000      1.00000000      1.00000000      1.00000000      1.00000000      1.00000000      1.00000000      1.00000000      1.00000000      1.00000000      1.00000000      1.00000000      1.00000000      1.00000000      1.00000000
      1.00000000      1.00000000      1.00000000      1.00000000      1.00000000      1.00000000      1.00000000      1.00000000      1.00000000      1.00000000      1.00000000      1.00000000      1.00000000      1.00000000      1.00000000      1.00000000      1.00000000      1.00000000      1.00000000      1.00000000
      1.00000000      1.00000000      1.00000000      1.00000000      1.00000000      1.00000000      1.00000000      1.00000000      1.00000000      1.00000000      1.00000000      1.00000000      1.00000000      1.00000000      1.00000000      1.00000000      1.00000000      1.00000000      1.00000000      1.00000000
      1.00000000      1.00000000      1.00000000      1.00000000      1.00000000</v>
    <i name="NUPDOWN">     -1.00000000</i>
    <i type="logical" name="LSORBIT"> F  </i>
    <v name="SAXIS">      0.00000000      0.00000000      1.00000000</v>
    <i type="logical" name="LSPIRAL"> F  </i>
    <v name="QSPIRAL">      0.00000000      0.00000000      0.00000000</v>
    <i type="logical" name="LZEROZ"> F  </i>
   </separator>
   <separator name="electronic exchange-correlation" >
    <i type="logical" name="LASPH"> F  </i>
    <i type="logical" name="LMETAGGA"> F  </i>
   </separator>
   <separator name="electronic convergence" >
    <i type="int" name="NELM">   600</i>
    <i type="int" name="NELMDL">     0</i>
    <i type="int" name="NELMIN">     2</i>
    <i name="ENINI">    500.00000000</i>
    <separator name="electronic convergence detail" >
     <i type="logical" name="LDIAG"> T  </i>
     <i type="logical" name="LSUBROT"> F  </i>
     <i name="WEIMIN">      0.00000000</i>
     <i name="EBREAK">      0.00000003</i>
     <i name="DEPER">      0.30000000</i>
     <i type="int" name="NRMM">     4</i>
     <i name="TIME">      0.40000000</i>
    </separator>
   </separator>
   <separator name="electronic mixer" >
    <i name="AMIX">      0.40000000</i>
    <i name="BMIX">      0.01000000</i>
    <i name="AMIN">      0.01000000</i>
    <i name="AMIX_MAG">      1.60000000</i>
    <i name="BMIX_MAG">      0.01000000</i>
    <separator name="electronic mixer details" >
     <i type="int" name="IMIX">     4</i>
     <i type="logical" name="MIXFIRST"> F  </i>
     <i type="int" name="MAXMIX">   -45</i>
     <i name="WC">    100.00000000</i>
     <i type="int" name="INIMIX">     1</i>
     <i type="int" name="MIXPRE">     1</i>
     <i type="int" name="MREMOVE">     5</i>
    </separator>
   </separator>
   <separator name="electronic dipolcorrection" >
    <i type="logical" name="LDIPOL"> T  </i>
    <i type="logical" name="LMONO"> F  </i>
    <i type="int" name="IDIPOL">     3</i>
    <i name="EPSILON">      1.00000000</i>
    <v name="DIPOL">   -100.00000000   -100.00000000   -100.00000000</v>
    <i name="EFIELD">      0.00000000</i>
   </separator>
  </separator>
  <separator name="grids" >
   <i type="int" name="NGX">   100</i>
   <i type="int" name="NGY">   100</i>
   <i type="int" name="NGZ">   350</i>
   <i type="int" name="NGXF">   200</i>
   <i type="int" name="NGYF">   200</i>
   <i type="int" name="NGZF">   700</i>
   <i type="logical" name="ADDGRID"> F  </i>
  </separator>
  <separator name="ionic" >
   <i type="int" name="NSW">     0</i>
   <i type="int" name="IBRION">    -1</i>
   <i type="int" name="MDALGO">     0</i>
   <i type="int" name="ISIF">     2</i>
   <i name="PSTRESS">      0.00000000</i>
   <i name="EDIFFG">      0.00100000</i>
   <i type="int" name="NFREE">     0</i>
   <i name="POTIM">      0.50000000</i>
   <i name="SMASS">     -3.00000000</i>
   <i name="SCALEE">      1.00000000</i>
  </separator>
  <separator name="ionic md" >
   <i name="TEBEG">      0.00010000</i>
   <i name="TEEND">      0.00010000</i>
   <i type="int" name="NBLOCK">     1</i>
   <i type="int" name="KBLOCK">     1</i>
   <i type="int" name="NPACO">   256</i>
   <i name="APACO">     16.00000000</i>
  </separator>
  <separator name="symmetry" >
   <i type="int" name="ISYM">     0</i>
   <i name="SYMPREC">      0.00001000</i>
  </separator>
  <separator name="dos" >
   <i type="int" name="LORBIT">     0</i>
   <v name="RWIGS">     -1.00000000     -1.00000000     -1.00000000     -1.00000000     -1.00000000</v>
   <i type="int" name="NEDOS">   301</i>
   <i name="EMIN">     10.00000000</i>
   <i name="EMAX">    -10.00000000</i>
   <i name="EFERMI">      0.00000000</i>
  </separator>
  <separator name="writing" >
   <i type="int" name="NWRITE">     2</i>
   <i type="logical" name="LWAVE"> F  </i>
   <i type="logical" name="LDOWNSAMPLE"> F  </i>
   <i type="logical" name="LCHARG"> T  </i>
   <i type="logical" name="LPARD"> F  </i>
   <i type="logical" name="LVTOT"> T  </i>
   <i type="logical" name="LVHAR"> F  </i>
   <i type="logical" name="LELF"> F  </i>
   <i type="logical" name="LOPTICS"> F  </i>
   <v name="STM">      0.00000000      0.00000000      0.00000000      0.00000000      0.00000000      0.00000000      0.00000000</v>
  </separator>
  <separator name="performance" >
   <i type="int" name="NPAR">     4</i>
   <i type="int" name="NSIM">     4</i>
   <i type="int" name="NBLK">    -1</i>
   <i type="logical" name="LPLANE"> T  </i>
   <i type="logical" name="LSCALAPACK"> T  </i>
   <i type="logical" name="LSCAAWARE"> F  </i>
   <i type="logical" name="LSCALU"> F  </i>
   <i type="logical" name="LASYNC"> F  </i>
   <i type="logical" name="LORBITALREAL"> F  </i>
  </separator>
  <separator name="miscellaneous" >
   <i type="int" name="IDIOT">     3</i>
   <i type="int" name="PHON_NSTRUCT">    -1</i>
   <i type="logical" name="LMUSIC"> F  </i>
   <v name="POMASS">      1.00000000     12.01100000     14.00100000    126.90400000    207.20000000</v>
   <v name="DARWINR">      0.00000000      0.00000000      0.00000000      0.00000000      0.00000000</v>
   <v name="DARWINV">      1.00000000      1.00000000      1.00000000      1.00000000      1.00000000</v>
   <i type="logical" name="LCORR"> T  </i>
  </separator>
  <i type="logical" name="GGA_COMPAT"> F  </i>
  <i type="logical" name="LBERRY"> F  </i>
  <i type="int" name="ICORELEVEL">     0</i>
  <i type="logical" name="LDAU"> F  </i>
  <i type="int" name="I_CONSTRAINED_M">     0</i>
  <separator name="electronic exchange-correlation" >
   <i type="string" name="GGA">--</i>
   <i type="int" name="VOSKOWN">     0</i>
   <i type="logical" name="LHFCALC"> F  </i>
   <i type="string" name="PRECFOCK"></i>
   <i type="logical" name="LSYMGRAD"> F  </i>
   <i type="logical" name="LHFONE"> F  </i>
   <i type="logical" name="LRHFCALC"> F  </i>
   <i type="logical" name="LTHOMAS"> F  </i>
   <i type="logical" name="LMODELHF"> F  </i>
   <i type="logical" name="LFOCKACE"> F  </i>
   <i name="ENCUT4O">     -1.00000000</i>
   <i type="int" name="EXXOEP">     0</i>
   <i type="int" name="FOURORBIT">     0</i>
   <i name="AEXX">      0.00000000</i>
   <i name="HFALPHA">      0.00000000</i>
   <i name="MCALPHA">      0.00000000</i>
   <i name="ALDAX">      1.00000000</i>
   <i name="AGGAX">      1.00000000</i>
   <i name="ALDAC">      1.00000000</i>
   <i name="AGGAC">      1.00000000</i>
   <i type="int" name="NKREDX">     1</i>
   <i type="int" name="NKREDY">     1</i>
   <i type="int" name="NKREDZ">     1</i>
   <i type="logical" name="SHIFTRED"> F  </i>
   <i type="logical" name="ODDONLY"> F  </i>
   <i type="logical" name="EVENONLY"> F  </i>
   <i type="int" name="LMAXFOCK">     0</i>
   <i type="int" name="NMAXFOCKAE">     0</i>
   <i type="logical" name="LFOCKAEDFT"> F  </i>
   <i name="HFSCREEN">      0.00000000</i>
   <i name="HFSCREENC">      0.00000000</i>
   <i type="int" name="NBANDSGWLOW">     0</i>
  </separator>
  <separator name="vdW DFT" >
   <i type="logical" name="LUSE_VDW"> F  </i>
   <i name="Zab_VDW">     -0.84910000</i>
   <i name="PARAM1">      0.12340000</i>
   <i name="PARAM2">      1.00000000</i>
   <i name="PARAM3">      0.00000000</i>
  </separator>
  <separator name="model GW" >
   <i type="int" name="MODEL_GW">     0</i>
   <i name="MODEL_EPS0">     37.63423484</i>
   <i name="MODEL_ALPHA">      1.00000000</i>
  </separator>
  <separator name="linear response parameters" >
   <i type="logical" name="LEPSILON"> F  </i>
   <i type="logical" name="LRPA"> F  </i>
   <i type="logical" name="LNABLA"> F  </i>
   <i type="logical" name="LVEL"> F  </i>
   <i type="int" name="KINTER">     0</i>
   <i name="CSHIFT">      0.10000000</i>
   <i name="OMEGAMAX">     -1.00000000</i>
   <i name="DEG_THRESHOLD">      0.00200000</i>
   <i name="RTIME">     -0.10000000</i>
   <i name="WPLASMAI">      0.00000000</i>
   <v name="DFIELD">      0.00000000      0.00000000      0.00000000</v>
   <v name="WPLASMA">      0.00000000      0.00000000      0.00000000      0.00000000      0.00000000      0.00000000      0.00000000      0.00000000      0.00000000</v>
  </separator>
  <separator name="orbital magnetization" >
   <i type="logical" name="NUCIND"> F  </i>
   <v name="MAGPOS">      0.00000000      0.00000000      0.00000000</v>
   <i type="logical" name="LNICSALL"> T  </i>
   <i type="logical" name="ORBITALMAG"> F  </i>
   <i type="logical" name="LMAGBLOCH"> F  </i>
   <i type="logical" name="LCHIMAG"> F  </i>
   <i type="logical" name="LGAUGE"> T  </i>
   <i type="int" name="MAGATOM">     0</i>
   <v name="MAGDIPOL">      0.00000000      0.00000000      0.00000000</v>
   <v name="AVECCONST">      0.00000000      0.00000000      0.00000000</v>
  </separator>
  <separator name="response functions" >
   <i type="logical" name="LFINITE_TEMPERATURE"> F  </i>
   <i type="logical" name="LADDER"> F  </i>
   <i type="logical" name="LRPAFORCE"> F  </i>
   <i type="logical" name="LFXC"> F  </i>
   <i type="logical" name="LHARTREE"> T  </i>
   <i type="int" name="IBSE">     0</i>
   <v type="int" name="KPOINT">    -1     0     0     0</v>
   <i type="logical" name="LTCTC"> F  </i>
   <i type="logical" name="LTCTE"> F  </i>
   <i type="logical" name="LTETE"> F  </i>
   <i type="logical" name="LTRIPLET"> F  </i>
   <i type="logical" name="LFXCEPS"> F  </i>
   <i type="logical" name="LFXHEG"> F  </i>
   <i type="int" name="NATURALO">     2</i>
   <i type="logical" name="LHOLEGF"> F  </i>
   <i type="logical" name="L2ORDER"> F  </i>
   <i type="logical" name="LDMP1"> F  </i>
   <i type="logical" name="LMP2LT"> F  </i>
   <i type="logical" name="LSMP2LT"> F  </i>
   <i type="logical" name="LGWLF"> F  </i>
   <i name="ENCUTGW">     -2.00000000</i>
   <i name="ENCUTGWSOFT">     -2.00000000</i>
   <i name="ENCUTLF">     -1.00000000</i>
   <i type="logical" name="LESF_SPLINES"> F  </i>
   <i type="int" name="LMAXMP2">    -1</i>
   <i name="SCISSOR">      0.00000000</i>
   <i type="int" name="NOMEGA">     0</i>
   <i type="int" name="NOMEGAR">     0</i>
   <i type="int" name="NBANDSGW">    -1</i>
   <i type="int" name="NBANDSO">    -1</i>
   <i type="int" name="NBANDSV">    -1</i>
   <i type="int" name="NELM">   600</i>
   <i type="int" name="NELMHF">     1</i>
   <i type="int" name="DIM">     3</i>
   <i type="int" name="IESPILON">     4</i>
   <i type="int" name="ANTIRES">     0</i>
   <i name="OMEGAMAX">    -30.00000000</i>
   <i name="OMEGAMIN">    -30.00000000</i>
   <i name="OMEGATL">   -200.00000000</i>
   <i type="int" name="OMEGAGRID">     0</i>
   <i name="CSHIFT">     -0.10000000</i>
   <i type="logical" name="LSELFENERGY"> F  </i>
   <i type="logical" name="LSPECTRAL"> F  </i>
   <i type="logical" name="LSPECTRALGW"> F  </i>
   <i type="logical" name="LSINGLES"> F  </i>
   <i type="logical" name="LFERMIGW"> F  </i>
   <i type="logical" name="ODDONLYGW"> F  </i>
   <i type="logical" name="EVENONLYGW"> F  </i>
   <i type="int" name="NKREDLFX">     1</i>
   <i type="int" name="NKREDLFY">     1</i>
   <i type="int" name="NKREDLFZ">     1</i>
   <i type="int" name="MAXMEM">  2800</i>
   <i type="int" name="TELESCOPE">     0</i>
   <i type="int" name="NTAUPAR">    -1</i>
   <i type="int" name="NOMEGAPAR">    -1</i>
   <i name="DAMP_NEWTON">      0.80000001</i>
   <i name="LAMBDA">      1.00000000</i>
  </separator>
  <separator name="External order field" >
   <i name="OFIELD_KAPPA">      0.00000000</i>
   <v name="OFIELD_K">      0.00000000      0.00000000      0.00000000</v>
   <i name="OFIELD_Q6_NEAR">      0.00000000</i>
   <i name="OFIELD_Q6_FAR">      0.00000000</i>
   <i name="OFIELD_A">      0.00000000</i>
  </separator>
 </parameters>
 <atominfo>
  <atoms>     325 </atoms>
  <types>       5 </types>
  <array name="atoms" >
   <dimension dim="1">ion</dimension>
   <field type="string">element</field>
   <field type="int">atomtype</field>
   <set>
    <rc><c>H </c><c>   1</c></rc>
    <rc><c>H </c><c>   1</c></rc>
    <rc><c>H </c><c>   1</c></rc>
    <rc><c>H </c><c>   1</c></rc>
    <rc><c>H </c><c>   1</c></rc>
    <rc><c>H </c><c>   1</c></rc>
    <rc><c>H </c><c>   1</c></rc>
    <rc><c>H </c><c>   1</c></rc>
    <rc><c>H </c><c>   1</c></rc>
    <rc><c>H </c><c>   1</c></rc>
    <rc><c>H </c><c>   1</c></rc>
    <rc><c>H </c><c>   1</c></rc>
    <rc><c>H </c><c>   1</c></rc>
    <rc><c>H </c><c>   1</c></rc>
    <rc><c>H </c><c>   1</c></rc>
    <rc><c>H </c><c>   1</c></rc>
    <rc><c>H </c><c>   1</c></rc>
    <rc><c>H </c><c>   1</c></rc>
    <rc><c>H </c><c>   1</c></rc>
    <rc><c>H </c><c>   1</c></rc>
    <rc><c>H </c><c>   1</c></rc>
    <rc><c>H </c><c>   1</c></rc>
    <rc><c>H </c><c>   1</c></rc>
    <rc><c>H </c><c>   1</c></rc>
    <rc><c>H </c><c>   1</c></rc>
    <rc><c>H </c><c>   1</c></rc>
    <rc><c>H </c><c>   1</c></rc>
    <rc><c>H </c><c>   1</c></rc>
    <rc><c>H </c><c>   1</c></rc>
    <rc><c>H </c><c>   1</c></rc>
    <rc><c>H </c><c>   1</c></rc>
    <rc><c>H </c><c>   1</c></rc>
    <rc><c>H </c><c>   1</c></rc>
    <rc><c>H </c><c>   1</c></rc>
    <rc><c>H </c><c>   1</c></rc>
    <rc><c>H </c><c>   1</c></rc>
    <rc><c>H </c><c>   1</c></rc>
    <rc><c>H </c><c>   1</c></rc>
    <rc><c>H </c><c>   1</c></rc>
    <rc><c>H </c><c>   1</c></rc>
    <rc><c>H </c><c>   1</c></rc>
    <rc><c>H </c><c>   1</c></rc>
    <rc><c>H </c><c>   1</c></rc>
    <rc><c>H </c><c>   1</c></rc>
    <rc><c>H </c><c>   1</c></rc>
    <rc><c>H </c><c>   1</c></rc>
    <rc><c>H </c><c>   1</c></rc>
    <rc><c>H </c><c>   1</c></rc>
    <rc><c>H </c><c>   1</c></rc>
    <rc><c>H </c><c>   1</c></rc>
    <rc><c>H </c><c>   1</c></rc>
    <rc><c>H </c><c>   1</c></rc>
    <rc><c>H </c><c>   1</c></rc>
    <rc><c>H </c><c>   1</c></rc>
    <rc><c>H </c><c>   1</c></rc>
    <rc><c>H </c><c>   1</c></rc>
    <rc><c>H </c><c>   1</c></rc>
    <rc><c>H </c><c>   1</c></rc>
    <rc><c>H </c><c>   1</c></rc>
    <rc><c>H </c><c>   1</c></rc>
    <rc><c>H </c><c>   1</c></rc>
    <rc><c>H </c><c>   1</c></rc>
    <rc><c>H </c><c>   1</c></rc>
    <rc><c>H </c><c>   1</c></rc>
    <rc><c>H </c><c>   1</c></rc>
    <rc><c>H </c><c>   1</c></rc>
    <rc><c>H </c><c>   1</c></rc>
    <rc><c>H </c><c>   1</c></rc>
    <rc><c>H </c><c>   1</c></rc>
    <rc><c>H </c><c>   1</c></rc>
    <rc><c>H </c><c>   1</c></rc>
    <rc><c>H </c><c>   1</c></rc>
    <rc><c>H </c><c>   1</c></rc>
    <rc><c>H </c><c>   1</c></rc>
    <rc><c>H </c><c>   1</c></rc>
    <rc><c>H </c><c>   1</c></rc>
    <rc><c>H </c><c>   1</c></rc>
    <rc><c>H </c><c>   1</c></rc>
    <rc><c>H </c><c>   1</c></rc>
    <rc><c>H </c><c>   1</c></rc>
    <rc><c>H </c><c>   1</c></rc>
    <rc><c>H </c><c>   1</c></rc>
    <rc><c>H </c><c>   1</c></rc>
    <rc><c>H </c><c>   1</c></rc>
    <rc><c>H </c><c>   1</c></rc>
    <rc><c>H </c><c>   1</c></rc>
    <rc><c>H </c><c>   1</c></rc>
    <rc><c>H </c><c>   1</c></rc>
    <rc><c>H </c><c>   1</c></rc>
    <rc><c>H </c><c>   1</c></rc>
    <rc><c>H </c><c>   1</c></rc>
    <rc><c>H </c><c>   1</c></rc>
    <rc><c>H </c><c>   1</c></rc>
    <rc><c>H </c><c>   1</c></rc>
    <rc><c>H </c><c>   1</c></rc>
    <rc><c>H </c><c>   1</c></rc>
    <rc><c>H </c><c>   1</c></rc>
    <rc><c>H </c><c>   1</c></rc>
    <rc><c>H </c><c>   1</c></rc>
    <rc><c>H </c><c>   1</c></rc>
    <rc><c>H </c><c>   1</c></rc>
    <rc><c>H </c><c>   1</c></rc>
    <rc><c>H </c><c>   1</c></rc>
    <rc><c>H </c><c>   1</c></rc>
    <rc><c>H </c><c>   1</c></rc>
    <rc><c>H </c><c>   1</c></rc>
    <rc><c>H </c><c>   1</c></rc>
    <rc><c>H </c><c>   1</c></rc>
    <rc><c>H </c><c>   1</c></rc>
    <rc><c>H </c><c>   1</c></rc>
    <rc><c>H </c><c>   1</c></rc>
    <rc><c>H </c><c>   1</c></rc>
    <rc><c>H </c><c>   1</c></rc>
    <rc><c>H </c><c>   1</c></rc>
    <rc><c>H </c><c>   1</c></rc>
    <rc><c>H </c><c>   1</c></rc>
    <rc><c>H </c><c>   1</c></rc>
    <rc><c>H </c><c>   1</c></rc>
    <rc><c>H </c><c>   1</c></rc>
    <rc><c>H </c><c>   1</c></rc>
    <rc><c>H </c><c>   1</c></rc>
    <rc><c>H </c><c>   1</c></rc>
    <rc><c>H </c><c>   1</c></rc>
    <rc><c>H </c><c>   1</c></rc>
    <rc><c>H </c><c>   1</c></rc>
    <rc><c>H </c><c>   1</c></rc>
    <rc><c>H </c><c>   1</c></rc>
    <rc><c>H </c><c>   1</c></rc>
    <rc><c>H </c><c>   1</c></rc>
    <rc><c>H </c><c>   1</c></rc>
    <rc><c>H </c><c>   1</c></rc>
    <rc><c>H </c><c>   1</c></rc>
    <rc><c>H </c><c>   1</c></rc>
    <rc><c>H </c><c>   1</c></rc>
    <rc><c>H </c><c>   1</c></rc>
    <rc><c>H </c><c>   1</c></rc>
    <rc><c>H </c><c>   1</c></rc>
    <rc><c>H </c><c>   1</c></rc>
    <rc><c>H </c><c>   1</c></rc>
    <rc><c>H </c><c>   1</c></rc>
    <rc><c>H </c><c>   1</c></rc>
    <rc><c>H </c><c>   1</c></rc>
    <rc><c>H </c><c>   1</c></rc>
    <rc><c>C </c><c>   2</c></rc>
    <rc><c>C </c><c>   2</c></rc>
    <rc><c>C </c><c>   2</c></rc>
    <rc><c>C </c><c>   2</c></rc>
    <rc><c>C </c><c>   2</c></rc>
    <rc><c>C </c><c>   2</c></rc>
    <rc><c>C </c><c>   2</c></rc>
    <rc><c>C </c><c>   2</c></rc>
    <rc><c>C </c><c>   2</c></rc>
    <rc><c>C </c><c>   2</c></rc>
    <rc><c>C </c><c>   2</c></rc>
    <rc><c>C </c><c>   2</c></rc>
    <rc><c>C </c><c>   2</c></rc>
    <rc><c>C </c><c>   2</c></rc>
    <rc><c>C </c><c>   2</c></rc>
    <rc><c>C </c><c>   2</c></rc>
    <rc><c>C </c><c>   2</c></rc>
    <rc><c>C </c><c>   2</c></rc>
    <rc><c>C </c><c>   2</c></rc>
    <rc><c>C </c><c>   2</c></rc>
    <rc><c>C </c><c>   2</c></rc>
    <rc><c>C </c><c>   2</c></rc>
    <rc><c>C </c><c>   2</c></rc>
    <rc><c>C </c><c>   2</c></rc>
    <rc><c>C </c><c>   2</c></rc>
    <rc><c>C </c><c>   2</c></rc>
    <rc><c>C </c><c>   2</c></rc>
    <rc><c>C </c><c>   2</c></rc>
    <rc><c>C </c><c>   2</c></rc>
    <rc><c>C </c><c>   2</c></rc>
    <rc><c>C </c><c>   2</c></rc>
    <rc><c>C </c><c>   2</c></rc>
    <rc><c>C </c><c>   2</c></rc>
    <rc><c>C </c><c>   2</c></rc>
    <rc><c>C </c><c>   2</c></rc>
    <rc><c>C </c><c>   2</c></rc>
    <rc><c>C </c><c>   2</c></rc>
    <rc><c>C </c><c>   2</c></rc>
    <rc><c>C </c><c>   2</c></rc>
    <rc><c>N </c><c>   3</c></rc>
    <rc><c>N </c><c>   3</c></rc>
    <rc><c>N </c><c>   3</c></rc>
    <rc><c>N </c><c>   3</c></rc>
    <rc><c>N </c><c>   3</c></rc>
    <rc><c>N </c><c>   3</c></rc>
    <rc><c>N </c><c>   3</c></rc>
    <rc><c>N </c><c>   3</c></rc>
    <rc><c>N </c><c>   3</c></rc>
    <rc><c>N </c><c>   3</c></rc>
    <rc><c>N </c><c>   3</c></rc>
    <rc><c>N </c><c>   3</c></rc>
    <rc><c>N </c><c>   3</c></rc>
    <rc><c>N </c><c>   3</c></rc>
    <rc><c>N </c><c>   3</c></rc>
    <rc><c>N </c><c>   3</c></rc>
    <rc><c>N </c><c>   3</c></rc>
    <rc><c>N </c><c>   3</c></rc>
    <rc><c>N </c><c>   3</c></rc>
    <rc><c>N </c><c>   3</c></rc>
    <rc><c>N </c><c>   3</c></rc>
    <rc><c>N </c><c>   3</c></rc>
    <rc><c>N </c><c>   3</c></rc>
    <rc><c>N </c><c>   3</c></rc>
    <rc><c>N </c><c>   3</c></rc>
    <rc><c>N </c><c>   3</c></rc>
    <rc><c>N </c><c>   3</c></rc>
    <rc><c>N </c><c>   3</c></rc>
    <rc><c>N </c><c>   3</c></rc>
    <rc><c>N </c><c>   3</c></rc>
    <rc><c>N </c><c>   3</c></rc>
    <rc><c>N </c><c>   3</c></rc>
    <rc><c>N </c><c>   3</c></rc>
    <rc><c>N </c><c>   3</c></rc>
    <rc><c>N </c><c>   3</c></rc>
    <rc><c>N </c><c>   3</c></rc>
    <rc><c>N </c><c>   3</c></rc>
    <rc><c>N </c><c>   3</c></rc>
    <rc><c>N </c><c>   3</c></rc>
    <rc><c>N </c><c>   3</c></rc>
    <rc><c>N </c><c>   3</c></rc>
    <rc><c>N </c><c>   3</c></rc>
    <rc><c>N </c><c>   3</c></rc>
    <rc><c>N </c><c>   3</c></rc>
    <rc><c>N </c><c>   3</c></rc>
    <rc><c>N </c><c>   3</c></rc>
    <rc><c>N </c><c>   3</c></rc>
    <rc><c>I </c><c>   4</c></rc>
    <rc><c>I </c><c>   4</c></rc>
    <rc><c>I </c><c>   4</c></rc>
    <rc><c>I </c><c>   4</c></rc>
    <rc><c>I </c><c>   4</c></rc>
    <rc><c>I </c><c>   4</c></rc>
    <rc><c>I </c><c>   4</c></rc>
    <rc><c>I </c><c>   4</c></rc>
    <rc><c>I </c><c>   4</c></rc>
    <rc><c>I </c><c>   4</c></rc>
    <rc><c>I </c><c>   4</c></rc>
    <rc><c>I </c><c>   4</c></rc>
    <rc><c>I </c><c>   4</c></rc>
    <rc><c>I </c><c>   4</c></rc>
    <rc><c>I </c><c>   4</c></rc>
    <rc><c>I </c><c>   4</c></rc>
    <rc><c>I </c><c>   4</c></rc>
    <rc><c>I </c><c>   4</c></rc>
    <rc><c>I </c><c>   4</c></rc>
    <rc><c>I </c><c>   4</c></rc>
    <rc><c>I </c><c>   4</c></rc>
    <rc><c>I </c><c>   4</c></rc>
    <rc><c>I </c><c>   4</c></rc>
    <rc><c>I </c><c>   4</c></rc>
    <rc><c>I </c><c>   4</c></rc>
    <rc><c>I </c><c>   4</c></rc>
    <rc><c>I </c><c>   4</c></rc>
    <rc><c>I </c><c>   4</c></rc>
    <rc><c>I </c><c>   4</c></rc>
    <rc><c>I </c><c>   4</c></rc>
    <rc><c>I </c><c>   4</c></rc>
    <rc><c>I </c><c>   4</c></rc>
    <rc><c>I </c><c>   4</c></rc>
    <rc><c>I </c><c>   4</c></rc>
    <rc><c>I </c><c>   4</c></rc>
    <rc><c>I </c><c>   4</c></rc>
    <rc><c>I </c><c>   4</c></rc>
    <rc><c>I </c><c>   4</c></rc>
    <rc><c>I </c><c>   4</c></rc>
    <rc><c>I </c><c>   4</c></rc>
    <rc><c>I </c><c>   4</c></rc>
    <rc><c>I </c><c>   4</c></rc>
    <rc><c>I </c><c>   4</c></rc>
    <rc><c>I </c><c>   4</c></rc>
    <rc><c>I </c><c>   4</c></rc>
    <rc><c>I </c><c>   4</c></rc>
    <rc><c>I </c><c>   4</c></rc>
    <rc><c>I </c><c>   4</c></rc>
    <rc><c>I </c><c>   4</c></rc>
    <rc><c>I </c><c>   4</c></rc>
    <rc><c>I </c><c>   4</c></rc>
    <rc><c>I </c><c>   4</c></rc>
    <rc><c>I </c><c>   4</c></rc>
    <rc><c>I </c><c>   4</c></rc>
    <rc><c>I </c><c>   4</c></rc>
    <rc><c>I </c><c>   4</c></rc>
    <rc><c>I </c><c>   4</c></rc>
    <rc><c>I </c><c>   4</c></rc>
    <rc><c>I </c><c>   4</c></rc>
    <rc><c>I </c><c>   4</c></rc>
    <rc><c>I </c><c>   4</c></rc>
    <rc><c>I </c><c>   4</c></rc>
    <rc><c>I </c><c>   4</c></rc>
    <rc><c>I </c><c>   4</c></rc>
    <rc><c>I </c><c>   4</c></rc>
    <rc><c>I </c><c>   4</c></rc>
    <rc><c>I </c><c>   4</c></rc>
    <rc><c>I </c><c>   4</c></rc>
    <rc><c>I </c><c>   4</c></rc>
    <rc><c>I </c><c>   4</c></rc>
    <rc><c>I </c><c>   4</c></rc>
    <rc><c>I </c><c>   4</c></rc>
    <rc><c>Pb</c><c>   5</c></rc>
    <rc><c>Pb</c><c>   5</c></rc>
    <rc><c>Pb</c><c>   5</c></rc>
    <rc><c>Pb</c><c>   5</c></rc>
    <rc><c>Pb</c><c>   5</c></rc>
    <rc><c>Pb</c><c>   5</c></rc>
    <rc><c>Pb</c><c>   5</c></rc>
    <rc><c>Pb</c><c>   5</c></rc>
    <rc><c>Pb</c><c>   5</c></rc>
    <rc><c>Pb</c><c>   5</c></rc>
    <rc><c>Pb</c><c>   5</c></rc>
    <rc><c>Pb</c><c>   5</c></rc>
    <rc><c>Pb</c><c>   5</c></rc>
    <rc><c>Pb</c><c>   5</c></rc>
    <rc><c>Pb</c><c>   5</c></rc>
    <rc><c>Pb</c><c>   5</c></rc>
    <rc><c>Pb</c><c>   5</c></rc>
    <rc><c>Pb</c><c>   5</c></rc>
    <rc><c>Pb</c><c>   5</c></rc>
    <rc><c>Pb</c><c>   5</c></rc>
    <rc><c>Pb</c><c>   5</c></rc>
    <rc><c>Pb</c><c>   5</c></rc>
    <rc><c>Pb</c><c>   5</c></rc>
    <rc><c>Pb</c><c>   5</c></rc>
   </set>
  </array>
  <array name="atomtypes" >
   <dimension dim="1">type</dimension>
   <field type="int">atomspertype</field>
   <field type="string">element</field>
   <field>mass</field>
   <field>valence</field>
   <field type="string">pseudopotential</field>
   <set>
    <rc><c> 143</c><c>H </c><c>      1.00000000</c><c>      1.00000000</c><c>  PAW_PBE H 15Jun2001                   </c></rc>
    <rc><c>  39</c><c>C </c><c>     12.01100000</c><c>      4.00000000</c><c>  PAW_PBE C 08Apr2002                   </c></rc>
    <rc><c>  47</c><c>N </c><c>     14.00100000</c><c>      5.00000000</c><c>  PAW_PBE N 08Apr2002                   </c></rc>
    <rc><c>  72</c><c>I </c><c>    126.90400000</c><c>      7.00000000</c><c>  PAW_PBE I 08Apr2002                   </c></rc>
    <rc><c>  24</c><c>Pb</c><c>    207.20000000</c><c>      4.00000000</c><c>  PAW_PBE Pb 08Apr2002                  </c></rc>
   </set>
  </array>
 </atominfo>
 <structure name="initialpos" >
  <crystal>
   <varray name="basis" >
    <v>      18.06080055       0.00000000       0.00000000 </v>
    <v>      -0.00491865      18.06279945       0.00000000 </v>
    <v>       0.00000000       0.00000000      62.48749924 </v>
   </varray>
   <i name="volume">  20385.21054034 </i>
   <varray name="rec_basis" >
    <v>       0.05536853       0.00001508      -0.00000000 </v>
    <v>       0.00000000       0.05536240       0.00000000 </v>
    <v>       0.00000000      -0.00000000       0.01600320 </v>
   </varray>
  </crystal>
  <varray name="positions" >
   <v>       0.43838578       0.30147649       0.57466664 </v>
   <v>       0.43782930       0.83211080       0.57607152 </v>
   <v>       0.98451402       0.30879476       0.58214103 </v>
   <v>       0.96779603       0.79985748       0.58256293 </v>
   <v>       0.31845594       0.98603414       0.57799744 </v>
   <v>       0.31773787       0.55891257       0.57880827 </v>
   <v>       0.78889266       0.06795197       0.58247319 </v>
   <v>       0.04928799       0.13648746       0.56097292 </v>
   <v>       0.05504783       0.64149462       0.55849360 </v>
   <v>       0.58780466       0.19281272       0.55374363 </v>
   <v>       0.54239411       0.66850783       0.56264336 </v>
   <v>       0.34557824       0.04224406       0.55724854 </v>
   <v>       0.29057106       0.61408797       0.55784528 </v>
   <v>       0.85568802       0.05588067       0.56336280 </v>
   <v>       0.02595135       0.17600134       0.58472920 </v>
   <v>       0.02066066       0.67321907       0.58242234 </v>
   <v>       0.56498951       0.25948653       0.57251649 </v>
   <v>       0.47925212       0.70228885       0.58220074 </v>
   <v>       0.25631220       0.43329644       0.58088694 </v>
   <v>       0.18430686       0.94543661       0.57810098 </v>
   <v>       0.67988129       0.98310861       0.58127715 </v>
   <v>       0.37277873       0.26049996       0.55750305 </v>
   <v>       0.47820918       0.88040623       0.55497880 </v>
   <v>       0.99814504       0.35413663       0.55793899 </v>
   <v>       0.97336011       0.85087537       0.55909406 </v>
   <v>       0.18914829       0.41542399       0.56166703 </v>
   <v>       0.12920761       0.98279267       0.55821327 </v>
   <v>       0.68305902       0.91489736       0.56154255 </v>
   <v>       0.46300134       0.18842265       0.54113973 </v>
   <v>       0.54751455       0.77758049       0.54394101 </v>
   <v>       0.03582815       0.24233702       0.54118442 </v>
   <v>       0.02761839       0.75235993       0.54049183 </v>
   <v>       0.20734269       0.52779509       0.54452841 </v>
   <v>       0.22591643       0.04835712       0.54283361 </v>
   <v>       0.79458956       0.95423032       0.54809711 </v>
   <v>       0.46200146       0.31334251       0.67448439 </v>
   <v>       0.43306720       0.81791318       0.67130779 </v>
   <v>       0.97123789       0.27823706       0.68185684 </v>
   <v>       0.92786331       0.78215467       0.67444508 </v>
   <v>       0.29750277       0.05443963       0.67488663 </v>
   <v>       0.30582589       0.54386127       0.67508760 </v>
   <v>       0.79105512       0.05900828       0.67529626 </v>
   <v>       0.80238098       0.58492637       0.66980053 </v>
   <v>       0.08346384       0.16749160       0.64500413 </v>
   <v>       0.10031613       0.69668005       0.65604217 </v>
   <v>       0.57191369       0.16193921       0.65200462 </v>
   <v>       0.57509316       0.67868591       0.65790961 </v>
   <v>       0.17659716       0.41333674       0.64922189 </v>
   <v>       0.17726552       0.91474167       0.64998492 </v>
   <v>       0.69651184       0.41689845       0.66007044 </v>
   <v>       0.67362515       0.92172401       0.64844305 </v>
   <v>       0.06854451       0.17876538       0.67220720 </v>
   <v>       0.04214946       0.69554416       0.67791873 </v>
   <v>       0.57037438       0.22191901       0.67365995 </v>
   <v>       0.53149551       0.71969731       0.68012254 </v>
   <v>       0.21063228       0.43577994       0.67430589 </v>
   <v>       0.20041642       0.94756023       0.67496734 </v>
   <v>       0.70782493       0.48548285       0.67938448 </v>
   <v>       0.68908795       0.95825651       0.67364231 </v>
   <v>       0.40003446       0.30467514       0.65345895 </v>
   <v>       0.42063426       0.83196930       0.64408256 </v>
   <v>       0.93174887       0.32283570       0.65970733 </v>
   <v>       0.92357707       0.83141477       0.65036317 </v>
   <v>       0.32786817       0.08092693       0.64965991 </v>
   <v>       0.32348600       0.58337291       0.65033784 </v>
   <v>       0.83386541       0.07812189       0.65103964 </v>
   <v>       0.83902879       0.57831040       0.64425832 </v>
   <v>       0.99753814       0.25876790       0.63521812 </v>
   <v>       0.03171082       0.78357720       0.63726009 </v>
   <v>       0.46504281       0.20814720       0.63764878 </v>
   <v>       0.51016748       0.74512400       0.63389583 </v>
   <v>       0.25453455       0.99456070       0.63206191 </v>
   <v>       0.24394997       0.50357599       0.63217210 </v>
   <v>       0.76482512       0.99427086       0.63234413 </v>
   <v>       0.77694529       0.47030731       0.63640201 </v>
   <v>       0.44874502       0.30128397       0.76888902 </v>
   <v>       0.44874501       0.80128391       0.76888902 </v>
   <v>       0.94874497       0.30128397       0.76888902 </v>
   <v>       0.94874501       0.80128391       0.76888902 </v>
   <v>       0.30127600       0.05129450       0.76887296 </v>
   <v>       0.30127601       0.55129450       0.76887296 </v>
   <v>       0.80127594       0.05129450       0.76887296 </v>
   <v>       0.80127598       0.55129450       0.76887296 </v>
   <v>       0.07877100       0.17118050       0.74344197 </v>
   <v>       0.07877101       0.67118045       0.74344197 </v>
   <v>       0.57877100       0.17118050       0.74344197 </v>
   <v>       0.57877099       0.67118045       0.74344197 </v>
   <v>       0.17119950       0.42117448       0.74342103 </v>
   <v>       0.17119950       0.92117451       0.74342103 </v>
   <v>       0.67119951       0.42117448       0.74342103 </v>
   <v>       0.67119950       0.92117451       0.74342103 </v>
   <v>       0.05125600       0.19871499       0.76888902 </v>
   <v>       0.05125600       0.69871493       0.76888902 </v>
   <v>       0.55125603       0.19871499       0.76888902 </v>
   <v>       0.55125602       0.69871493       0.76888902 </v>
   <v>       0.19872349       0.44870397       0.76887205 </v>
   <v>       0.19872349       0.94870397       0.76887205 </v>
   <v>       0.69872352       0.44870397       0.76887205 </v>
   <v>       0.69872351       0.94870397       0.76887205 </v>
   <v>       0.42123152       0.32881747       0.74344197 </v>
   <v>       0.42123151       0.82881744       0.74344197 </v>
   <v>       0.92123147       0.32881747       0.74344197 </v>
   <v>       0.92123151       0.82881744       0.74344197 </v>
   <v>       0.32880050       0.07882500       0.74342103 </v>
   <v>       0.32880049       0.57882496       0.74342103 </v>
   <v>       0.82880048       0.07882500       0.74342103 </v>
   <v>       0.82880052       0.57882496       0.74342103 </v>
   <v>       0.00000350       0.25000148       0.72582199 </v>
   <v>       0.00000350       0.75000145       0.72582199 </v>
   <v>       0.50000351       0.25000148       0.72582199 </v>
   <v>       0.50000350       0.75000145       0.72582199 </v>
   <v>       0.25000050       0.00000000       0.72580398 </v>
   <v>       0.25000052       0.50000000       0.72580398 </v>
   <v>       0.75000050       0.00000000       0.72580398 </v>
   <v>       0.75000049       0.50000000       0.72580398 </v>
   <v>       0.77477780       0.55714375       0.52315163 </v>
   <v>       0.72505424       0.47496101       0.52739589 </v>
   <v>       0.87025368       0.50146493       0.54461161 </v>
   <v>       0.85215285       0.48001132       0.57132948 </v>
   <v>       0.74074256       0.63634664       0.56189791 </v>
   <v>       0.80167343       0.59391766       0.58065972 </v>
   <v>       0.66206608       0.54194656       0.57113773 </v>
   <v>       0.67567881       0.45209205       0.56086419 </v>
   <v>       0.61543458       0.54776772       0.53878061 </v>
   <v>       0.66754012       0.62979138       0.53998960 </v>
   <v>       0.61126038       0.64848525       0.50782267 </v>
   <v>       0.68982033       0.60389484       0.49801334 </v>
   <v>       0.82891503       0.38660751       0.53161365 </v>
   <v>       0.75946537       0.37474014       0.55123995 </v>
   <v>       0.85210052       0.36114996       0.55789357 </v>
   <v>       0.86183841       0.69122356       0.55868517 </v>
   <v>       0.84859874       0.63625593       0.53543919 </v>
   <v>       0.90738408       0.60423106       0.55662378 </v>
   <v>       0.75871718       0.51486540       0.60047356 </v>
   <v>       0.76269268       0.42132266       0.59113569 </v>
   <v>       0.67766383       0.45801173       0.60091896 </v>
   <v>       0.53863489       0.53635592       0.50661662 </v>
   <v>       0.57471522       0.55508252       0.48092844 </v>
   <v>       0.70352868       0.48820093       0.47255948 </v>
   <v>       0.55360910       0.41932704       0.52199283 </v>
   <v>       0.76999395       0.36865463       0.47484626 </v>
   <v>       0.61993082       0.29828881       0.52472342 </v>
   <v>       0.72808021       0.27314609       0.50126185 </v>
   <v>       0.02118200       0.24379490       0.55812341 </v>
   <v>       0.01341729       0.74537051       0.55739109 </v>
   <v>       0.47981819       0.22519878       0.55406730 </v>
   <v>       0.51102246       0.77316629       0.55786347 </v>
   <v>       0.23880521       0.51402513       0.55860208 </v>
   <v>       0.23611177       0.01425247       0.55664936 </v>
   <v>       0.77060421       0.98419378       0.56135251 </v>
   <v>       0.00691066       0.24568717       0.65240417 </v>
   <v>       0.01206812       0.76417748       0.65306318 </v>
   <v>       0.48651269       0.23261424       0.65240106 </v>
   <v>       0.49813988       0.75536316       0.65093030 </v>
   <v>       0.25085934       0.49892546       0.64958586 </v>
   <v>       0.25207169       0.99726250       0.64958018 </v>
   <v>       0.76690291       0.49653605       0.65185322 </v>
   <v>       0.75343573       0.99938211       0.64949978 </v>
   <v>       0.49998898       0.24999498       0.74327702 </v>
   <v>       0.49998903       0.74999496       0.74327702 </v>
   <v>       0.99998898       0.24999498       0.74327702 </v>
   <v>       0.99998903       0.74999496       0.74327702 </v>
   <v>       0.25000050       0.00000100       0.74325596 </v>
   <v>       0.25000052       0.50000100       0.74325596 </v>
   <v>       0.75000050       0.00000100       0.74325596 </v>
   <v>       0.75000049       0.50000100       0.74325596 </v>
   <v>       0.62533430       0.46307735       0.49721929 </v>
   <v>       0.68600471       0.44689216       0.48390495 </v>
   <v>       0.60158081       0.40790256       0.51167836 </v>
   <v>       0.72247359       0.37807944       0.48518029 </v>
   <v>       0.63848672       0.33919171       0.51302046 </v>
   <v>       0.69917184       0.32526859       0.49981194 </v>
   <v>       0.73088345       0.53221674       0.53302134 </v>
   <v>       0.82986808       0.47521686       0.55510816 </v>
   <v>       0.78878258       0.60082096       0.56364215 </v>
   <v>       0.70351223       0.49701862       0.56961362 </v>
   <v>       0.66184118       0.57722393       0.53145926 </v>
   <v>       0.64079952       0.59690115       0.50822864 </v>
   <v>       0.81595380       0.39661186       0.54848544 </v>
   <v>       0.85613215       0.63403864       0.55277621 </v>
   <v>       0.72797089       0.47163174       0.59149709 </v>
   <v>       0.59023092       0.53884195       0.49740555 </v>
   <v>       0.03219803       0.18306813       0.56881702 </v>
   <v>       0.03178042       0.68314694       0.56679781 </v>
   <v>       0.54858423       0.22471679       0.56052917 </v>
   <v>       0.51206983       0.71097255       0.56880951 </v>
   <v>       0.42733955       0.26833960       0.56215296 </v>
   <v>       0.47022242       0.83150717       0.56313430 </v>
   <v>       0.99466929       0.30524071       0.56613185 </v>
   <v>       0.97985463       0.80085029       0.56661754 </v>
   <v>       0.22804735       0.44972613       0.56738814 </v>
   <v>       0.18049431       0.97737452       0.56454639 </v>
   <v>       0.70533938       0.96185628       0.56811027 </v>
   <v>       0.30320195       0.01533193       0.56468960 </v>
   <v>       0.28483305       0.56460575       0.56567082 </v>
   <v>       0.80911414       0.03669760       0.57016897 </v>
   <v>       0.05501444       0.19497903       0.65674696 </v>
   <v>       0.05234739       0.71651129       0.66304680 </v>
   <v>       0.54664313       0.20462020       0.65998815 </v>
   <v>       0.53737236       0.71550444       0.66413003 </v>
   <v>       0.21071475       0.44663488       0.65865316 </v>
   <v>       0.20834002       0.95200771       0.65925942 </v>
   <v>       0.72004473       0.46397871       0.66477597 </v>
   <v>       0.70331466       0.95846265       0.65823902 </v>
   <v>       0.44777063       0.28770329       0.66083347 </v>
   <v>       0.44783426       0.80460726       0.65599559 </v>
   <v>       0.96730451       0.28455868       0.66588135 </v>
   <v>       0.94978526       0.79344134       0.65974420 </v>
   <v>       0.29531491       0.04737204       0.65903117 </v>
   <v>       0.29488292       0.54369364       0.65945081 </v>
   <v>       0.79526392       0.04886984       0.65965153 </v>
   <v>       0.80484801       0.55815973       0.65536149 </v>
   <v>       0.04586250       0.20411950       0.75272599 </v>
   <v>       0.04586250       0.70411946       0.75272599 </v>
   <v>       0.54586251       0.20411950       0.75272599 </v>
   <v>       0.54586250       0.70411946       0.75272599 </v>
   <v>       0.20411900       0.45410100       0.75270499 </v>
   <v>       0.20411899       0.95410095       0.75270499 </v>
   <v>       0.70411898       0.45410100       0.75270499 </v>
   <v>       0.70411896       0.95410095       0.75270499 </v>
   <v>       0.45414002       0.29588849       0.75272697 </v>
   <v>       0.45414001       0.79588852       0.75272697 </v>
   <v>       0.95414002       0.29588849       0.75272697 </v>
[...]
   <v>       0.58780466       0.19281272       0.55374363 </v>
   <v>       0.54239411       0.66850783       0.56264336 </v>
   <v>       0.34557824       0.04224406       0.55724854 </v>
   <v>       0.29057106       0.61408797       0.55784528 </v>
   <v>       0.85568802       0.05588067       0.56336280 </v>
   <v>       0.02595135       0.17600134       0.58472920 </v>
   <v>       0.02066066       0.67321907       0.58242234 </v>
   <v>       0.56498951       0.25948653       0.57251649 </v>
   <v>       0.47925212       0.70228885       0.58220074 </v>
   <v>       0.25631220       0.43329644       0.58088694 </v>
   <v>       0.18430686       0.94543661       0.57810098 </v>
   <v>       0.67988129       0.98310861       0.58127715 </v>
   <v>       0.37277873       0.26049996       0.55750305 </v>
   <v>       0.47820918       0.88040623       0.55497880 </v>
   <v>       0.99814504       0.35413663       0.55793899 </v>
   <v>       0.97336011       0.85087537       0.55909406 </v>
   <v>       0.18914829       0.41542399       0.56166703 </v>
   <v>       0.12920761       0.98279267       0.55821327 </v>
   <v>       0.68305902       0.91489736       0.56154255 </v>
   <v>       0.46300134       0.18842265       0.54113973 </v>
   <v>       0.54751455       0.77758049       0.54394101 </v>
   <v>       0.03582815       0.24233702       0.54118442 </v>
   <v>       0.02761839       0.75235993       0.54049183 </v>
   <v>       0.20734269       0.52779509       0.54452841 </v>
   <v>       0.22591643       0.04835712       0.54283361 </v>
   <v>       0.79458956       0.95423032       0.54809711 </v>
   <v>       0.46200146       0.31334251       0.67448439 </v>
   <v>       0.43306720       0.81791318       0.67130779 </v>
   <v>       0.97123789       0.27823706       0.68185684 </v>
   <v>       0.92786331       0.78215467       0.67444508 </v>
   <v>       0.29750277       0.05443963       0.67488663 </v>
   <v>       0.30582589       0.54386127       0.67508760 </v>
   <v>       0.79105512       0.05900828       0.67529626 </v>
   <v>       0.80238098       0.58492637       0.66980053 </v>
   <v>       0.08346384       0.16749160       0.64500413 </v>
   <v>       0.10031613       0.69668005       0.65604217 </v>
   <v>       0.57191369       0.16193921       0.65200462 </v>
   <v>       0.57509316       0.67868591       0.65790961 </v>
   <v>       0.17659716       0.41333674       0.64922189 </v>
   <v>       0.17726552       0.91474167       0.64998492 </v>
   <v>       0.69651184       0.41689845       0.66007044 </v>
   <v>       0.67362515       0.92172401       0.64844305 </v>
   <v>       0.06854451       0.17876538       0.67220720 </v>
   <v>       0.04214946       0.69554416       0.67791873 </v>
   <v>       0.57037438       0.22191901       0.67365995 </v>
   <v>       0.53149551       0.71969731       0.68012254 </v>
   <v>       0.21063228       0.43577994       0.67430589 </v>
   <v>       0.20041642       0.94756023       0.67496734 </v>
   <v>       0.70782493       0.48548285       0.67938448 </v>
   <v>       0.68908795       0.95825651       0.67364231 </v>
   <v>       0.40003446       0.30467514       0.65345895 </v>
   <v>       0.42063426       0.83196930       0.64408256 </v>
   <v>       0.93174887       0.32283570       0.65970733 </v>
   <v>       0.92357707       0.83141477       0.65036317 </v>
   <v>       0.32786817       0.08092693       0.64965991 </v>
   <v>       0.32348600       0.58337291       0.65033784 </v>
   <v>       0.83386541       0.07812189       0.65103964 </v>
   <v>       0.83902879       0.57831040       0.64425832 </v>
   <v>       0.99753814       0.25876790       0.63521812 </v>
   <v>       0.03171082       0.78357720       0.63726009 </v>
   <v>       0.46504281       0.20814720       0.63764878 </v>
   <v>       0.51016748       0.74512400       0.63389583 </v>
   <v>       0.25453455       0.99456070       0.63206191 </v>
   <v>       0.24394997       0.50357599       0.63217210 </v>
   <v>       0.76482512       0.99427086       0.63234413 </v>
   <v>       0.77694529       0.47030731       0.63640201 </v>
   <v>       0.44874502       0.30128397       0.76888902 </v>
   <v>       0.44874501       0.80128391       0.76888902 </v>
   <v>       0.94874497       0.30128397       0.76888902 </v>
   <v>       0.94874501       0.80128391       0.76888902 </v>
   <v>       0.30127600       0.05129450       0.76887296 </v>
   <v>       0.30127601       0.55129450       0.76887296 </v>
   <v>       0.80127594       0.05129450       0.76887296 </v>
   <v>       0.80127598       0.55129450       0.76887296 </v>
   <v>       0.07877100       0.17118050       0.74344197 </v>
   <v>       0.07877101       0.67118045       0.74344197 </v>
   <v>       0.57877100       0.17118050       0.74344197 </v>
   <v>       0.57877099       0.67118045       0.74344197 </v>
   <v>       0.17119950       0.42117448       0.74342103 </v>
   <v>       0.17119950       0.92117451       0.74342103 </v>
   <v>       0.67119951       0.42117448       0.74342103 </v>
   <v>       0.67119950       0.92117451       0.74342103 </v>
   <v>       0.05125600       0.19871499       0.76888902 </v>
   <v>       0.05125600       0.69871493       0.76888902 </v>
   <v>       0.55125603       0.19871499       0.76888902 </v>
   <v>       0.55125602       0.69871493       0.76888902 </v>
   <v>       0.19872349       0.44870397       0.76887205 </v>
   <v>       0.19872349       0.94870397       0.76887205 </v>
   <v>       0.69872352       0.44870397       0.76887205 </v>
   <v>       0.69872351       0.94870397       0.76887205 </v>
   <v>       0.42123152       0.32881747       0.74344197 </v>
   <v>       0.42123151       0.82881744       0.74344197 </v>
   <v>       0.92123147       0.32881747       0.74344197 </v>
   <v>       0.92123151       0.82881744       0.74344197 </v>
   <v>       0.32880050       0.07882500       0.74342103 </v>
   <v>       0.32880049       0.57882496       0.74342103 </v>
   <v>       0.82880048       0.07882500       0.74342103 </v>
   <v>       0.82880052       0.57882496       0.74342103 </v>
   <v>       0.00000350       0.25000148       0.72582199 </v>
   <v>       0.00000350       0.75000145       0.72582199 </v>
   <v>       0.50000351       0.25000148       0.72582199 </v>
   <v>       0.50000350       0.75000145       0.72582199 </v>
   <v>       0.25000050       0.00000000       0.72580398 </v>
   <v>       0.25000052       0.50000000       0.72580398 </v>
   <v>       0.75000050       0.00000000       0.72580398 </v>
   <v>       0.75000049       0.50000000       0.72580398 </v>
   <v>       0.77477780       0.55714375       0.52315163 </v>
   <v>       0.72505424       0.47496101       0.52739589 </v>
   <v>       0.87025368       0.50146493       0.54461161 </v>
   <v>       0.85215285       0.48001132       0.57132948 </v>
   <v>       0.74074256       0.63634664       0.56189791 </v>
   <v>       0.80167343       0.59391766       0.58065972 </v>
   <v>       0.66206608       0.54194656       0.57113773 </v>
   <v>       0.67567881       0.45209205       0.56086419 </v>
   <v>       0.61543458       0.54776772       0.53878061 </v>
   <v>       0.66754012       0.62979138       0.53998960 </v>
   <v>       0.61126038       0.64848525       0.50782267 </v>
   <v>       0.68982033       0.60389484       0.49801334 </v>
   <v>       0.82891503       0.38660751       0.53161365 </v>
   <v>       0.75946537       0.37474014       0.55123995 </v>
   <v>       0.85210052       0.36114996       0.55789357 </v>
   <v>       0.86183841       0.69122356       0.55868517 </v>
   <v>       0.84859874       0.63625593       0.53543919 </v>
   <v>       0.90738408       0.60423106       0.55662378 </v>
   <v>       0.75871718       0.51486540       0.60047356 </v>
   <v>       0.76269268       0.42132266       0.59113569 </v>
   <v>       0.67766383       0.45801173       0.60091896 </v>
   <v>       0.53863489       0.53635592       0.50661662 </v>
   <v>       0.57471522       0.55508252       0.48092844 </v>
   <v>       0.70352868       0.48820093       0.47255948 </v>
   <v>       0.55360910       0.41932704       0.52199283 </v>
   <v>       0.76999395       0.36865463       0.47484626 </v>
   <v>       0.61993082       0.29828881       0.52472342 </v>
   <v>       0.72808021       0.27314609       0.50126185 </v>
   <v>       0.02118200       0.24379490       0.55812341 </v>
   <v>       0.01341729       0.74537051       0.55739109 </v>
   <v>       0.47981819       0.22519878       0.55406730 </v>
   <v>       0.51102246       0.77316629       0.55786347 </v>
   <v>       0.23880521       0.51402513       0.55860208 </v>
   <v>       0.23611177       0.01425247       0.55664936 </v>
   <v>       0.77060421       0.98419378       0.56135251 </v>
   <v>       0.00691066       0.24568717       0.65240417 </v>
   <v>       0.01206812       0.76417748       0.65306318 </v>
   <v>       0.48651269       0.23261424       0.65240106 </v>
   <v>       0.49813988       0.75536316       0.65093030 </v>
   <v>       0.25085934       0.49892546       0.64958586 </v>
   <v>       0.25207169       0.99726250       0.64958018 </v>
   <v>       0.76690291       0.49653605       0.65185322 </v>
   <v>       0.75343573       0.99938211       0.64949978 </v>
   <v>       0.49998898       0.24999498       0.74327702 </v>
   <v>       0.49998903       0.74999496       0.74327702 </v>
   <v>       0.99998898       0.24999498       0.74327702 </v>
   <v>       0.99998903       0.74999496       0.74327702 </v>
   <v>       0.25000050       0.00000100       0.74325596 </v>
   <v>       0.25000052       0.50000100       0.74325596 </v>
   <v>       0.75000050       0.00000100       0.74325596 </v>
   <v>       0.75000049       0.50000100       0.74325596 </v>
   <v>       0.62533430       0.46307735       0.49721929 </v>
   <v>       0.68600471       0.44689216       0.48390495 </v>
   <v>       0.60158081       0.40790256       0.51167836 </v>
   <v>       0.72247359       0.37807944       0.48518029 </v>
   <v>       0.63848672       0.33919171       0.51302046 </v>
   <v>       0.69917184       0.32526859       0.49981194 </v>
   <v>       0.73088345       0.53221674       0.53302134 </v>
   <v>       0.82986808       0.47521686       0.55510816 </v>
   <v>       0.78878258       0.60082096       0.56364215 </v>
   <v>       0.70351223       0.49701862       0.56961362 </v>
   <v>       0.66184118       0.57722393       0.53145926 </v>
   <v>       0.64079952       0.59690115       0.50822864 </v>
   <v>       0.81595380       0.39661186       0.54848544 </v>
   <v>       0.85613215       0.63403864       0.55277621 </v>
   <v>       0.72797089       0.47163174       0.59149709 </v>
   <v>       0.59023092       0.53884195       0.49740555 </v>
   <v>       0.03219803       0.18306813       0.56881702 </v>
   <v>       0.03178042       0.68314694       0.56679781 </v>
   <v>       0.54858423       0.22471679       0.56052917 </v>
   <v>       0.51206983       0.71097255       0.56880951 </v>
   <v>       0.42733955       0.26833960       0.56215296 </v>
   <v>       0.47022242       0.83150717       0.56313430 </v>
   <v>       0.99466929       0.30524071       0.56613185 </v>
   <v>       0.97985463       0.80085029       0.56661754 </v>
   <v>       0.22804735       0.44972613       0.56738814 </v>
   <v>       0.18049431       0.97737452       0.56454639 </v>
   <v>       0.70533938       0.96185628       0.56811027 </v>
   <v>       0.30320195       0.01533193       0.56468960 </v>
   <v>       0.28483305       0.56460575       0.56567082 </v>
   <v>       0.80911414       0.03669760       0.57016897 </v>
   <v>       0.05501444       0.19497903       0.65674696 </v>
   <v>       0.05234739       0.71651129       0.66304680 </v>
   <v>       0.54664313       0.20462020       0.65998815 </v>
   <v>       0.53737236       0.71550444       0.66413003 </v>
   <v>       0.21071475       0.44663488       0.65865316 </v>
   <v>       0.20834002       0.95200771       0.65925942 </v>
   <v>       0.72004473       0.46397871       0.66477597 </v>
   <v>       0.70331466       0.95846265       0.65823902 </v>
   <v>       0.44777063       0.28770329       0.66083347 </v>
   <v>       0.44783426       0.80460726       0.65599559 </v>
   <v>       0.96730451       0.28455868       0.66588135 </v>
   <v>       0.94978526       0.79344134       0.65974420 </v>
   <v>       0.29531491       0.04737204       0.65903117 </v>
   <v>       0.29488292       0.54369364       0.65945081 </v>
   <v>       0.79526392       0.04886984       0.65965153 </v>
   <v>       0.80484801       0.55815973       0.65536149 </v>
   <v>       0.04586250       0.20411950       0.75272599 </v>
   <v>       0.04586250       0.70411946       0.75272599 </v>
   <v>       0.54586251       0.20411950       0.75272599 </v>
   <v>       0.54586250       0.70411946       0.75272599 </v>
   <v>       0.20411900       0.45410100       0.75270499 </v>
   <v>       0.20411899       0.95410095       0.75270499 </v>
   <v>       0.70411898       0.45410100       0.75270499 </v>
   <v>       0.70411896       0.95410095       0.75270499 </v>
   <v>       0.45414002       0.29588849       0.75272697 </v>
   <v>       0.45414001       0.79588852       0.75272697 </v>
   <v>       0.95414002       0.29588849       0.75272697 </v>
   <v>       0.95414006       0.79588852       0.75272697 </v>
   <v>       0.29588249       0.04590050       0.75270499 </v>
   <v>       0.29588248       0.54590053       0.75270499 </v>
   <v>       0.79588244       0.04590050       0.75270499 </v>
   <v>       0.79588248       0.54590053       0.75270499 </v>
   <v>       0.76304021       0.52556555       0.55541419 </v>
   <v>       0.49809047       0.02269961       0.55171612 </v>
   <v>       0.47045534       0.51180873       0.55762496 </v>
   <v>       0.99091486       0.99571922       0.55038358 </v>
   <v>       0.03625671       0.49353397       0.55265729 </v>
   <v>       0.23001804       0.23706963       0.55210414 </v>
   <v>       0.25816746       0.75838557       0.55288121 </v>
   <v>       0.74595721       0.21070408       0.55554154 </v>
   <v>       0.71754221       0.78658609       0.54717237 </v>
   <v>       0.00091522       0.99384286       0.65414072 </v>
   <v>       0.01450026       0.49912757       0.65551655 </v>
   <v>       0.49428403       0.00217365       0.65435030 </v>
   <v>       0.50505462       0.49015893       0.65610340 </v>
   <v>       0.25341162       0.24677443       0.65475114 </v>
   <v>       0.24734417       0.75163744       0.65423895 </v>
   <v>       0.74177062       0.25933764       0.65525649 </v>
   <v>       0.75213583       0.75598301       0.65370002 </v>
   <v>       0.14293360       0.10462683       0.61120294 </v>
   <v>       0.14636238       0.60591758       0.60863608 </v>
   <v>       0.65134209       0.10412530       0.61010708 </v>
   <v>       0.61743117       0.63610926       0.61464149 </v>
   <v>       0.35182404       0.39081580       0.60823658 </v>
   <v>       0.36041419       0.89246101       0.60791267 </v>
   <v>       0.89209159       0.36246494       0.61438833 </v>
   <v>       0.86307847       0.88691978       0.60824855 </v>
   <v>       0.11556406       0.35661218       0.61139566 </v>
   <v>       0.11265350       0.86420188       0.60710379 </v>
   <v>       0.57772123       0.32808801       0.60728772 </v>
   <v>       0.61365668       0.86360368       0.61113285 </v>
   <v>       0.38292414       0.13110141       0.60812023 </v>
   <v>       0.38824150       0.63951672       0.61280280 </v>
   <v>       0.88799317       0.14135419       0.61190932 </v>
   <v>       0.91428617       0.64971734       0.61522535 </v>
   <v>       0.00000000       0.00000000       0.75492797 </v>
   <v>       0.00000000       0.50000000       0.75492797 </v>
   <v>       0.50000000       0.00000000       0.75492797 </v>
   <v>       0.49999999       0.50000000       0.75492797 </v>
   <v>       0.25000050       0.25000000       0.75493902 </v>
   <v>       0.25000051       0.74999997       0.75493902 </v>
   <v>       0.75000047       0.25000000       0.75493902 </v>
   <v>       0.75000046       0.74999997       0.75493902 </v>
   <v>       0.13579050       0.11421000       0.70478299 </v>
   <v>       0.13579050       0.61420998       0.70478299 </v>
   <v>       0.63579045       0.11421000       0.70478299 </v>
   <v>       0.63579049       0.61420998       0.70478299 </v>
   <v>       0.36420952       0.38578999       0.70478299 </v>
   <v>       0.36420950       0.88578996       0.70478299 </v>
   <v>       0.86420954       0.38578999       0.70478299 </v>
   <v>       0.86420953       0.88578996       0.70478299 </v>
   <v>       0.11421799       0.36421899       0.70478098 </v>
   <v>       0.11421799       0.86421899       0.70478098 </v>
   <v>       0.61421800       0.36421899       0.70478098 </v>
   <v>       0.61421799       0.86421899       0.70478098 </v>
   <v>       0.38578201       0.13578149       0.70478202 </v>
   <v>       0.38578200       0.63578149       0.70478202 </v>
   <v>       0.88578199       0.13578149       0.70478202 </v>
   <v>       0.88578203       0.63578149       0.70478202 </v>
   <v>       0.13466700       0.11533200       0.80125603 </v>
   <v>       0.13466699       0.61533199       0.80125603 </v>
   <v>       0.63466699       0.11533200       0.80125603 </v>
   <v>       0.63466698       0.61533199       0.80125603 </v>
   <v>       0.36533300       0.38466799       0.80125603 </v>
   <v>       0.36533299       0.88466796       0.80125603 </v>
   <v>       0.86533295       0.38466799       0.80125603 </v>
   <v>       0.86533294       0.88466796       0.80125603 </v>
   <v>       0.11532850       0.36533700       0.80126500 </v>
   <v>       0.11532850       0.86533698       0.80126500 </v>
   <v>       0.61532850       0.36533700       0.80126500 </v>
   <v>       0.61532849       0.86533698       0.80126500 </v>
   <v>       0.38467151       0.13466300       0.80126500 </v>
   <v>       0.38467150       0.63466297       0.80126500 </v>
   <v>       0.88467149       0.13466300       0.80126500 </v>
   <v>       0.88467153       0.63466297       0.80126500 </v>
   <v>       0.99514842       0.00023279       0.60467081 </v>
   <v>       0.00613979       0.49962440       0.60612831 </v>
   <v>       0.50028761       0.00673989       0.60294445 </v>
   <v>       0.49622875       0.49610274       0.60553078 </v>
   <v>       0.24485061       0.24598880       0.60284958 </v>
   <v>       0.24817967       0.74662520       0.60219369 </v>
   <v>       0.74587535       0.25020016       0.60386718 </v>
   <v>       0.74242715       0.75500852       0.60312442 </v>
   <v>       0.00000050       0.00000050       0.70482896 </v>
   <v>       0.00000050       0.50000048       0.70482896 </v>
   <v>       0.50000048       0.00000050       0.70482896 </v>
   <v>       0.50000046       0.50000048       0.70482896 </v>
   <v>       0.24999999       0.24999947       0.70482499 </v>
   <v>       0.25000001       0.74999950       0.70482499 </v>
   <v>       0.74999999       0.24999947       0.70482499 </v>
   <v>       0.74999998       0.74999950       0.70482499 </v>
   <v>       0.00000000       0.00000000       0.80731797 </v>
   <v>       0.00000000       0.50000000       0.80731797 </v>
   <v>       0.50000000       0.00000000       0.80731797 </v>
   <v>       0.49999999       0.50000000       0.80731797 </v>
   <v>       0.24999999       0.25000000       0.80731797 </v>
   <v>       0.25000001       0.74999997       0.80731797 </v>
   <v>       0.74999999       0.25000000       0.80731797 </v>
   <v>       0.74999998       0.74999997       0.80731797 </v>
  </varray>
 </structure>
</modeling>
