 vasp.6.2.1 16May21 (build Nov 15 2021 14:57:28) complex                         
 executed on             LinuxPGI date 2023.07.24  22:23:56
 running on    4 total cores
 distrk:  each k-point on    4 cores,    1 groups
 distr:  one band on NCORE=   1 cores,    4 groups


--------------------------------------------------------------------------------------------------------


 INCAR:
   SYSTEM = PSC
   ISTART = 1
   ICHARG = 1
   PREC = Normal
   ENCUT = 500
   GGA_COMPAT = F
   NELM = 600
   ISYM = 0
   LREAL = Auto
   ISMEAR = 0
   SIGMA = 0.05
   AMIN = 0.01
   BMIX = 0.01
   LVTOT = T
   LWAVE = F
   LDIPOL = T
   IDIPOL = 3
   LVDW = T
   IVDW = 12

 POTCAR:    PAW_PBE H 15Jun2001                   
 POTCAR:    PAW_PBE C 08Apr2002                   
 POTCAR:    PAW_PBE N 08Apr2002                   
 POTCAR:    PAW_PBE I 08Apr2002                   
 POTCAR:    PAW_PBE Pb 08Apr2002                  
 WARNING: For LVTOT=.TRUE., VASP.5.x writes the TOTAL local potential to the
     file LOCPOT. If you want only the Hartree contributions, use LVHAR=.TRUE.
     instead. 

 POTCAR:    PAW_PBE H 15Jun2001                   
   SHA256 =  030f79b5d3ab3cf0e668861823c8fb652ff669f3e15e46930bd03bfd63a607b6 H/POTCAR              
   COPYR  = (c) Copyright 15Jun2001 Georg Kresse                                                    
   COPYR  = This file is part of the software VASP. Any use, copying, and all other rights are regul
   COPYR  = If you do not have a valid VASP license, you may not use, copy or distribute this file. 
   VRHFIN =H: ultrasoft test                                                                        
   LEXCH  = PE                                                                                      
   EATOM  =    12.4884 eV,    0.9179 Ry                                                             
                                                                                                    
   TITEL  = PAW_PBE H 15Jun2001                                                                     
   LULTRA =        F    use ultrasoft PP ?                                                          
   IUNSCR =        0    unscreen: 0-lin 1-nonlin 2-no                                               
   RPACOR =    0.000    partial core radius                                                         
   POMASS =    1.000; ZVAL   =    1.000    mass and valenz                                          
   RCORE  =    1.100    outmost cutoff radius                                                       
   RWIGS  =    0.700; RWIGS  =    0.370    wigner-seitz radius (au A)                               
   ENMAX  =  250.000; ENMIN  =  200.000 eV                                                          
   RCLOC  =    0.701    cutoff for local pot                                                        
   LCOR   =        T    correct aug charges                                                         
   LPAW   =        T    paw PP                                                                      
   EAUG   =  400.000                                                                                
   RMAX   =    1.123    core radius for proj-oper                                                   
   RAUG   =    1.200    factor for augmentation sphere                                              
   RDEP   =    1.112    radius for radial grids                                                     
   RDEPT  =    0.926    core radius for aug-charge                                                  
                                                                                                    
   Atomic configuration                                                                             
    2 entries                                                                                       
     n  l   j            E        occ.                                                              
     1  0  0.50        -6.4927   1.0000                                                             
     2  1  0.50        -3.4015   0.0000                                                             
   Description                                                                                      
     l       E           TYP  RCUT    TYP  RCUT                                                     
     0     -6.4927494     23  1.100                                                                 
     0      6.8029130     23  1.100                                                                 
     1     -4.0817478     23  1.100                                                                 
  local pseudopotential read in
  atomic valenz-charges read in
  non local Contribution for L=            0  read in
    real space projection operators read in
  non local Contribution for L=            0  read in
    real space projection operators read in
  non local Contribution for L=            1  read in
    real space projection operators read in
    PAW grid and wavefunctions read in
 
   number of l-projection  operators is LMAX  =            3
   number of lm-projection operators is LMMAX =            5
 
 POTCAR:    PAW_PBE C 08Apr2002                   
   SHA256 =  253f7b50bb8d59471dbedb8285d89021f4a42ed1a2c5d38a03a736e69125dd95 C/POTCAR              
   COPYR  = (c) Copyright 08Apr2002 Georg Kresse                                                    
   COPYR  = This file is part of the software VASP. Any use, copying, and all other rights are regul
   COPYR  = If you do not have a valid VASP license, you may not use, copy or distribute this file. 
   VRHFIN =C: s2p2                                                                                  
   LEXCH  = PE                                                                                      
   EATOM  =   147.1560 eV,   10.8157 Ry                                                             
                                                                                                    
   TITEL  = PAW_PBE C 08Apr2002                                                                     
   LULTRA =        F    use ultrasoft PP ?                                                          
   IUNSCR =        1    unscreen: 0-lin 1-nonlin 2-no                                               
   RPACOR =    1.200    partial core radius                                                         
   POMASS =   12.011; ZVAL   =    4.000    mass and valenz                                          
   RCORE  =    1.500    outmost cutoff radius                                                       
   RWIGS  =    1.630; RWIGS  =    0.863    wigner-seitz radius (au A)                               
   ENMAX  =  400.000; ENMIN  =  300.000 eV                                                          
   ICORE  =        2    local potential                                                             
   LCOR   =        T    correct aug charges                                                         
   LPAW   =        T    paw PP                                                                      
   EAUG   =  644.873                                                                                
   DEXC   =    0.000                                                                                
   RMAX   =    1.529    core radius for proj-oper                                                   
   RAUG   =    1.300    factor for augmentation sphere                                              
   RDEP   =    1.501    radius for radial grids                                                     
   RDEPT  =    1.300    core radius for aug-charge                                                  
                                                                                                    
   Atomic configuration                                                                             
    4 entries                                                                                       
     n  l   j            E        occ.                                                              
     1  0  0.50      -273.3789   2.0000                                                             
     2  0  0.50       -13.7508   2.0000                                                             
     2  1  0.50        -5.2854   2.0000                                                             
     3  2  1.50        -5.4423   0.0000                                                             
   Description                                                                                      
     l       E           TYP  RCUT    TYP  RCUT                                                     
     0    -13.7508458     23  1.200                                                                 
     0     -8.2022199     23  1.200                                                                 
     1     -5.2854383     23  1.500                                                                 
     1     34.0145650     23  1.500                                                                 
     2     -5.4423304      7  1.500                                                                 
  local pseudopotential read in
  partial core-charges read in
  partial kinetic energy density read in
  atomic valenz-charges read in
  non local Contribution for L=            0  read in
    real space projection operators read in
  non local Contribution for L=            0  read in
    real space projection operators read in
  non local Contribution for L=            1  read in
    real space projection operators read in
  non local Contribution for L=            1  read in
    real space projection operators read in
    PAW grid and wavefunctions read in
 
   number of l-projection  operators is LMAX  =            4
   number of lm-projection operators is LMMAX =            8
 
 POTCAR:    PAW_PBE N 08Apr2002                   
   SHA256 =  e053789ff3a61a86a1b75d8a110fcc91f86041011e7b0817c7c99e4e8a6349d7 N/POTCAR              
   COPYR  = (c) Copyright 08Apr2002 Georg Kresse                                                    
   COPYR  = This file is part of the software VASP. Any use, copying, and all other rights are regul
   COPYR  = If you do not have a valid VASP license, you may not use, copy or distribute this file. 
   VRHFIN =N: s2p3                                                                                  
   LEXCH  = PE                                                                                      
   EATOM  =   264.5486 eV,   19.4438 Ry                                                             
                                                                                                    
   TITEL  = PAW_PBE N 08Apr2002                                                                     
   LULTRA =        F    use ultrasoft PP ?                                                          
   IUNSCR =        1    unscreen: 0-lin 1-nonlin 2-no                                               
   RPACOR =    1.200    partial core radius                                                         
   POMASS =   14.001; ZVAL   =    5.000    mass and valenz                                          
   RCORE  =    1.500    outmost cutoff radius                                                       
   RWIGS  =    1.400; RWIGS  =    0.741    wigner-seitz radius (au A)                               
   ENMAX  =  400.000; ENMIN  =  300.000 eV                                                          
   ICORE  =        2    local potential                                                             
   LCOR   =        T    correct aug charges                                                         
   LPAW   =        T    paw PP                                                                      
   EAUG   =  627.112                                                                                
   DEXC   =    0.000                                                                                
   RMAX   =    1.529    core radius for proj-oper                                                   
   RAUG   =    1.300    factor for augmentation sphere                                              
   RDEP   =    1.514    radius for radial grids                                                     
   RDEPT  =    1.338    core radius for aug-charge                                                  
                                                                                                    
   Atomic configuration                                                                             
    4 entries                                                                                       
     n  l   j            E        occ.                                                              
     1  0  0.50      -384.7179   2.0000                                                             
     2  0  0.50       -18.5828   2.0000                                                             
     2  1  0.50        -7.0898   3.0000                                                             
     3  2  1.50        -6.8029   0.0000                                                             
   Description                                                                                      
     l       E           TYP  RCUT    TYP  RCUT                                                     
     0    -18.5828119     23  1.200                                                                 
     0    -13.5018863     23  1.200                                                                 
     1     -7.0897853     23  1.500                                                                 
     1      9.5240782     23  1.500                                                                 
     2     -6.8029130      7  1.500                                                                 
  local pseudopotential read in
  partial core-charges read in
  partial kinetic energy density read in
  atomic valenz-charges read in
  non local Contribution for L=            0  read in
    real space projection operators read in
  non local Contribution for L=            0  read in
    real space projection operators read in
  non local Contribution for L=            1  read in
    real space projection operators read in
  non local Contribution for L=            1  read in
    real space projection operators read in
    PAW grid and wavefunctions read in
 
   number of l-projection  operators is LMAX  =            4
   number of lm-projection operators is LMMAX =            8
 
 POTCAR:    PAW_PBE I 08Apr2002                   
   SHA256 =  e40f3f59b681c1fc3e3091736183c4589116986673d2b852a5012aec72758799 I/POTCAR              
   COPYR  = (c) Copyright 08Apr2002 Georg Kresse                                                    
   COPYR  = This file is part of the software VASP. Any use, copying, and all other rights are regul
   COPYR  = If you do not have a valid VASP license, you may not use, copy or distribute this file. 
   VRHFIN =I : s2p5                                                                                 
   LEXCH  = PE                                                                                      
   EATOM  =   315.8678 eV,   23.2156 Ry                                                             
                                                                                                    
   TITEL  = PAW_PBE I 08Apr2002                                                                     
   LULTRA =        F    use ultrasoft PP ?                                                          
   IUNSCR =        1    unscreen: 0-lin 1-nonlin 2-no                                               
   RPACOR =    2.200    partial core radius                                                         
   POMASS =  126.904; ZVAL   =    7.000    mass and valenz                                          
   RCORE  =    2.300    outmost cutoff radius                                                       
   RWIGS  =    2.810; RWIGS  =    1.487    wigner-seitz radius (au A)                               
   ENMAX  =  175.647; ENMIN  =  131.735 eV                                                          
   ICORE  =        3    local potential                                                             
   LCOR   =        T    correct aug charges                                                         
   LPAW   =        T    paw PP                                                                      
   EAUG   =  370.139                                                                                
   DEXC   =    0.000                                                                                
   RMAX   =    2.359    core radius for proj-oper                                                   
   RAUG   =    1.300    factor for augmentation sphere                                              
   RDEP   =    2.392    radius for radial grids                                                     
   RDEPT  =    2.170    core radius for aug-charge                                                  
                                                                                                    
   Atomic configuration                                                                             
   13 entries                                                                                       
     n  l   j            E        occ.                                                              
     1  0  0.50    -32976.3739   2.0000                                                             
     2  0  0.50     -5094.5933   2.0000                                                             
     2  1  1.50     -4572.0131   6.0000                                                             
     3  0  0.50     -1028.2813   2.0000                                                             
     3  1  1.50      -859.0250   6.0000                                                             
     3  2  2.50      -605.7620  10.0000                                                             
     4  0  0.50      -180.5540   2.0000                                                             
     4  1  1.50      -127.5306   6.0000                                                             
     4  2  2.50       -50.2720  10.0000                                                             
     5  0  0.50       -17.4058   2.0000                                                             
     5  1  0.50        -7.0851   5.0000                                                             
     5  2  1.50        -7.0750   0.0000                                                             
     4  3  2.50        -7.0750   0.0000                                                             
   Description                                                                                      
     l       E           TYP  RCUT    TYP  RCUT                                                     
     0    -17.4058016     23  2.300                                                                 
     0    -18.7663842     23  2.300                                                                 
     1     -7.0850686     23  2.300                                                                 
     1     -4.2150896     23  2.300                                                                 
     2     -7.0750295     23  2.300                                                                 
     3     -1.3605826     23  2.300                                                                 
  local pseudopotential read in
  partial core-charges read in
  partial kinetic energy density read in
  atomic valenz-charges read in
  non local Contribution for L=            0  read in
    real space projection operators read in
  non local Contribution for L=            0  read in
    real space projection operators read in
  non local Contribution for L=            1  read in
    real space projection operators read in
  non local Contribution for L=            1  read in
    real space projection operators read in
  non local Contribution for L=            2  read in
    real space projection operators read in
    PAW grid and wavefunctions read in
 
   number of l-projection  operators is LMAX  =            5
   number of lm-projection operators is LMMAX =           13
 
 POTCAR:    PAW_PBE Pb 08Apr2002                  
   SHA256 =  797118a27cf1bcd06b9881c67a26cdde129e3cd1a551dd4a281f9681ce847303 Pb/POTCAR             
   COPYR  = (c) Copyright 08Apr2002 Georg Kresse                                                    
   COPYR  = This file is part of the software VASP. Any use, copying, and all other rights are regul
   COPYR  = If you do not have a valid VASP license, you may not use, copy or distribute this file. 
   VRHFIN =Pb:                                                                                      
   LEXCH  = PE                                                                                      
   EATOM  =    96.9868 eV,    7.1283 Ry                                                             
                                                                                                    
   TITEL  = PAW_PBE Pb 08Apr2002                                                                    
   LULTRA =        F    use ultrasoft PP ?                                                          
   IUNSCR =        1    unscreen: 0-lin 1-nonlin 2-no                                               
   RPACOR =    2.200    partial core radius                                                         
   POMASS =  207.200; ZVAL   =    4.000    mass and valenz                                          
   RCORE  =    3.100    outmost cutoff radius                                                       
   RWIGS  =    3.260; RWIGS  =    1.725    wigner-seitz radius (au A)                               
   ENMAX  =   97.973; ENMIN  =   73.480 eV                                                          
   ICORE  =        3    local potential                                                             
   LCOR   =        T    correct aug charges                                                         
   LPAW   =        T    paw PP                                                                      
   EAUG   =  234.873                                                                                
   DEXC   =    0.000                                                                                
   RMAX   =    3.158    core radius for proj-oper                                                   
   RAUG   =    1.300    factor for augmentation sphere                                              
   RDEP   =    3.202    radius for radial grids                                                     
   RDEPT  =    2.659    core radius for aug-charge                                                  
                                                                                                    
   Atomic configuration                                                                             
   17 entries                                                                                       
     n  l   j            E        occ.                                                              
     1  0  0.50    -88091.8466   2.0000                                                             
     2  0  0.50    -15753.4197   2.0000                                                             
     2  1  1.50    -13508.1797   6.0000                                                             
     3  0  0.50     -3781.7194   2.0000                                                             
     3  1  1.50     -3138.2529   6.0000                                                             
     3  2  2.50     -2483.2977  10.0000                                                             
     4  0  0.50      -856.2895   2.0000                                                             
     4  1  1.50      -645.4943   6.0000                                                             
     4  2  2.50      -401.8768  10.0000                                                             
     4  3  3.50      -132.9059  14.0000                                                             
     5  0  0.50      -144.0950   2.0000                                                             
     5  1  1.50       -85.7879   6.0000                                                             
     5  2  2.50       -21.1769  10.0000                                                             
     6  0  0.50       -12.0372   2.0000                                                             
     6  1  1.50        -3.4971   2.0000                                                             
     6  2  2.50        -1.3606   0.0000                                                             
     5  3  2.50        -2.7212   0.0000                                                             
   Description                                                                                      
     l       E           TYP  RCUT    TYP  RCUT                                                     
     0    -12.0371566     23  3.100                                                                 
     0    -13.3977392     23  3.100                                                                 
     1     -3.4971341     23  3.100                                                                 
     1     -5.4423304     23  3.100                                                                 
     2     -1.3605826     23  3.100                                                                 
     3     -1.3605826     23  3.100                                                                 
  local pseudopotential read in
  partial core-charges read in
  partial kinetic energy density read in
  atomic valenz-charges read in
  non local Contribution for L=            0  read in
    real space projection operators read in
  non local Contribution for L=            0  read in
    real space projection operators read in
  non local Contribution for L=            1  read in
    real space projection operators read in
  non local Contribution for L=            1  read in
    real space projection operators read in
  non local Contribution for L=            2  read in
    real space projection operators read in
    PAW grid and wavefunctions read in
 
   number of l-projection  operators is LMAX  =            5
   number of lm-projection operators is LMMAX =           13
 
 Optimization of the real space projectors (new method)

 maximal supplied QI-value         = 34.20
 optimisation between [QCUT,QGAM] = [ 11.29, 22.57] = [ 35.68,142.71] Ry 
 Optimized for a Real-space Cutoff    1.16 Angstroem

   l    n(q)    QCUT    max X(q) W(low)/X(q) W(high)/X(q)  e(spline) 
   0      8    11.287    19.460    0.40E-03    0.73E-03    0.16E-06
   0      8    11.287    12.209    0.38E-03    0.70E-03    0.15E-06
   1      7    11.287     4.655    0.22E-03    0.25E-04    0.22E-06
 Optimization of the real space projectors (new method)

 maximal supplied QI-value         = 25.13
 optimisation between [QCUT,QGAM] = [ 11.31, 22.87] = [ 35.82,146.48] Ry 
 Optimized for a Real-space Cutoff    1.00 Angstroem

   l    n(q)    QCUT    max X(q) W(low)/X(q) W(high)/X(q)  e(spline) 
   0      7    11.310   115.676    0.43E-03    0.13E-02    0.19E-06
   0      7    11.310    87.132    0.43E-03    0.13E-02    0.18E-06
   1      6    11.310     4.429    0.42E-03    0.74E-03    0.11E-06
   1      6    11.310     2.733    0.34E-03    0.55E-03    0.92E-07
 Optimization of the real space projectors (new method)

 maximal supplied QI-value         = 25.13
 optimisation between [QCUT,QGAM] = [ 11.31, 22.87] = [ 35.82,146.48] Ry 
 Optimized for a Real-space Cutoff    1.27 Angstroem

   l    n(q)    QCUT    max X(q) W(low)/X(q) W(high)/X(q)  e(spline) 
   0      9    11.310    79.467    0.75E-04    0.16E-03    0.36E-06
   0      9    11.310    66.151    0.74E-04    0.16E-03    0.36E-06
   1      8    11.310    17.416    0.35E-03    0.12E-03    0.95E-06
   1      8    11.310    12.382    0.37E-03    0.13E-03    0.98E-06
 Optimization of the real space projectors (new method)

 maximal supplied QI-value         = 16.25
 optimisation between [QCUT,QGAM] = [ 11.38, 22.75] = [ 36.24,144.96] Ry 
 Optimized for a Real-space Cutoff    1.31 Angstroem

   l    n(q)    QCUT    max X(q) W(low)/X(q) W(high)/X(q)  e(spline) 
   0      9    11.376   194.483    0.24E-03    0.23E-03    0.67E-07
   0      9    11.376   190.334    0.23E-03    0.22E-03    0.65E-07
   1      8    11.376   116.687    0.25E-03    0.63E-04    0.16E-06
   1      8    11.376    88.696    0.25E-03    0.61E-04    0.16E-06
   2      8    11.376     4.877    0.17E-03    0.14E-03    0.29E-07
 Optimization of the real space projectors (new method)

 maximal supplied QI-value         = 12.09
 optimisation between [QCUT,QGAM] = [ 11.37, 22.86] = [ 36.19,146.31] Ry 
 Optimized for a Real-space Cutoff    1.66 Angstroem

   l    n(q)    QCUT    max X(q) W(low)/X(q) W(high)/X(q)  e(spline) 
   0     11    11.369   135.111    0.12E-03    0.69E-04    0.19E-05
   0     11    11.369   146.850    0.11E-03    0.65E-04    0.18E-05
   1     11    11.369   148.016    0.17E-03    0.32E-03    0.89E-06
   1     11    11.369   122.989    0.17E-03    0.32E-03    0.91E-06
   2     10    11.369     8.916    0.12E-03    0.45E-04    0.33E-06
  PAW_PBE H 15Jun2001                   :
 energy of atom  1       EATOM=  -12.4884
 kinetic energy error for atom=    0.0020 (will be added to EATOM!!)
  PAW_PBE C 08Apr2002                   :
 energy of atom  2       EATOM= -147.1560
 kinetic energy error for atom=    0.0076 (will be added to EATOM!!)
  PAW_PBE N 08Apr2002                   :
 energy of atom  3       EATOM= -264.5486
 kinetic energy error for atom=    0.0138 (will be added to EATOM!!)
  PAW_PBE I 08Apr2002                   :
 energy of atom  4       EATOM= -315.8678
 kinetic energy error for atom=    0.0009 (will be added to EATOM!!)
  PAW_PBE Pb 08Apr2002                  :
 energy of atom  5       EATOM=  -96.9868
 kinetic energy error for atom=    0.0000 (will be added to EATOM!!)
 
 
 POSCAR:  H  C  N  I Pb
  positions in cartesian coordinates
  No initial velocities read in
 exchange correlation table for  LEXCH =        8
   RHO(1)=    0.500       N(1)  =     2000
   RHO(2)=  100.500       N(2)  =     4000
 


--------------------------------------------------------------------------------------------------------


 ion  position               nearest neighbor table
   1  0.440  0.300  0.577- 187 1.01
   2  0.440  0.826  0.579- 188 1.03
   3  0.980  0.306  0.580- 189 1.01
   4  0.970  0.799  0.583- 190 1.01
   5  0.316  0.006  0.581- 194 1.04
   6  0.309  0.554  0.581- 195 1.04
   7  0.778  0.064  0.583- 196 1.04
   8  0.060  0.138  0.561- 183 1.00
   9  0.059  0.645  0.557- 184 1.04
  10  0.592  0.196  0.555- 185 1.02
  11  0.553  0.671  0.562- 186 1.01
  12  0.342  0.054  0.558- 194 0.99
  13  0.299  0.605  0.558- 195 0.99
  14  0.840  0.070  0.562- 196 1.00
  15  0.034  0.181  0.585- 183 0.99
  16  0.032  0.677  0.582- 184 1.02
  17  0.567  0.255  0.576- 185 1.03
  18  0.500  0.697  0.583- 186 1.01
  19  0.235  0.436  0.583- 191 1.03
  20  0.189  0.948  0.581- 192 1.04
  21  0.685  0.963  0.582- 193 1.03
  22  0.379  0.271  0.557- 187 1.03
  23  0.463  0.875  0.557- 188 1.03
  24  0.980  0.346  0.555- 189 1.03
  25  0.957  0.846  0.559- 190 1.03
  26  0.181  0.416  0.560- 191 1.00
  27  0.136  0.966  0.559- 192 1.02
  28  0.689  0.905  0.559- 193 1.01
  29  0.470  0.202  0.540- 146 1.10
  30  0.537  0.780  0.543- 147 1.09
  31  0.029  0.234  0.540- 144 1.09
  32  0.011  0.750  0.539- 145 1.11
  33  0.218  0.522  0.542- 148 1.09
  34  0.228  0.034  0.542- 149 1.09
  35  0.787  0.968  0.544- 150 1.09
  36  0.457  0.309  0.675- 205 1.01
  37  0.435  0.812  0.673- 206 1.01
  38  0.963  0.285  0.680- 207 1.00
  39  0.935  0.798  0.676- 208 1.03
  40  0.298  0.052  0.675- 209 1.01
  41  0.300  0.551  0.676- 210 1.03
  42  0.800  0.053  0.675- 211 1.02
  43  0.804  0.578  0.672- 212 1.03
  44  0.082  0.167  0.647- 197 1.04
  45  0.094  0.690  0.655- 198 1.02
  46  0.572  0.163  0.651- 199 1.03
  47  0.573  0.678  0.656- 200 0.99
  48  0.181  0.414  0.649- 201 1.02
  49  0.175  0.915  0.651- 202 1.00
  50  0.687  0.418  0.659- 203 1.04
  51  0.668  0.924  0.650- 204 1.01
  52  0.064  0.183  0.673- 197 1.03
  53  0.043  0.700  0.679- 198 1.03
  54  0.566  0.212  0.675- 199 1.03
  55  0.536  0.713  0.679- 200 1.01
  56  0.210  0.440  0.675- 201 1.02
  57  0.199  0.948  0.676- 202 1.03
  58  0.706  0.477  0.680- 203 1.02
  59  0.693  0.958  0.675- 204 1.03
  60  0.405  0.311  0.652- 205 1.02
  61  0.415  0.832  0.647- 206 1.03
  62  0.928  0.324  0.657- 207 1.00
  63  0.930  0.839  0.651- 208 1.01
  64  0.329  0.077  0.650- 209 1.02
  65  0.322  0.588  0.652- 210 1.01
  66  0.836  0.072  0.649- 211 1.02
  67  0.835  0.579  0.645- 212 1.02
  68  0.996  0.257  0.634- 151 1.09
  69  0.029  0.781  0.637- 152 1.09
  70  0.472  0.220  0.635- 153 1.09
  71  0.502  0.748  0.634- 154 1.10
  72  0.254  0.994  0.632- 156 1.09
  73  0.249  0.505  0.632- 155 1.10
  74  0.758  0.993  0.632- 158 1.10
  75  0.764  0.478  0.635- 157 1.09
  76  0.449  0.301  0.769- 221 1.02
  77  0.449  0.801  0.769- 222 1.02
  78  0.949  0.301  0.769- 223 1.02
  79  0.949  0.801  0.769- 224 1.02
  80  0.301  0.051  0.769- 225 1.02
  81  0.301  0.551  0.769- 226 1.02
  82  0.801  0.051  0.769- 227 1.02
  83  0.801  0.551  0.769- 228 1.02
  84  0.079  0.171  0.743- 213 1.02
  85  0.079  0.671  0.743- 214 1.02
  86  0.579  0.171  0.743- 215 1.02
  87  0.579  0.671  0.743- 216 1.02
  88  0.171  0.421  0.743- 217 1.02
  89  0.171  0.921  0.743- 218 1.02
  90  0.671  0.421  0.743- 219 1.02
  91  0.671  0.921  0.743- 220 1.02
  92  0.051  0.199  0.769- 213 1.02
  93  0.051  0.699  0.769- 214 1.02
  94  0.551  0.199  0.769- 215 1.02
  95  0.551  0.699  0.769- 216 1.02
  96  0.199  0.449  0.769- 217 1.02
  97  0.199  0.949  0.769- 218 1.02
  98  0.699  0.449  0.769- 219 1.02
  99  0.699  0.949  0.769- 220 1.02
 100  0.421  0.329  0.743- 221 1.02
 101  0.421  0.829  0.743- 222 1.02
 102  0.921  0.329  0.743- 223 1.02
 103  0.921  0.829  0.743- 224 1.02
 104  0.329  0.079  0.743- 225 1.02
 105  0.329  0.579  0.743- 226 1.02
 106  0.829  0.079  0.743- 227 1.02
 107  0.829  0.579  0.743- 228 1.02
 108  0.000  0.250  0.726- 161 1.09
 109  0.000  0.750  0.726- 162 1.09
 110  0.500  0.250  0.726- 159 1.09
 111  0.500  0.750  0.726- 160 1.09
 112  0.250  0.000  0.726- 163 1.09
 113  0.250  0.500  0.726- 164 1.09
 114  0.750  0.000  0.726- 165 1.09
 115  0.750  0.500  0.726- 166 1.09
 116  0.778  0.559  0.525- 173 1.08
 117  0.726  0.479  0.528- 173 1.09
 118  0.868  0.507  0.547- 174 1.09
 119  0.851  0.483  0.574- 174 1.10
 120  0.738  0.641  0.565- 175 1.12
 121  0.797  0.591  0.583- 175 1.10
 122  0.656  0.537  0.571- 176 1.07
 123  0.672  0.450  0.562- 176 1.09
 124  0.614  0.547  0.539- 177 1.11
 125  0.670  0.628  0.542- 177 1.08
 126  0.615  0.653  0.509- 178 1.13
 127  0.695  0.607  0.500- 178 1.10
 128  0.830  0.389  0.533- 179 1.10
 129  0.757  0.378  0.552- 179 1.10
 130  0.848  0.358  0.560- 179 1.11
 131  0.855  0.691  0.559- 180 1.10
 132  0.850  0.632  0.537- 180 1.11
 133  0.904  0.604  0.560- 180 1.10
 134  0.759  0.509  0.600- 181 1.07
 135  0.748  0.417  0.592- 181 1.08
 136  0.673  0.468  0.602- 181 1.07
 137  0.541  0.535  0.508- 182 1.09
 138  0.579  0.558  0.483- 182 1.09
 139  0.713  0.496  0.475- 168 1.09
 140  0.548  0.416  0.520- 169 1.10
 141  0.778  0.376  0.478- 170 1.07
 142  0.618  0.295  0.523- 171 1.09
 143  0.733  0.275  0.502- 172 1.09
 144  0.019  0.240  0.557-  31 1.09 189 1.31 183 1.32
 145  0.007  0.745  0.557-  32 1.11 184 1.31 190 1.31
 146  0.485  0.233  0.555-  29 1.10 185 1.31 187 1.32
 147  0.509  0.772  0.558-  30 1.09 188 1.30 186 1.30
 148  0.240  0.511  0.558-  33 1.09 191 1.30 195 1.31
 149  0.238  0.011  0.557-  34 1.09 192 1.30 194 1.31
 150  0.765  0.987  0.560-  35 1.09 196 1.31 193 1.31
 151  0.004  0.246  0.651-  68 1.09 197 1.31 207 1.33
 152  0.012  0.765  0.653-  69 1.09 198 1.30 208 1.31
 153  0.488  0.236  0.651-  70 1.09 199 1.32 205 1.33
 154  0.495  0.755  0.651-  71 1.10 206 1.31 200 1.32
 155  0.253  0.502  0.650-  73 1.10 210 1.32 201 1.32
 156  0.252  0.996  0.650-  72 1.09 209 1.32 202 1.32
 157  0.761  0.499  0.652-  75 1.09 212 1.31 203 1.31
 158  0.752  0.998  0.649-  74 1.10 204 1.32 211 1.32
 159  0.500  0.250  0.743- 110 1.09 221 1.31 215 1.31
 160  0.500  0.750  0.743- 111 1.09 222 1.31 216 1.31
 161  1.000  0.250  0.743- 108 1.09 223 1.31 213 1.31
 162  1.000  0.750  0.743- 109 1.09 224 1.31 214 1.31
 163  0.250  0.000  0.743- 112 1.09 225 1.31 218 1.31
 164  0.250  0.500  0.743- 113 1.09 226 1.31 217 1.31
 165  0.750  0.000  0.743- 114 1.09 227 1.31 220 1.31
 166  0.750  0.500  0.743- 115 1.09 228 1.31 219 1.31
 167  0.627  0.463  0.498- 168 1.39 169 1.40 182 1.50
 168  0.690  0.452  0.486- 139 1.09 167 1.39 170 1.41
 169  0.599  0.407  0.511- 140 1.10 167 1.40 171 1.41
 170  0.729  0.384  0.487- 141 1.07 168 1.41 172 1.42
 171  0.637  0.339  0.512- 142 1.09 172 1.40 169 1.41
 172  0.702  0.327  0.501- 143 1.09 171 1.40 170 1.42
 173  0.735  0.534  0.534- 116 1.08 117 1.09 229 1.50 177 1.55
 174  0.828  0.478  0.557- 118 1.09 119 1.10 229 1.49 179 1.56
 175  0.786  0.602  0.566- 121 1.10 120 1.12 229 1.52 180 1.53
 176  0.698  0.495  0.570- 122 1.07 123 1.09 181 1.49 229 1.53
 177  0.661  0.579  0.532- 125 1.08 124 1.11 178 1.53 173 1.55
 178  0.644  0.598  0.509- 127 1.10 126 1.13 177 1.53 182 1.55
 179  0.815  0.397  0.550- 129 1.10 128 1.10 130 1.11 174 1.56
 180  0.854  0.633  0.554- 131 1.10 133 1.10 132 1.11 175 1.53
 181  0.722  0.470  0.592- 134 1.07 136 1.07 135 1.08 176 1.49
 182  0.593  0.539  0.499- 137 1.09 138 1.09 167 1.50 178 1.55
 183  0.040  0.182  0.569-  15 0.99   8 1.00 144 1.32
 184  0.035  0.686  0.566-  16 1.02   9 1.04 145 1.31
 185  0.552  0.226  0.563-  10 1.02  17 1.03 146 1.31
 186  0.522  0.712  0.568-  11 1.01  18 1.01 147 1.30
 187  0.432  0.272  0.563-   1 1.01  22 1.03 146 1.32
 188  0.467  0.826  0.565-   2 1.03  23 1.03 147 1.30
 189  0.987  0.300  0.565-   3 1.01  24 1.03 144 1.31
 190  0.975  0.800  0.567-   4 1.01  25 1.03 145 1.31
 191  0.218  0.450  0.567-  26 1.00  19 1.03 148 1.30
 192  0.185  0.973  0.566-  27 1.02  20 1.04 149 1.30
 193  0.708  0.950  0.567-  28 1.01  21 1.03 150 1.31
 194  0.303  0.026  0.566-  12 0.99   5 1.04 149 1.31
 195  0.285  0.561  0.566-  13 0.99   6 1.04 148 1.31
 196  0.799  0.041  0.569-  14 1.00   7 1.04 150 1.31
 197  0.052  0.197  0.658-  52 1.03  44 1.04 151 1.31
 198  0.051  0.716  0.663-  45 1.02  53 1.03 152 1.30
 199  0.545  0.203  0.660-  46 1.03  54 1.03 153 1.32
 200  0.538  0.712  0.663-  47 0.99  55 1.01 154 1.32
 201  0.212  0.449  0.659-  48 1.02  56 1.02 155 1.32
 202  0.205  0.950  0.659-  49 1.00  57 1.03 156 1.32
 203  0.716  0.463  0.665-  58 1.02  50 1.04 157 1.31
 204  0.701  0.957  0.659-  51 1.01  59 1.03 158 1.32
 205  0.448  0.289  0.660-  36 1.01  60 1.02 153 1.33
 206  0.445  0.802  0.658-  37 1.01  61 1.03 154 1.31
 207  0.962  0.288  0.664-  62 1.00  38 1.00 151 1.33
 208  0.956  0.802  0.660-  63 1.01  39 1.03 152 1.31
 209  0.296  0.044  0.659-  40 1.01  64 1.02 156 1.32
 210  0.294  0.550  0.660-  65 1.01  41 1.03 155 1.32
 211  0.799  0.044  0.659-  42 1.02  66 1.02 158 1.32
 212  0.802  0.556  0.657-  67 1.02  43 1.03 157 1.31
 213  0.046  0.204  0.753-  92 1.02  84 1.02 161 1.31
 214  0.046  0.704  0.753-  93 1.02  85 1.02 162 1.31
 215  0.546  0.204  0.753-  94 1.02  86 1.02 159 1.31
 216  0.546  0.704  0.753-  95 1.02  87 1.02 160 1.31
 217  0.204  0.454  0.753-  96 1.02  88 1.02 164 1.31
 218  0.204  0.954  0.753-  97 1.02  89 1.02 163 1.31
 219  0.704  0.454  0.753-  98 1.02  90 1.02 166 1.31
 220  0.704  0.954  0.753-  99 1.02  91 1.02 165 1.31
 221  0.454  0.296  0.753-  76 1.02 100 1.02 159 1.31
 222  0.454  0.796  0.753-  77 1.02 101 1.02 160 1.31
 223  0.954  0.296  0.753-  78 1.02 102 1.02 161 1.31
 224  0.954  0.796  0.753-  79 1.02 103 1.02 162 1.31
 225  0.296  0.046  0.753-  80 1.02 104 1.02 163 1.31
 226  0.296  0.546  0.753-  81 1.02 105 1.02 164 1.31
 227  0.796  0.046  0.753-  82 1.02 106 1.02 165 1.31
 228  0.796  0.546  0.753-  83 1.02 107 1.02 166 1.31
 229  0.761  0.527  0.557- 174 1.49 173 1.50 175 1.52 176 1.53
 230  0.490  0.016  0.552- 304 3.20
 231  0.471  0.516  0.558- 305 3.04
 232  0.000  0.994  0.551- 302 3.32
 233  0.033  0.489  0.552- 303 3.36
 234  0.240  0.244  0.552- 306 3.16
 235  0.253  0.749  0.553- 307 3.05
 236  0.751  0.216  0.556- 308 3.09
 237  0.724  0.782  0.547- 309 3.59
 238  0.002  0.997  0.654- 302 3.12 310 3.15
 239  0.011  0.503  0.655- 303 3.12 311 3.14
 240  0.496  0.999  0.653- 304 3.17 312 3.22
 241  0.508  0.486  0.656- 313 3.04 305 3.16
 242  0.252  0.247  0.654- 306 3.19 314 3.20
 243  0.250  0.753  0.655- 315 3.11 307 3.33
 244  0.740  0.254  0.655- 316 3.10 308 3.19
 245  0.755  0.758  0.654- 309 3.13 317 3.20
 246  0.144  0.106  0.610- 306 3.18 302 3.25
 247  0.146  0.609  0.607- 307 3.16 303 3.17
 248  0.647  0.102  0.608- 304 3.18 308 3.20
 249  0.619  0.633  0.614- 309 3.29 305 3.37
 250  0.351  0.392  0.607- 305 3.21 306 3.25
 251  0.357  0.892  0.607- 307 3.25 304 3.34
 252  0.889  0.365  0.614- 303 3.31 308 3.38
 253  0.861  0.894  0.606- 302 3.15 309 3.23
 254  0.112  0.357  0.610- 306 3.15 303 3.23
 255  0.109  0.859  0.606- 307 3.23 302 3.27
 256  0.578  0.330  0.609- 305 3.36 308 3.39
 257  0.611  0.863  0.609- 309 3.15 304 3.27
 258  0.384  0.134  0.608- 304 3.17 306 3.26
 259  0.385  0.636  0.612- 305 3.25 307 3.25
 260  0.891  0.141  0.612- 302 3.20 308 3.29
 261  0.915  0.655  0.615- 303 3.31 309 3.61
 262  0.000  0.000  0.755- 310 3.13 318 3.27
 263  0.000  0.500  0.755- 311 3.13 319 3.27
 264  0.500  0.000  0.755- 312 3.13 320 3.27
 265  0.500  0.500  0.755- 313 3.13 321 3.27
 266  0.250  0.250  0.755- 314 3.13 322 3.27
 267  0.250  0.750  0.755- 315 3.13 323 3.27
 268  0.750  0.250  0.755- 316 3.13 324 3.27
 269  0.750  0.750  0.755- 317 3.13 325 3.27
 270  0.136  0.114  0.705- 310 3.20 314 3.20
 271  0.136  0.614  0.705- 311 3.20 315 3.20
 272  0.636  0.114  0.705- 312 3.20 316 3.20
 273  0.636  0.614  0.705- 313 3.20 317 3.20
 274  0.364  0.386  0.705- 313 3.20 314 3.20
 275  0.364  0.886  0.705- 312 3.20 315 3.20
 276  0.864  0.386  0.705- 311 3.20 316 3.20
 277  0.864  0.886  0.705- 310 3.20 317 3.20
 278  0.114  0.364  0.705- 314 3.21 311 3.21
 279  0.114  0.864  0.705- 315 3.21 310 3.21
 280  0.614  0.364  0.705- 316 3.21 313 3.21
 281  0.614  0.864  0.705- 317 3.21 312 3.21
 282  0.386  0.136  0.705- 314 3.21 312 3.21
 283  0.386  0.636  0.705- 315 3.21 313 3.21
 284  0.886  0.136  0.705- 316 3.21 310 3.21
 285  0.886  0.636  0.705- 317 3.21 311 3.21
 286  0.135  0.115  0.801- 318 3.22 322 3.22
 287  0.135  0.615  0.801- 319 3.22 323 3.22
 288  0.635  0.115  0.801- 320 3.22 324 3.22
 289  0.635  0.615  0.801- 321 3.22 325 3.22
 290  0.365  0.385  0.801- 321 3.22 322 3.22
 291  0.365  0.885  0.801- 320 3.22 323 3.22
 292  0.865  0.385  0.801- 319 3.22 324 3.22
 293  0.865  0.885  0.801- 318 3.22 325 3.22
 294  0.115  0.365  0.801- 319 3.23 322 3.23
 295  0.115  0.865  0.801- 318 3.23 323 3.23
 296  0.615  0.365  0.801- 321 3.23 324 3.23
 297  0.615  0.865  0.801- 320 3.23 325 3.23
 298  0.385  0.135  0.801- 320 3.23 322 3.23
 299  0.385  0.635  0.801- 321 3.23 323 3.23
 300  0.885  0.135  0.801- 318 3.23 324 3.23
 301  0.885  0.635  0.801- 319 3.23 325 3.23
 302  0.998  0.002  0.604- 238 3.12 253 3.15 260 3.20 246 3.25 255 3.27 232 3.32
 303  0.007  0.501  0.605- 239 3.12 247 3.17 254 3.23 261 3.31 252 3.31 233 3.36
 304  0.502  0.005  0.603- 258 3.17 240 3.17 248 3.18 230 3.20 257 3.27 251 3.34
 305  0.496  0.496  0.606- 231 3.04 241 3.16 250 3.21 259 3.25 256 3.36 249 3.37
 306  0.245  0.248  0.603- 254 3.15 234 3.16 246 3.18 242 3.19 250 3.25 258 3.26
 307  0.249  0.749  0.602- 235 3.05 247 3.16 255 3.23 259 3.25 251 3.25 243 3.33
 308  0.747  0.249  0.604- 236 3.09 244 3.19 248 3.20 260 3.29 252 3.38 256 3.39
 309  0.748  0.757  0.604- 245 3.13 257 3.15 253 3.23 249 3.29 237 3.59 261 3.61
 310  0.000  0.000  0.705- 262 3.13 238 3.15 270 3.20 277 3.20 279 3.21 284 3.21
 311  0.000  0.500  0.705- 263 3.13 239 3.14 271 3.20 276 3.20 278 3.21 285 3.21
 312  0.500  0.000  0.705- 264 3.13 272 3.20 275 3.20 281 3.21 282 3.21 240 3.22
 313  0.500  0.500  0.705- 241 3.04 265 3.13 273 3.20 274 3.20 280 3.21 283 3.21
 314  0.250  0.250  0.705- 266 3.13 242 3.20 270 3.20 274 3.20 282 3.21 278 3.21
 315  0.250  0.750  0.705- 243 3.11 267 3.13 271 3.20 275 3.20 283 3.21 279 3.21
 316  0.750  0.250  0.705- 244 3.10 268 3.13 272 3.20 276 3.20 284 3.21 280 3.21
 317  0.750  0.750  0.705- 269 3.13 245 3.20 273 3.20 277 3.20 285 3.21 281 3.21
 318  0.000  0.000  0.807- 286 3.22 293 3.22 300 3.23 295 3.23 262 3.27
 319  0.000  0.500  0.807- 287 3.22 292 3.22 301 3.23 294 3.23 263 3.27
 320  0.500  0.000  0.807- 288 3.22 291 3.22 298 3.23 297 3.23 264 3.27
 321  0.500  0.500  0.807- 289 3.22 290 3.22 299 3.23 296 3.23 265 3.27
 322  0.250  0.250  0.807- 290 3.22 286 3.22 294 3.23 298 3.23 266 3.27
 323  0.250  0.750  0.807- 291 3.22 287 3.22 299 3.23 295 3.23 267 3.27
 324  0.750  0.250  0.807- 292 3.22 288 3.22 296 3.23 300 3.23 268 3.27
 325  0.750  0.750  0.807- 293 3.22 289 3.22 297 3.23 301 3.23 269 3.27
 

IMPORTANT INFORMATION: All symmetrisations will be switched off!
NOSYMM: (Re-)initialisation of all symmetry stuff for point group C_1.


----------------------------------------------------------------------------------------

                                     Primitive cell                                     

  volume of cell :   20385.2105

  direct lattice vectors                    reciprocal lattice vectors
    18.060800552  0.000000000  0.000000000     0.055368531  0.000015077 -0.000000000
    -0.004918649 18.062799454  0.000000000     0.000000000  0.055362404  0.000000000
     0.000000000  0.000000000 62.487499237     0.000000000 -0.000000000  0.016003201

  length of vectors
    18.060800552 18.062800123 62.487499237     0.055368533  0.055362404  0.016003201

  position of ions in fractional coordinates (direct lattice)
     0.439655601  0.300315577  0.577237708
     0.440073995  0.825680254  0.579294211
     0.980192407  0.306228101  0.580461558
     0.970107240  0.799070423  0.583053813
     0.315727690  0.006205437  0.581125387
     0.309276916  0.553839507  0.580850796
     0.777915865  0.064284384  0.583227065
     0.060473146  0.137626003  0.561356724
     0.058570136  0.645336395  0.556773471
     0.592153523  0.195956694  0.555054621
     0.552818022  0.670886101  0.561564651
     0.341693516  0.054190958  0.558112362
     0.299398485  0.605134218  0.557622334
     0.839503279  0.069707216  0.562058647
     0.033677245  0.180662467  0.584559241
     0.032024329  0.676801344  0.582117346
     0.567072343  0.255393549  0.575971219
     0.499992762  0.696825770  0.582632159
     0.235053776  0.435784319  0.582683194
     0.189068686  0.948395469  0.581095474
     0.685045035  0.963443418  0.581738975
     0.378638943  0.270767316  0.557128950
     0.463146169  0.875342142  0.556655405
     0.979953856  0.345835249  0.555270973
     0.957409382  0.846458050  0.558630288
     0.180865244  0.416339057  0.560419708
     0.135699209  0.966444387  0.558531574
     0.688789682  0.904805155  0.559138202
     0.470097526  0.201897241  0.540170968
     0.537014879  0.779686274  0.542578432
     0.029381107  0.234021805  0.540160041
     0.011280380  0.749811011  0.539241583
     0.217598303  0.521653183  0.542172955
     0.227708864  0.034172274  0.541624201
     0.787360813  0.968229609  0.544474563
     0.456663335  0.309245015  0.675179722
     0.434554046  0.812308179  0.673282858
     0.963490459  0.285257989  0.680142812
     0.934939107  0.798340705  0.675674450
     0.298023995  0.051724943  0.675374829
     0.300087219  0.550912455  0.676448652
     0.799524066  0.052990774  0.674586891
     0.803891375  0.578165204  0.671695138
     0.082474096  0.166525090  0.646615964
     0.093939753  0.689931499  0.655316862
     0.571761891  0.162566767  0.651486934
     0.572877128  0.678021182  0.655698225
     0.181268658  0.414479654  0.649100409
     0.174653862  0.915202659  0.650527330
     0.686936728  0.418133466  0.658587109
     0.668263009  0.924459885  0.649758011
     0.064145298  0.182711941  0.673333772
     0.043233164  0.699637776  0.678540440
     0.566441110  0.211504258  0.675178257
     0.535858761  0.713433816  0.678992435
     0.209556635  0.439716190  0.674739570
     0.198928684  0.947930160  0.675808266
     0.706478887  0.476649530  0.680221258
     0.692669851  0.957760376  0.674921675
     0.404702309  0.311424874  0.651963164
     0.414859343  0.831562287  0.646704727
     0.928100759  0.323532971  0.656872532
     0.929571702  0.839213308  0.650906190
     0.328920098  0.077157104  0.650202619
     0.322478501  0.588104741  0.651538091
     0.836152431  0.072464504  0.649464557
     0.834930394  0.579083989  0.645109560
     0.995588372  0.256890206  0.634429445
     0.028555363  0.780890220  0.636506276
     0.472308462  0.219536623  0.634995049
     0.501986767  0.747566580  0.633638943
     0.254344705  0.993613600  0.632436859
     0.248928967  0.505496769  0.632463109
     0.758356182  0.993385421  0.631814481
     0.763975055  0.477704058  0.635498628
     0.448745018  0.301283966  0.768889017
     0.448745007  0.801283913  0.768889017
     0.948744965  0.301283966  0.768889017
     0.948745007  0.801283913  0.768889017
     0.301275995  0.051294496  0.768872961
     0.301276011  0.551294499  0.768872961
     0.801275943  0.051294496  0.768872961
     0.801275984  0.551294499  0.768872961
     0.078771004  0.171180501  0.743441971
     0.078771006  0.671180448  0.743441971
     0.578771004  0.171180501  0.743441971
     0.578770992  0.671180448  0.743441971
     0.171199499  0.421174482  0.743421032
     0.171199501  0.921174508  0.743421032
     0.671199512  0.421174482  0.743421032
     0.671199501  0.921174508  0.743421032
     0.051256000  0.198714991  0.768889017
     0.051256002  0.698714925  0.768889017
     0.551256027  0.198714991  0.768889017
     0.551256016  0.698714925  0.768889017
     0.198723491  0.448703970  0.768872046
     0.198723493  0.948703970  0.768872046
     0.698723518  0.448703970  0.768872046
     0.698723507  0.948703970  0.768872046
     0.421231519  0.328817467  0.743441971
     0.421231508  0.828817440  0.743441971
     0.921231466  0.328817467  0.743441971
     0.921231508  0.828817440  0.743441971
     0.328800503  0.078824997  0.743421032
     0.328800492  0.578824964  0.743421032
     0.828800477  0.078824997  0.743421032
     0.828800519  0.578824964  0.743421032
     0.000003500  0.250001478  0.725821992
     0.000003500  0.750001452  0.725821992
     0.500003506  0.250001478  0.725821992
     0.500003495  0.750001452  0.725821992
     0.250000502  0.000000000  0.725803983
     0.250000517  0.500000000  0.725803983
     0.750000502  0.000000000  0.725803983
     0.750000490  0.500000000  0.725803983
     0.778323777  0.558528207  0.524723054
     0.725755298  0.478591640  0.528177969
     0.867672024  0.506757261  0.546866582
     0.850576943  0.483349030  0.573580299
     0.738417299  0.641367222  0.564943013
     0.796557793  0.590714690  0.582727453
     0.655622685  0.536763357  0.571390713
     0.672199385  0.450009709  0.561564346
     0.613827720  0.547011127  0.538809184
     0.669914092  0.627581900  0.541979985
     0.614893173  0.653003941  0.509223372
     0.695015948  0.606837683  0.499743143
     0.830114817  0.389460776  0.533180007
     0.757265634  0.378463358  0.551581331
     0.847578779  0.358177055  0.560246272
     0.855109726  0.691278157  0.559239846
     0.850045218  0.632088290  0.536723867
     0.904430445  0.603791730  0.559646787
     0.758610517  0.508672445  0.599577931
     0.748105803  0.416856369  0.591881018
     0.672836387  0.467581999  0.601822948
     0.541277382  0.535348062  0.507625152
     0.579083551  0.558001180  0.482565727
     0.712601277  0.495760608  0.475476632
     0.548463388  0.416192913  0.520343333
     0.778315388  0.376295088  0.477853206
     0.618346754  0.294762024  0.522822650
     0.733060251  0.275221304  0.501913774
     0.019179975  0.239785017  0.557292373
     0.006929205  0.745337936  0.556912232
     0.485361460  0.232771080  0.554649389
     0.508802245  0.772454625  0.557899062
     0.239714066  0.510749401  0.558081777
     0.238435525  0.011257597  0.557468373
     0.764881128  0.986836926  0.559711192
     0.004050989  0.246167996  0.651494809
     0.012272565  0.765065956  0.652727966
     0.487699932  0.236315839  0.651201537
     0.494562841  0.754504198  0.650946176
     0.252715983  0.501519359  0.649939261
     0.251708586  0.995910008  0.649898237
     0.760917687  0.498680638  0.651787348
     0.751752980  0.997993770  0.649186242
     0.499988984  0.249994984  0.743277021
     0.499989025  0.749994958  0.743277021
     0.999988984  0.249994984  0.743277021
     0.999989025  0.749994958  0.743277021
     0.250000502  0.000001000  0.743255960
     0.250000517  0.500001003  0.743255960
     0.750000502  0.000001000  0.743255960
     0.750000491  0.500001003  0.743255960
     0.626879747  0.463226242  0.497865021
     0.690146830  0.451737039  0.485535132
     0.599086917  0.406996081  0.510998873
     0.728506287  0.384083145  0.486820240
     0.637209306  0.339029018  0.512268048
     0.702272503  0.326962261  0.500526350
     0.734644033  0.534420354  0.534217873
     0.827954416  0.478468780  0.557252204
     0.785510691  0.601502105  0.565684494
     0.697833401  0.495403062  0.570386423
     0.661212177  0.578736897  0.532253186
     0.643983811  0.597756795  0.508880896
     0.815072494  0.396954196  0.550136462
     0.853886842  0.632699053  0.554467468
     0.721742659  0.470478270  0.592109518
     0.592750670  0.538918454  0.498656103
     0.039507201  0.181906750  0.568757191
     0.034584848  0.686382438  0.566026054
     0.551989687  0.226080661  0.562600137
     0.522405705  0.711569001  0.568396950
     0.431586259  0.272359880  0.563357368
     0.466948987  0.826140333  0.564814203
     0.987481312  0.299667063  0.564584726
     0.974532874  0.800464651  0.566907028
     0.218029774  0.449864727  0.567417568
     0.185272039  0.972804246  0.566091985
     0.707506008  0.949996134  0.567040539
     0.303319414  0.025992840  0.565988021
     0.285361100  0.560501046  0.565904814
     0.798871689  0.041396415  0.569259245
     0.051935940  0.196612521  0.657797949
     0.051147247  0.715900630  0.662852855
     0.544776275  0.202722957  0.660067141
     0.537743558  0.712178181  0.662859020
     0.211842834  0.448697211  0.658628926
     0.205289575  0.950028647  0.659399405
     0.715550358  0.463391974  0.664601923
     0.700899402  0.957417158  0.658669156
     0.447844155  0.289330962  0.660318168
     0.445245866  0.802419064  0.657749295
     0.962186670  0.287777733  0.664119771
     0.955500624  0.801661259  0.660357360
     0.295504786  0.044338537  0.659316136
     0.294161776  0.550182105  0.660093330
     0.798593541  0.043993920  0.658545047
     0.801902959  0.555893760  0.656562595
     0.045862501  0.204119496  0.752725994
     0.045862500  0.704119456  0.752725994
     0.545862507  0.204119496  0.752725994
     0.545862496  0.704119456  0.752725994
     0.204119002  0.454101003  0.752704994
     0.204118991  0.954100951  0.752704994
     0.704118976  0.454101003  0.752704994
     0.704118964  0.954100951  0.752704994
     0.454140018  0.295888490  0.752726971
     0.454140007  0.795888516  0.752726971
     0.954140018  0.295888490  0.752726971
     0.954140060  0.795888516  0.752726971
     0.295882492  0.045900498  0.752704994
     0.295882481  0.545900528  0.752704994
     0.795882439  0.045900498  0.752704994
     0.795882481  0.545900528  0.752704994
     0.761119570  0.526850536  0.556840318
     0.490130008  0.015684447  0.551600317
     0.471382773  0.516418290  0.558297640
     0.000228967  0.993880507  0.551430239
     0.033237895  0.488612380  0.551546534
     0.240061718  0.244223588  0.552018553
     0.253259945  0.749332558  0.552943664
     0.750810204  0.215845786  0.555862888
     0.723751309  0.782071410  0.547132138
     0.001924355  0.997406222  0.654434850
     0.010874168  0.502897116  0.654605538
     0.496019757  0.998967052  0.653343506
     0.507647788  0.486418689  0.656422308
     0.251802376  0.246648455  0.653595632
     0.250103601  0.752970742  0.655062844
     0.740435317  0.254065529  0.655261431
     0.755403657  0.758034200  0.653673284
     0.143970574  0.105533018  0.609754405
     0.145710205  0.608502447  0.606724746
     0.647296986  0.102431391  0.608042514
     0.618947148  0.633360133  0.614290102
     0.351083773  0.392300263  0.607019116
     0.356906440  0.891544649  0.606863201
     0.889182042  0.364512172  0.614335765
     0.860810377  0.894399420  0.606321528
     0.111598699  0.357003547  0.609519311
     0.108769344  0.858611870  0.606485929
     0.578278713  0.329772181  0.609206382
     0.610730041  0.862813934  0.609145091
     0.383661672  0.133599941  0.608358557
     0.384686506  0.636146691  0.611633687
     0.890915518  0.140527329  0.611921098
     0.915401207  0.655294094  0.614930428
     0.000000000  0.000000000  0.754927972
     0.000000000  0.500000000  0.754927972
     0.500000000  0.000000000  0.754927972
     0.499999989  0.500000000  0.754927972
     0.250000496  0.250000000  0.754939022
     0.250000511  0.749999974  0.754939022
     0.750000470  0.250000000  0.754939022
     0.750000458  0.749999974  0.754939022
     0.135790500  0.114209997  0.704782994
     0.135790502  0.614209984  0.704782994
     0.635790447  0.114209997  0.704782994
     0.635790488  0.614209984  0.704782994
     0.364209516  0.385789989  0.704782994
     0.364209505  0.885789963  0.704782994
     0.864209542  0.385789989  0.704782994
     0.864209531  0.885789963  0.704782994
     0.114217990  0.364218986  0.704780979
     0.114217992  0.864218986  0.704780979
     0.614218004  0.364218986  0.704780979
     0.614217992  0.864218986  0.704780979
     0.385782012  0.135781489  0.704782017
     0.385782001  0.635781489  0.704782017
     0.885781985  0.135781489  0.704782017
     0.885782027  0.635781489  0.704782017
     0.134667000  0.115332001  0.801256025
     0.134666989  0.615331988  0.801256025
     0.634666987  0.115332001  0.801256025
     0.634666976  0.615331988  0.801256025
     0.365333002  0.384667985  0.801256025
     0.365332990  0.884667959  0.801256025
     0.865332949  0.384667985  0.801256025
     0.865332938  0.884667959  0.801256025
     0.115328503  0.365337004  0.801264999
     0.115328505  0.865336978  0.801264999
     0.615328503  0.365337004  0.801264999
     0.615328492  0.865336978  0.801264999
     0.384671513  0.134662996  0.801264999
     0.384671501  0.634662970  0.801264999
     0.884671486  0.134662996  0.801264999
     0.884671528  0.634662970  0.801264999
     0.998019912  0.001569087  0.604464772
     0.006933800  0.500880560  0.604625449
     0.501559991  0.005485953  0.602640982
     0.495598533  0.496064142  0.606125566
     0.245230600  0.247601928  0.602634389
     0.248630099  0.748635839  0.601747798
     0.746647493  0.248626653  0.604321189
     0.747510046  0.756644037  0.603627508
     0.000000500  0.000000500  0.704828963
     0.000000500  0.500000475  0.704828963
     0.500000475  0.000000500  0.704828963
     0.500000464  0.500000475  0.704828963
     0.249999994  0.249999472  0.704824995
     0.250000010  0.749999498  0.704824995
     0.749999994  0.249999472  0.704824995
     0.749999983  0.749999498  0.704824995
     0.000000000  0.000000000  0.807317968
     0.000000000  0.500000000  0.807317968
     0.500000000  0.000000000  0.807317968
     0.499999989  0.500000000  0.807317968
     0.249999994  0.250000000  0.807317968
     0.250000010  0.749999974  0.807317968
     0.749999994  0.250000000  0.807317968
     0.749999983  0.749999974  0.807317968

  ion indices of the primitive-cell ions
   primitive index   ion index
                 1           1
                 2           2
                 3           3
                 4           4
                 5           5
                 6           6
                 7           7
                 8           8
                 9           9
                10          10
                11          11
                12          12
                13          13
                14          14
                15          15
                16          16
                17          17
                18          18
                19          19
                20          20
                21          21
                22          22
                23          23
                24          24
                25          25
                26          26
                27          27
                28          28
                29          29
                30          30
                31          31
                32          32
                33          33
                34          34
                35          35
                36          36
                37          37
                38          38
                39          39
                40          40
                41          41
                42          42
                43          43
                44          44
                45          45
                46          46
                47          47
                48          48
                49          49
                50          50
                51          51
                52          52
                53          53
                54          54
                55          55
                56          56
                57          57
                58          58
                59          59
                60          60
                61          61
                62          62
                63          63
                64          64
                65          65
                66          66
                67          67
                68          68
                69          69
                70          70
                71          71
                72          72
                73          73
                74          74
                75          75
                76          76
                77          77
                78          78
                79          79
                80          80
                81          81
                82          82
                83          83
                84          84
                85          85
                86          86
                87          87
                88          88
                89          89
                90          90
                91          91
                92          92
                93          93
                94          94
                95          95
                96          96
                97          97
                98          98
                99          99
               100         100
               101         101
               102         102
               103         103
               104         104
               105         105
               106         106
               107         107
               108         108
               109         109
               110         110
               111         111
               112         112
               113         113
               114         114
               115         115
               116         116
               117         117
               118         118
               119         119
               120         120
               121         121
               122         122
               123         123
               124         124
               125         125
               126         126
               127         127
               128         128
               129         129
               130         130
               131         131
               132         132
               133         133
               134         134
               135         135
               136         136
               137         137
               138         138
               139         139
               140         140
               141         141
               142         142
               143         143
               144         144
               145         145
               146         146
               147         147
               148         148
               149         149
               150         150
               151         151
               152         152
               153         153
               154         154
               155         155
               156         156
               157         157
               158         158
               159         159
               160         160
               161         161
               162         162
               163         163
               164         164
               165         165
               166         166
               167         167
               168         168
               169         169
               170         170
               171         171
               172         172
               173         173
               174         174
               175         175
               176         176
               177         177
               178         178
               179         179
               180         180
               181         181
               182         182
               183         183
               184         184
               185         185
               186         186
               187         187
               188         188
               189         189
               190         190
               191         191
               192         192
               193         193
               194         194
               195         195
               196         196
               197         197
               198         198
               199         199
               200         200
               201         201
               202         202
               203         203
               204         204
               205         205
               206         206
               207         207
               208         208
               209         209
               210         210
               211         211
               212         212
               213         213
               214         214
               215         215
               216         216
               217         217
               218         218
               219         219
               220         220
               221         221
               222         222
               223         223
               224         224
               225         225
               226         226
               227         227
               228         228
               229         229
               230         230
               231         231
               232         232
               233         233
               234         234
               235         235
               236         236
               237         237
               238         238
               239         239
               240         240
               241         241
               242         242
               243         243
               244         244
               245         245
               246         246
               247         247
               248         248
               249         249
               250         250
               251         251
               252         252
               253         253
               254         254
               255         255
               256         256
               257         257
               258         258
               259         259
               260         260
               261         261
               262         262
               263         263
               264         264
               265         265
               266         266
               267         267
               268         268
               269         269
               270         270
               271         271
               272         272
               273         273
               274         274
               275         275
               276         276
               277         277
               278         278
               279         279
               280         280
               281         281
               282         282
               283         283
               284         284
               285         285
               286         286
               287         287
               288         288
               289         289
               290         290
               291         291
               292         292
               293         293
               294         294
               295         295
               296         296
               297         297
               298         298
               299         299
               300         300
               301         301
               302         302
               303         303
               304         304
               305         305
               306         306
               307         307
               308         308
               309         309
               310         310
               311         311
               312         312
               313         313
               314         314
               315         315
               316         316
               317         317
               318         318
               319         319
               320         320
               321         321
               322         322
               323         323
               324         324
               325         325

----------------------------------------------------------------------------------------

 
 
 KPOINTS: Automatic Mesh                          

Automatic generation of k-mesh.
 Grid dimensions read from file:
 generate k-points for:    3    3    1

 Generating k-lattice:

  Cartesian coordinates                     Fractional coordinates (reciprocal lattice)
     0.018456177  0.000005026 -0.000000000     0.333333333  0.000000000  0.000000000
     0.000000000  0.018454135  0.000000000     0.000000000  0.333333333  0.000000000
     0.000000000 -0.000000000  0.016003201     0.000000000  0.000000000  1.000000000

  Length of vectors
     0.018456178  0.018454135  0.016003201

  Shift w.r.t. Gamma in fractional coordinates (k-lattice)
     0.000000000  0.000000000  0.000000000

 
 Subroutine IBZKPT returns following result:
 ===========================================
 
 Found      5 irreducible k-points:
 
 Following reciprocal coordinates:
            Coordinates               Weight
  0.000000  0.000000  0.000000      1.000000
  0.333333  0.000000  0.000000      2.000000
  0.000000  0.333333  0.000000      2.000000
  0.333333  0.333333  0.000000      2.000000
 -0.333333  0.333333  0.000000      2.000000
 
 Following cartesian coordinates:
            Coordinates               Weight
  0.000000  0.000000  0.000000      1.000000
  0.018456  0.000005  0.000000      2.000000
  0.000000  0.018454  0.000000      2.000000
  0.018456  0.018459  0.000000      2.000000
 -0.018456  0.018449  0.000000      2.000000
 


--------------------------------------------------------------------------------------------------------




 Dimension of arrays:
   k-points           NKPTS =      5   k-points in BZ     NKDIM =      5   number of bands    NBANDS=    732
   number of dos      NEDOS =    301   number of ions     NIONS =    325
   non local maximal  LDIM  =      5   non local SUM 2l+1 LMDIM =     13
   total plane-waves  NPLWV = ******
   max r-space proj   IRMAX =   3336   max aug-charges    IRDMAX=  19845
   dimension x,y,z NGX =   100 NGY =  100 NGZ =  350
   dimension x,y,z NGXF=   200 NGYF=  200 NGZF=  700
   support grid    NGXF=   200 NGYF=  200 NGZF=  700
   ions per type =             143  39  47  72  24
   NGX,Y,Z   is equivalent  to a cutoff of   9.20,  9.20,  9.31 a.u.
   NGXF,Y,Z  is equivalent  to a cutoff of  18.41, 18.41, 18.62 a.u.

 SYSTEM =  PSC                                     
 POSCAR =   H  C  N  I Pb                          

 Startparameter for this run:
   NWRITE =      2    write-flag & timer
   PREC   = normal    normal or accurate (medium, high low for compatibility)
   ISTART =      0    job   : 0-new  1-cont  2-samecut
   ICHARG =      1    charge: 1-file 2-atom 10-const
   ISPIN  =      1    spin polarized calculation?
   LNONCOLLINEAR =      F non collinear calculations
   LSORBIT =      F    spin-orbit coupling
   INIWAV =      1    electr: 0-lowe 1-rand  2-diag
   LASPH  =      F    aspherical Exc in radial PAW
 Electronic Relaxation 1
   ENCUT  =  500.0 eV  36.75 Ry    6.06 a.u.  32.93 32.93113.93*2*pi/ulx,y,z
   ENINI  =  500.0     initial cutoff
   ENAUG  =  644.9 eV  augmentation charge cutoff
   NELM   =    600;   NELMIN=  2; NELMDL=  0     # of ELM steps 
   EDIFF  = 0.1E-03   stopping-criterion for ELM
   LREAL  =      T    real-space projection
   NLSPLINE    = F    spline interpolate recip. space projectors
   LCOMPAT=      F    compatible to vasp.4.4
   GGA_COMPAT  = F    GGA compatible to vasp.4.4-vasp.4.6
   LMAXPAW     = -100 max onsite density
   LMAXMIX     =    2 max onsite mixed and CHGCAR
   VOSKOWN=      0    Vosko Wilk Nusair interpolation
   ROPT   =   -0.00050  -0.00050  -0.00050  -0.00050
   ROPT   =   -0.00050
 Ionic relaxation
   EDIFFG = 0.1E-02   stopping-criterion for IOM
   NSW    =      0    number of steps for IOM
   NBLOCK =      1;   KBLOCK =      1    inner block; outer block 
   IBRION =     -1    ionic relax: 0-MD 1-quasi-New 2-CG
   NFREE  =      0    steps in history (QN), initial steepest desc. (CG)
   ISIF   =      2    stress and relaxation
   IWAVPR =     10    prediction:  0-non 1-charg 2-wave 3-comb
   ISYM   =      0    0-nonsym 1-usesym 2-fastsym
   LCORR  =      T    Harris-Foulkes like correction to forces

   POTIM  = 0.5000    time-step for ionic-motion
   TEIN   =    0.0    initial temperature
   TEBEG  =    0.0;   TEEND  =   0.0 temperature during run
   SMASS  =  -3.00    Nose mass-parameter (am)
   estimated Nose-frequenzy (Omega)   =  0.10E-29 period in steps = 0.13E+47 mass=  -0.745E-26a.u.
   SCALEE = 1.0000    scale energy and forces
   NPACO  =    256;   APACO  = 16.0  distance and # of slots for P.C.
   PSTRESS=    0.0 pullay stress

  Mass of Ions in am
   POMASS =   1.00 12.01 14.00126.90207.20
  Ionic Valenz
   ZVAL   =   1.00  4.00  5.00  7.00  4.00
  Atomic Wigner-Seitz radii
   RWIGS  =  -1.00 -1.00 -1.00 -1.00 -1.00
  virtual crystal weights 
   VCA    =   1.00  1.00  1.00  1.00  1.00
   NELECT =    1134.0000    total number of electrons
   NUPDOWN=      -1.0000    fix difference up-down

 DOS related values:
   EMIN   =  10.00;   EMAX   =-10.00  energy-range for DOS
   EFERMI =   0.00
   ISMEAR =     0;   SIGMA  =   0.05  broadening in eV -4-tet -1-fermi 0-gaus

 Electronic relaxation 2 (details)
   IALGO  =     38    algorithm
   LDIAG  =      T    sub-space diagonalisation (order eigenvalues)
   LSUBROT=      F    optimize rotation matrix (better conditioning)
   TURBO    =      0    0=normal 1=particle mesh
   IRESTART =      0    0=no restart 2=restart with 2 vectors
   NREBOOT  =      0    no. of reboots
   NMIN     =      0    reboot dimension
   EREF     =   0.00    reference energy to select bands
   IMIX   =      4    mixing-type and parameters
     AMIX     =   0.40;   BMIX     =  0.01
     AMIX_MAG =   1.60;   BMIX_MAG =  0.01
     AMIN     =   0.01
     WC   =   100.;   INIMIX=   1;  MIXPRE=   1;  MAXMIX= -45

 Intra band minimization:
   WEIMIN = 0.0000     energy-eigenvalue tresh-hold
   EBREAK =  0.34E-07  absolut break condition
   DEPER  =   0.30     relativ break condition  

   TIME   =   0.40     timestep for ELM

  volume/ion in A,a.u.               =      62.72       423.28
  Fermi-wavevector in a.u.,A,eV,Ry     =   0.624944  1.180972  5.313816  0.390554
  Thomas-Fermi vector in A             =   1.685677
 
 Write flags
   LWAVE        =      F    write WAVECAR
   LDOWNSAMPLE  =      F    k-point downsampling of WAVECAR
   LCHARG       =      T    write CHGCAR
   LVTOT        =      T    write LOCPOT, total local potential
   LVHAR        =      F    write LOCPOT, Hartree potential only
   LELF         =      F    write electronic localiz. function (ELF)
   LORBIT       =      0    0 simple, 1 ext, 2 COOP (PROOUT), +10 PAW based schemes


 Dipole corrections
   LMONO  =      F    monopole corrections only (constant potential shift)
   LDIPOL =      T    correct potential (dipole corrections)
   IDIPOL =      3    1-x, 2-y, 3-z, 4-all directions 
   EPSILON=  1.0000000 bulk dielectric constant

 Exchange correlation treatment:
   GGA     =    --    GGA type
   LEXCH   =     8    internal setting for exchange type
   VOSKOWN=      0    Vosko Wilk Nusair interpolation
   LHFCALC =     F    Hartree Fock is set to
   LHFONE  =     F    Hartree Fock one center treatment
   AEXX    =    0.0000 exact exchange contribution

 Linear response parameters
   LEPSILON=     F    determine dielectric tensor
   LRPA    =     F    only Hartree local field effects (RPA)
   LNABLA  =     F    use nabla operator in PAW spheres
   LVEL    =     F    velocity operator in full k-point grid
   LINTERFAST=   F  fast interpolation
   KINTER  =     0    interpolate to denser k-point grid
   CSHIFT  =0.1000    complex shift for real part using Kramers Kronig
   OMEGAMAX=  -1.0    maximum frequency
   DEG_THRESHOLD= 0.2000000E-02 threshold for treating states as degnerate
   RTIME   =   -0.100 relaxation time in fs
  (WPLASMAI=    0.000 imaginary part of plasma frequency in eV, 0.658/RTIME)
   DFIELD  = 0.0000000 0.0000000 0.0000000 field for delta impulse in time
 
 Orbital magnetization related:
   ORBITALMAG=     F  switch on orbital magnetization
   LCHIMAG   =     F  perturbation theory with respect to B field
   DQ        =  0.001000  dq finite difference perturbation B field
   LLRAUG    =     F  two centre corrections for induced B field



--------------------------------------------------------------------------------------------------------


 Static calculation
 charge density and potential will be updated during run
 non-spin polarized calculation
 Variant of blocked Davidson
 Davidson routine will perform the subspace rotation
 perform sub-space diagonalisation
    after iterative eigenvector-optimisation
 modified Broyden-mixing scheme, WC =      100.0
 initial mixing is a Kerker type mixing with AMIX =  0.4000 and BMIX =      0.0100
 Hartree-type preconditioning will be used
 using additional bands           165
 real space projection scheme for non local part
[...]
     13.54561      0.00000     45.35368        -0.000609      0.001413      0.009716
     13.54315      9.03140     45.35368         0.008752     -0.003220      0.022416
     14.05440     10.08858     32.78863         0.398886      0.373980     -0.185406
     13.10537      8.64470     33.00452         0.070627     -0.304288     -0.020735
     15.66836      9.15345     34.17233         0.103590     -0.302203     -0.048079
     15.35972      8.73064     35.84160        -0.085881     -0.281696     -0.107917
     13.33325     11.58489     35.30188         0.360956     -0.508881     -0.168854
     14.38357     10.66996     36.41318         0.173463      0.195912     -0.125716
     11.83843      9.69545     35.70478        -0.432658      0.885470      0.073283
     12.13825      8.12844     35.09075         0.106264     -0.185551     -0.259547
     11.08353      9.88055     33.66884         0.309882      0.134494      0.008344
     12.09610     11.33589     33.86697        -0.276936      0.686720      0.040003
     11.10225     11.79508     31.82010         0.275839     -0.691800     -0.251792
     12.54956     10.96119     31.22770         0.046421     -0.091643     -0.161174
     14.99062      7.03475     33.31709         0.030233     -0.048623      0.206587
     13.67496      6.83611     34.46694         0.138542      0.133673      0.074028
     15.30619      6.46968     35.00839        -0.186954      0.418944     -0.312462
     15.44057     12.48642     34.94550         0.258158     -0.069718     -0.052921
     15.34939     11.41728     33.53853        -0.030191      0.009709      0.456126
     16.33177     10.90617     34.97093        -0.055409      0.252745     -0.098764
     13.69861      9.18805     37.46613         0.631401      0.706614      0.518522
     13.50934      7.52959     36.98516         0.234498     -0.467152     -0.014979
     12.14966      8.44584     37.60641        -0.544796     -0.174613      0.533881
      9.77327      9.66988     31.72023        -0.331046      0.160135      0.237086
     10.45597     10.07906     30.15433        -0.140029      0.027609     -0.358536
     12.86771      8.95482     29.71135        -0.099178      0.051870     -0.020354
      9.90364      7.51761     32.51495         0.206598      0.012612     -0.038733
     14.05515      6.79694     29.85985         0.620827     -0.140057     -0.446750
     11.16639      5.32423     32.66988        -0.123297      0.081850      0.039950
     13.23830      4.97127     31.36334        -0.082057      0.011782      0.050168
      0.34523      4.33119     34.82381         0.236191     -0.743139     -0.378177
      0.12148     13.46289     34.80005         0.047701      0.334235     -0.901772
      8.76487      4.20450     34.65865        -0.924971     -0.075991     -0.006449
      9.18558     13.95269     34.86172         0.237542      0.250388     -0.131267
      4.32692      9.22556     34.87313         0.114256      0.548655     -0.472153
      4.30628      0.20334     34.83480         0.382387      0.484451     -0.514127
     13.80951     17.82504     34.97495        -0.082226     -0.605348     -0.390281
      0.07195      4.44648     40.71028        -0.518361      0.554138      0.336705
      0.21789     13.81923     40.78734        -0.485499      0.672452     -0.366763
      8.80709      4.26853     40.69196         0.091211      0.561373      0.672821
      8.92849     13.62846     40.67600         0.281240     -0.277792     -0.205085
      4.56179      9.05884     40.61308        -0.475432     -0.230033     -0.162540
      4.54116     17.98892     40.61052        -0.055028      0.009805     -0.031192
     13.74033      9.00757     40.72856        -0.160948     -0.127961     -0.164500
     13.57235     18.02656     40.56602         0.421789      0.247866     -0.077635
      9.02897      4.51561     46.44552         0.007950      0.008554      0.030299
      9.02651     13.54701     46.44552         0.004897      0.008211      0.051929
     18.05937      4.51561     46.44552        -0.002765      0.019200      0.052338
     18.05691     13.54701     46.44552         0.030484     -0.009815      0.053841
      4.51521      0.00002     46.44421        -0.000145     -0.002574      0.065630
      4.51275      9.03142     46.44421         0.008051      0.009475      0.051331
     13.54561      0.00002     46.44421         0.008637      0.008921      0.050674
     13.54315      9.03142     46.44421        -0.022784     -0.026661      0.056311
     11.31967      8.36716     31.11034        -0.260933      0.425459      0.158059
     12.46238      8.15964     30.33988         0.664327     -0.858166      0.050012
     10.81799      7.35149     31.93104         0.368986     -0.705476     -0.038525
     13.15552      6.93762     30.42018        -1.047748     -0.165535      0.857263
     11.50684      6.12381     32.01035         0.096521      0.057479     -0.057493
     12.68200      5.90585     31.27664         0.024407      0.919194     -0.491897
     13.26563      9.65313     33.38194        -1.497822     -0.251731     -0.057666
     14.95117      8.64249     34.82130         0.282596     -0.906500     -0.097362
     14.18399     10.86481     35.34821        -0.197377      0.055803      0.033914
     12.60099      8.94837     35.64202         0.587086     -0.327135     -0.314454
     11.93917     10.45361     33.25917         0.878859     -0.844350     -0.045336
     11.62792     10.79716     31.79869        -0.848532      0.752230      0.574824
     14.71891      7.17010     34.37665         0.211620      0.622724      0.214497
     15.41877     11.42832     34.64729        -0.293903      0.050653      0.148329
     13.03294      8.49815     36.99944        -0.126137     -0.205533     -0.443079
     10.70290      9.73438     31.15977         0.378311      0.360282     -0.293433
      0.71264      3.28575     35.54021        -0.502996      1.402034     -0.894518
      0.62125     12.39799     35.36955         0.322090     -0.494366     -0.541655
      9.96826      4.08365     35.15548         0.168557     -0.100701     -0.442676
      9.43157     12.85293     35.51770         0.231521     -0.672845     -0.160455
      7.79345      4.91958     35.20279         0.418765     -0.263806     -0.458742
      8.42941     14.92241     35.29383        -0.338856      0.336845      0.022261
     17.83323      5.41283     35.27949         0.073093      0.002225     -0.412982
     17.59691     14.45863     35.42460        -0.016898     -0.317314     -0.443774
      3.93558      8.12582     35.45650         0.561041      0.014501      0.986690
      3.34138     17.57157     35.37367         0.256167     -0.596960      0.972738
     12.77345     17.15959     35.43295         0.199054      1.559536      0.953626
      5.47806      0.46950     35.36718        -1.386646     -1.007733      1.197168
      5.15109     10.12422     35.36198        -0.225506     -1.755390      1.343685
     14.42806      0.74774     35.57159        -0.820733      0.154298      1.081134
      0.93704      3.55137     41.10415         0.717633     -0.727612     -0.577693
      0.92024     12.93117     41.42002         0.487788     -0.861025      0.722178
      9.83810      3.66174     41.24594         0.210711     -0.257745     -0.008800
      9.70858     12.86393     41.42040        -1.281820      1.246287      0.184222
      3.82384      8.10473     41.15607         0.503046      0.495968      0.050632
      3.70302     17.16018     41.20422         0.693393      0.846364      0.684388
     12.92113      8.37016     41.52931        -0.424708     -0.699070     -0.377376
     12.65410     17.29363     41.15859         0.632430      0.670146      0.466738
      8.08700      5.22613     41.26163         0.270248     -0.705476     -0.911002
      8.03755     14.49393     41.10111         0.248360     -0.239745     -1.022771
     17.37645      5.19807     41.49918         0.931778     -0.950475     -0.705399
     17.25316     14.48025     41.26408        -0.306256      0.053668      0.446374
      5.33683      0.80088     41.19902        -0.336914     -0.355827     -0.324829
      5.31009      9.93783     41.24758        -0.499865     -0.830042      0.423794
     14.42302      0.79465     41.15083        -0.434753     -0.366661     -0.155839
     14.48028     10.04100     41.02695         0.009385      0.135841      0.338621
      0.82731      3.68697     47.03596         0.028031     -0.033443     -0.094378
      0.82485     12.71837     47.03596         0.002928     -0.013096     -0.094294
      9.85771      3.68697     47.03596         0.021591     -0.029520     -0.087940
      9.85525     12.71837     47.03596         0.028577     -0.020401     -0.097988
      3.68432      8.20234     47.03465        -0.016182     -0.015304     -0.071180
      3.68186     17.23373     47.03465        -0.010707     -0.003818     -0.079254
     12.71472      8.20234     47.03465         0.004401      0.005508     -0.086684
     12.71226     17.23373     47.03465        -0.014372     -0.018519     -0.074184
      8.20068      5.34457     47.03603        -0.021014      0.013404     -0.092325
      8.19822     14.37597     47.03603        -0.012500      0.016247     -0.100291
     17.23108      5.34457     47.03603        -0.006135      0.007112     -0.093118
     17.22862     14.37597     47.03603        -0.030379      0.022950     -0.093910
      5.34365      0.82909     47.03465         0.006395      0.006975     -0.072291
      5.34119      9.86049     47.03465         0.004008      0.005599     -0.077822
     14.37405      0.82909     47.03465         0.007757      0.001515     -0.078739
     14.37159      9.86049     47.03465         0.023122      0.029428     -0.076090
     13.74384      9.51640     34.79556        -0.621521      0.208864      0.027989
      8.85206      0.28331     34.46812         0.123917      0.058832     -0.009313
      8.51101      9.32796     34.88662         0.205301     -0.080768     -0.235013
     -0.00075     17.95226     34.45750        -0.159467      0.040798     -0.019723
      0.59790      8.82571     34.46476        -0.115973      0.019118      0.008400
      4.33451      4.41136     34.49426        -0.061888     -0.024128     -0.031097
      4.57039     13.53504     34.55207         0.012962      0.068772     -0.062657
     13.55917      3.89878     34.73448        -0.082263     -0.049719     -0.142319
     13.06768     14.12640     34.18892        -0.123084     -0.137524      0.079796
      0.02985     18.01595     40.89400         0.033071     -0.016728      0.009331
      0.19392      9.08373     40.90466         0.021337     -0.008056      0.053709
      8.95360     18.04414     40.82580         0.044167      0.020448      0.194674
      9.16613      8.78608     41.01819        -0.036227      0.039511     -0.077475
      4.54654      4.45516     40.84156        -0.014479      0.008436      0.220333
      4.51337     13.60076     40.93324        -0.042368     -0.017532     -0.079111
     13.37160      4.58913     40.94565         0.024430      0.025741      0.009877
     13.63947     13.69222     40.84641        -0.016470     -0.005803     -0.010579
      2.59970      1.90622     38.10203        -0.069278     -0.079024      0.081323
      2.62865     10.99126     37.91271        -0.032094     -0.122575      0.140741
     11.69020      1.85020     37.99506         0.037029      0.009022      0.033373
     11.17557     11.44026     38.38545         0.139134     -0.095230     -0.157969
      6.33892      7.08604     37.93111         0.067837      0.027349      0.085880
      6.44163     16.10379     37.92136         0.030015      0.039838      0.135095
     16.05755      6.58411     38.38831        -0.160960      0.171489     -0.235589
     15.54253     16.15536     37.88752        -0.047258     -0.137253      0.096777
      2.01381      6.44848     38.08734         0.029618      0.021993      0.033739
      1.96024     15.50893     37.89779         0.030211      0.059163      0.083337
     10.44255      5.95661     38.06778         0.158720      0.125457     -0.082723
     11.02603     15.58484     38.06395         0.058651     -0.039170      0.096445
      6.92858      2.41319     38.01480         0.037326     -0.009412     -0.017522
      6.94462     11.49059     38.21946         0.057197      0.029857      0.033055
     16.08996      2.53832     38.23742        -0.015725     -0.008626     -0.036925
     16.52966     11.83645     38.42546        -0.255961     -0.079778     -0.321563
      0.00000      0.00000     47.17356        -0.000222      0.000743      0.377674
     -0.00246      9.03140     47.17356        -0.001705      0.004969      0.404893
      9.03040      0.00000     47.17356         0.000946     -0.002984      0.376448
      9.02794      9.03140     47.17356         0.003097      0.002471      0.580920
      4.51398      4.51570     47.17425        -0.003429     -0.005002      0.401327
      4.51152     13.54710     47.17425         0.000309      0.003484      0.523389
     13.54438      4.51570     47.17425         0.001809     -0.003653      0.497347
     13.54192     13.54710     47.17425         0.001358      0.000821      0.307317
      2.45192      2.06295     44.04013         0.007849     -0.042877     -0.006212
      2.44946     11.09435     44.04013         0.032765     -0.034367      0.068355
     11.48232      2.06295     44.04013         0.030311     -0.058196     -0.001833
     11.47986     11.09435     44.04013         0.102463      0.003170     -0.013008
      6.57602      6.96845     44.04013        -0.067004      0.025112      0.023391
      6.57356     15.99985     44.04013        -0.004102      0.039660      0.028247
     15.60642      6.96845     44.04013        -0.006367      0.045565      0.043386
     15.60396     15.99985     44.04013        -0.048496      0.024741      0.052072
      2.06108      6.57881     44.04000         0.019853     -0.017728      0.000656
      2.05862     15.61021     44.04000        -0.018914      0.043036      0.051214
     11.09148      6.57881     44.04000        -0.031535     -0.079376      0.075818
     11.08902     15.61021     44.04000         0.002415     -0.013237     -0.014938
      6.96686      2.45259     44.04007        -0.011749     -0.027549      0.019855
      6.96440     11.48399     44.04007         0.029752      0.032678      0.009897
     15.99726      2.45259     44.04007         0.022943     -0.018866     -0.022220
     15.99481     11.48399     44.04007        -0.018868      0.063245     -0.041616
      2.43163      2.08322     50.06849         0.003091     -0.017416      0.020615
      2.42917     11.11462     50.06849        -0.000920     -0.017987      0.022053
     11.46203      2.08322     50.06849         0.002352     -0.021043      0.023097
     11.45957     11.11462     50.06849         0.035389      0.015853      0.021599
      6.59631      6.94818     50.06849        -0.024161     -0.003640      0.024156
      6.59385     15.97958     50.06849         0.001250      0.021624      0.021392
     15.62671      6.94818     50.06849        -0.002517      0.017157      0.023164
     15.62425     15.97958     50.06849        -0.015179      0.005142      0.019845
      2.08113      6.59901     50.06905        -0.013537     -0.008732      0.023058
      2.07867     15.63041     50.06905        -0.024771      0.004075      0.021295
     11.11153      6.59901     50.06905        -0.000363     -0.017532      0.023992
     11.10907     15.63041     50.06905        -0.001139     -0.018152      0.020918
      6.94681      2.43239     50.06905         0.012851      0.004918      0.022878
      6.94435     11.46379     50.06905         0.004455      0.016612      0.023923
     15.97721      2.43239     50.06905         0.021728     -0.003029      0.022238
     15.97475     11.46379     50.06905         0.000901      0.020721      0.020830
     18.02503      0.02834     37.77149         0.007661     -0.021999     -0.041820
      0.12277      9.04731     37.78153        -0.024473      0.006847      0.055793
      9.05855      0.09909     37.65753        -0.063226      0.058694     -0.035811
      8.94847      8.96031     37.87527        -0.022216     -0.013706      0.004281
      4.42784      4.47238     37.65712         0.096769     -0.069611     -0.034168
      4.48678     13.52246     37.60172         0.020954     -0.012997      0.047029
     13.48383      4.49089     37.76252        -0.027423     -0.007707      0.075827
     13.49691     13.66711     37.71917        -0.113167      0.002901      0.010929
      0.00001      0.00001     44.04300        -0.007180     -0.035037      0.114400
     -0.00245      9.03141     44.04300         0.029008     -0.078897      0.024268
      9.03041      0.00001     44.04300        -0.034065      0.057665     -0.065408
      9.02795      9.03141     44.04300        -0.040605     -0.011094      0.160647
      4.51397      4.51569     44.04275         0.052979      0.027746     -0.057201
      4.51151     13.54709     44.04275        -0.029361     -0.018689      0.000337
     13.54437      4.51569     44.04275         0.021593      0.057775      0.085376
     13.54191     13.54709     44.04275        -0.049145      0.046636      0.068054
      0.00000      0.00000     50.44728         0.008491      0.005560     -0.617320
     -0.00246      9.03140     50.44728         0.008258     -0.006781     -0.626086
      9.03040      0.00000     50.44728        -0.008154      0.007617     -0.619493
      9.02794      9.03140     50.44728        -0.008857     -0.006467     -0.672981
      4.51397      4.51570     50.44728         0.010894      0.013710     -0.627297
      4.51151     13.54710     50.44728         0.011660     -0.012453     -0.659280
     13.54437      4.51570     50.44728        -0.012677      0.012197     -0.653273
     13.54191     13.54710     50.44728        -0.010075     -0.013651     -0.596726
 -----------------------------------------------------------------------------------
    total drift:                                0.020121      0.024202      0.808248


--------------------------------------------------------------------------------------------------------



  FREE ENERGIE OF THE ION-ELECTRON SYSTEM (eV)
  ---------------------------------------------------
  free  energy   TOTEN  =     -1573.32474782 eV

  energy  without entropy=    -1573.32474782  energy(sigma->0) =    -1573.32474782
 


--------------------------------------------------------------------------------------------------------


    POTLOK:  cpu time    0.5055: real time    0.5054


--------------------------------------------------------------------------------------------------------


     LOOP+:  cpu time  302.5832: real time  303.3503
 vacuum level on the upper side and lower side of the slab         2.299         1.617
    4ORBIT:  cpu time    0.0000: real time    0.0000

 total amount of memory used by VASP MPI-rank0  8653587. kBytes
=======================================================================

   base      :      30000. kBytes
   nonlr-proj:      53625. kBytes
   fftplans  :     249280. kBytes
   grid      :     701440. kBytes
   one-center:       2636. kBytes
   wavefun   :    7616606. kBytes
 
  
  
 General timing and accounting informations for this job:
 ========================================================
  
                  Total CPU time used (sec):      516.072
                            User time (sec):      417.865
                          System time (sec):       98.207
                         Elapsed time (sec):      518.990
  
                   Maximum memory used (kb):    10311936.
                   Average memory used (kb):          N/A
  
                          Minor page faults:      3738155
                          Major page faults:           12
                 Voluntary context switches:        11286
