<?xml version="1.0" encoding="ISO-8859-1"?>
<modeling>
 <generator>
  <i name="program" type="string">vasp </i>
  <i name="version" type="string">6.2.1  </i>
  <i name="subversion" type="string">16May21 (build Nov 15 2021 14:57:28) complex                          parallel </i>
  <i name="platform" type="string">LinuxPGI </i>
  <i name="date" type="string">2023 07 24 </i>
  <i name="time" type="string">22:23:56 </i>
 </generator>
 <incar>
  <i type="string" name="SYSTEM">PSC</i>
  <i type="int" name="ISTART">     1</i>
  <i type="string" name="PREC">Normal</i>
  <i name="BMIX">      0.01000000</i>
  <i name="AMIN">      0.01000000</i>
  <i type="int" name="ICHARG">     1</i>
  <i type="int" name="NELM">   600</i>
  <i type="int" name="ISYM">     0</i>
  <i name="ENCUT">    500.00000000</i>
  <i type="string" name="LREAL">Auto</i>
  <i type="int" name="ISMEAR">     0</i>
  <i name="SIGMA">      0.05000000</i>
  <i type="logical" name="LWAVE"> F  </i>
  <i type="logical" name="LVTOT"> T  </i>
  <i type="logical" name="GGA_COMPAT"> F  </i>
  <i type="logical" name="LDIPOL"> T  </i>
  <i type="int" name="IDIPOL">     3</i>
  <i type="int" name="IVDW">    12</i>
 </incar>
 <primitive_cell>
  <structure name="primitive_cell" >
   <crystal>
    <varray name="basis" >
     <v>      18.06080055       0.00000000       0.00000000 </v>
     <v>      -0.00491865      18.06279945       0.00000000 </v>
     <v>       0.00000000       0.00000000      62.48749924 </v>
    </varray>
    <i name="volume">  20385.21054034 </i>
    <varray name="rec_basis" >
     <v>       0.05536853       0.00001508      -0.00000000 </v>
     <v>       0.00000000       0.05536240       0.00000000 </v>
     <v>       0.00000000      -0.00000000       0.01600320 </v>
    </varray>
   </crystal>
   <varray name="positions" >
    <v>       0.43965560       0.30031558       0.57723771 </v>
    <v>       0.44007400       0.82568025       0.57929421 </v>
    <v>       0.98019241       0.30622810       0.58046156 </v>
    <v>       0.97010724       0.79907042       0.58305381 </v>
    <v>       0.31572769       0.00620544       0.58112539 </v>
    <v>       0.30927692       0.55383951       0.58085080 </v>
    <v>       0.77791586       0.06428438       0.58322707 </v>
    <v>       0.06047315       0.13762600       0.56135672 </v>
    <v>       0.05857014       0.64533639       0.55677347 </v>
    <v>       0.59215352       0.19595669       0.55505462 </v>
    <v>       0.55281802       0.67088610       0.56156465 </v>
    <v>       0.34169352       0.05419096       0.55811236 </v>
    <v>       0.29939848       0.60513422       0.55762233 </v>
    <v>       0.83950328       0.06970722       0.56205865 </v>
    <v>       0.03367725       0.18066247       0.58455924 </v>
    <v>       0.03202433       0.67680134       0.58211735 </v>
    <v>       0.56707234       0.25539355       0.57597122 </v>
    <v>       0.49999276       0.69682577       0.58263216 </v>
    <v>       0.23505378       0.43578432       0.58268319 </v>
    <v>       0.18906869       0.94839547       0.58109547 </v>
    <v>       0.68504504       0.96344342       0.58173897 </v>
    <v>       0.37863894       0.27076732       0.55712895 </v>
    <v>       0.46314617       0.87534214       0.55665541 </v>
    <v>       0.97995386       0.34583525       0.55527097 </v>
    <v>       0.95740938       0.84645805       0.55863029 </v>
    <v>       0.18086524       0.41633906       0.56041971 </v>
    <v>       0.13569921       0.96644439       0.55853157 </v>
    <v>       0.68878968       0.90480515       0.55913820 </v>
    <v>       0.47009753       0.20189724       0.54017097 </v>
    <v>       0.53701488       0.77968627       0.54257843 </v>
    <v>       0.02938111       0.23402180       0.54016004 </v>
    <v>       0.01128038       0.74981101       0.53924158 </v>
    <v>       0.21759830       0.52165318       0.54217296 </v>
    <v>       0.22770886       0.03417227       0.54162420 </v>
    <v>       0.78736081       0.96822961       0.54447456 </v>
    <v>       0.45666334       0.30924502       0.67517972 </v>
    <v>       0.43455405       0.81230818       0.67328286 </v>
    <v>       0.96349046       0.28525799       0.68014281 </v>
    <v>       0.93493911       0.79834071       0.67567445 </v>
    <v>       0.29802399       0.05172494       0.67537483 </v>
    <v>       0.30008722       0.55091246       0.67644865 </v>
    <v>       0.79952407       0.05299077       0.67458689 </v>
    <v>       0.80389137       0.57816520       0.67169514 </v>
    <v>       0.08247410       0.16652509       0.64661596 </v>
    <v>       0.09393975       0.68993150       0.65531686 </v>
    <v>       0.57176189       0.16256677       0.65148693 </v>
    <v>       0.57287713       0.67802118       0.65569823 </v>
    <v>       0.18126866       0.41447965       0.64910041 </v>
    <v>       0.17465386       0.91520266       0.65052733 </v>
    <v>       0.68693673       0.41813347       0.65858711 </v>
    <v>       0.66826301       0.92445988       0.64975801 </v>
    <v>       0.06414530       0.18271194       0.67333377 </v>
    <v>       0.04323316       0.69963778       0.67854044 </v>
    <v>       0.56644111       0.21150426       0.67517826 </v>
    <v>       0.53585876       0.71343382       0.67899244 </v>
    <v>       0.20955664       0.43971619       0.67473957 </v>
    <v>       0.19892868       0.94793016       0.67580827 </v>
    <v>       0.70647889       0.47664953       0.68022126 </v>
    <v>       0.69266985       0.95776038       0.67492167 </v>
    <v>       0.40470231       0.31142487       0.65196316 </v>
    <v>       0.41485934       0.83156229       0.64670473 </v>
    <v>       0.92810076       0.32353297       0.65687253 </v>
    <v>       0.92957170       0.83921331       0.65090619 </v>
    <v>       0.32892010       0.07715710       0.65020262 </v>
    <v>       0.32247850       0.58810474       0.65153809 </v>
    <v>       0.83615243       0.07246450       0.64946456 </v>
    <v>       0.83493039       0.57908399       0.64510956 </v>
    <v>       0.99558837       0.25689021       0.63442944 </v>
    <v>       0.02855536       0.78089022       0.63650628 </v>
    <v>       0.47230846       0.21953662       0.63499505 </v>
    <v>       0.50198677       0.74756658       0.63363894 </v>
    <v>       0.25434471       0.99361360       0.63243686 </v>
    <v>       0.24892897       0.50549677       0.63246311 </v>
    <v>       0.75835618       0.99338542       0.63181448 </v>
    <v>       0.76397505       0.47770406       0.63549863 </v>
    <v>       0.44874502       0.30128397       0.76888902 </v>
    <v>       0.44874501       0.80128391       0.76888902 </v>
    <v>       0.94874497       0.30128397       0.76888902 </v>
    <v>       0.94874501       0.80128391       0.76888902 </v>
    <v>       0.30127600       0.05129450       0.76887296 </v>
    <v>       0.30127601       0.55129450       0.76887296 </v>
    <v>       0.80127594       0.05129450       0.76887296 </v>
    <v>       0.80127598       0.55129450       0.76887296 </v>
    <v>       0.07877100       0.17118050       0.74344197 </v>
    <v>       0.07877101       0.67118045       0.74344197 </v>
    <v>       0.57877100       0.17118050       0.74344197 </v>
    <v>       0.57877099       0.67118045       0.74344197 </v>
    <v>       0.17119950       0.42117448       0.74342103 </v>
    <v>       0.17119950       0.92117451       0.74342103 </v>
    <v>       0.67119951       0.42117448       0.74342103 </v>
    <v>       0.67119950       0.92117451       0.74342103 </v>
    <v>       0.05125600       0.19871499       0.76888902 </v>
    <v>       0.05125600       0.69871493       0.76888902 </v>
    <v>       0.55125603       0.19871499       0.76888902 </v>
    <v>       0.55125602       0.69871493       0.76888902 </v>
    <v>       0.19872349       0.44870397       0.76887205 </v>
    <v>       0.19872349       0.94870397       0.76887205 </v>
    <v>       0.69872352       0.44870397       0.76887205 </v>
    <v>       0.69872351       0.94870397       0.76887205 </v>
    <v>       0.42123152       0.32881747       0.74344197 </v>
    <v>       0.42123151       0.82881744       0.74344197 </v>
    <v>       0.92123147       0.32881747       0.74344197 </v>
    <v>       0.92123151       0.82881744       0.74344197 </v>
    <v>       0.32880050       0.07882500       0.74342103 </v>
    <v>       0.32880049       0.57882496       0.74342103 </v>
    <v>       0.82880048       0.07882500       0.74342103 </v>
    <v>       0.82880052       0.57882496       0.74342103 </v>
    <v>       0.00000350       0.25000148       0.72582199 </v>
    <v>       0.00000350       0.75000145       0.72582199 </v>
    <v>       0.50000351       0.25000148       0.72582199 </v>
    <v>       0.50000350       0.75000145       0.72582199 </v>
    <v>       0.25000050       0.00000000       0.72580398 </v>
    <v>       0.25000052       0.50000000       0.72580398 </v>
    <v>       0.75000050       0.00000000       0.72580398 </v>
    <v>       0.75000049       0.50000000       0.72580398 </v>
    <v>       0.77832378       0.55852821       0.52472305 </v>
    <v>       0.72575530       0.47859164       0.52817797 </v>
    <v>       0.86767202       0.50675726       0.54686658 </v>
    <v>       0.85057694       0.48334903       0.57358030 </v>
    <v>       0.73841730       0.64136722       0.56494301 </v>
    <v>       0.79655779       0.59071469       0.58272745 </v>
    <v>       0.65562269       0.53676336       0.57139071 </v>
    <v>       0.67219938       0.45000971       0.56156435 </v>
    <v>       0.61382772       0.54701113       0.53880918 </v>
    <v>       0.66991409       0.62758190       0.54197998 </v>
    <v>       0.61489317       0.65300394       0.50922337 </v>
    <v>       0.69501595       0.60683768       0.49974314 </v>
    <v>       0.83011482       0.38946078       0.53318001 </v>
    <v>       0.75726563       0.37846336       0.55158133 </v>
    <v>       0.84757878       0.35817705       0.56024627 </v>
    <v>       0.85510973       0.69127816       0.55923985 </v>
    <v>       0.85004522       0.63208829       0.53672387 </v>
    <v>       0.90443044       0.60379173       0.55964679 </v>
    <v>       0.75861052       0.50867245       0.59957793 </v>
    <v>       0.74810580       0.41685637       0.59188102 </v>
    <v>       0.67283639       0.46758200       0.60182295 </v>
    <v>       0.54127738       0.53534806       0.50762515 </v>
    <v>       0.57908355       0.55800118       0.48256573 </v>
    <v>       0.71260128       0.49576061       0.47547663 </v>
    <v>       0.54846339       0.41619291       0.52034333 </v>
    <v>       0.77831539       0.37629509       0.47785321 </v>
    <v>       0.61834675       0.29476202       0.52282265 </v>
    <v>       0.73306025       0.27522130       0.50191377 </v>
    <v>       0.01917998       0.23978502       0.55729237 </v>
    <v>       0.00692921       0.74533794       0.55691223 </v>
    <v>       0.48536146       0.23277108       0.55464939 </v>
    <v>       0.50880225       0.77245463       0.55789906 </v>
    <v>       0.23971407       0.51074940       0.55808178 </v>
    <v>       0.23843553       0.01125760       0.55746837 </v>
    <v>       0.76488113       0.98683693       0.55971119 </v>
    <v>       0.00405099       0.24616800       0.65149481 </v>
    <v>       0.01227257       0.76506596       0.65272797 </v>
    <v>       0.48769993       0.23631584       0.65120154 </v>
    <v>       0.49456284       0.75450420       0.65094618 </v>
    <v>       0.25271598       0.50151936       0.64993926 </v>
    <v>       0.25170859       0.99591001       0.64989824 </v>
    <v>       0.76091769       0.49868064       0.65178735 </v>
    <v>       0.75175298       0.99799377       0.64918624 </v>
    <v>       0.49998898       0.24999498       0.74327702 </v>
    <v>       0.49998903       0.74999496       0.74327702 </v>
    <v>       0.99998898       0.24999498       0.74327702 </v>
    <v>       0.99998903       0.74999496       0.74327702 </v>
    <v>       0.25000050       0.00000100       0.74325596 </v>
    <v>       0.25000052       0.50000100       0.74325596 </v>
    <v>       0.75000050       0.00000100       0.74325596 </v>
    <v>       0.75000049       0.50000100       0.74325596 </v>
    <v>       0.62687975       0.46322624       0.49786502 </v>
    <v>       0.69014683       0.45173704       0.48553513 </v>
    <v>       0.59908692       0.40699608       0.51099887 </v>
    <v>       0.72850629       0.38408315       0.48682024 </v>
    <v>       0.63720931       0.33902902       0.51226805 </v>
    <v>       0.70227250       0.32696226       0.50052635 </v>
    <v>       0.73464403       0.53442035       0.53421787 </v>
    <v>       0.82795442       0.47846878       0.55725220 </v>
    <v>       0.78551069       0.60150211       0.56568449 </v>
    <v>       0.69783340       0.49540306       0.57038642 </v>
    <v>       0.66121218       0.57873690       0.53225319 </v>
    <v>       0.64398381       0.59775679       0.50888090 </v>
    <v>       0.81507249       0.39695420       0.55013646 </v>
    <v>       0.85388684       0.63269905       0.55446747 </v>
    <v>       0.72174266       0.47047827       0.59210952 </v>
    <v>       0.59275067       0.53891845       0.49865610 </v>
    <v>       0.03950720       0.18190675       0.56875719 </v>
    <v>       0.03458485       0.68638244       0.56602605 </v>
    <v>       0.55198969       0.22608066       0.56260014 </v>
    <v>       0.52240570       0.71156900       0.56839695 </v>
    <v>       0.43158626       0.27235988       0.56335737 </v>
    <v>       0.46694899       0.82614033       0.56481420 </v>
    <v>       0.98748131       0.29966706       0.56458473 </v>
    <v>       0.97453287       0.80046465       0.56690703 </v>
    <v>       0.21802977       0.44986473       0.56741757 </v>
    <v>       0.18527204       0.97280425       0.56609199 </v>
    <v>       0.70750601       0.94999613       0.56704054 </v>
    <v>       0.30331941       0.02599284       0.56598802 </v>
    <v>       0.28536110       0.56050105       0.56590481 </v>
    <v>       0.79887169       0.04139642       0.56925924 </v>
    <v>       0.05193594       0.19661252       0.65779795 </v>
    <v>       0.05114725       0.71590063       0.66285285 </v>
    <v>       0.54477628       0.20272296       0.66006714 </v>
    <v>       0.53774356       0.71217818       0.66285902 </v>
    <v>       0.21184283       0.44869721       0.65862893 </v>
    <v>       0.20528958       0.95002865       0.65939941 </v>
    <v>       0.71555036       0.46339197       0.66460192 </v>
    <v>       0.70089940       0.95741716       0.65866916 </v>
    <v>       0.44784416       0.28933096       0.66031817 </v>
    <v>       0.44524587       0.80241906       0.65774929 </v>
    <v>       0.96218667       0.28777773       0.66411977 </v>
    <v>       0.95550062       0.80166126       0.66035736 </v>
    <v>       0.29550479       0.04433854       0.65931614 </v>
    <v>       0.29416178       0.55018210       0.66009333 </v>
    <v>       0.79859354       0.04399392       0.65854505 </v>
    <v>       0.80190296       0.55589376       0.65656259 </v>
    <v>       0.04586250       0.20411950       0.75272599 </v>
    <v>       0.04586250       0.70411946       0.75272599 </v>
    <v>       0.54586251       0.20411950       0.75272599 </v>
    <v>       0.54586250       0.70411946       0.75272599 </v>
    <v>       0.20411900       0.45410100       0.75270499 </v>
    <v>       0.20411899       0.95410095       0.75270499 </v>
    <v>       0.70411898       0.45410100       0.75270499 </v>
    <v>       0.70411896       0.95410095       0.75270499 </v>
    <v>       0.45414002       0.29588849       0.75272697 </v>
    <v>       0.45414001       0.79588852       0.75272697 </v>
    <v>       0.95414002       0.29588849       0.75272697 </v>
    <v>       0.95414006       0.79588852       0.75272697 </v>
    <v>       0.29588249       0.04590050       0.75270499 </v>
    <v>       0.29588248       0.54590053       0.75270499 </v>
    <v>       0.79588244       0.04590050       0.75270499 </v>
    <v>       0.79588248       0.54590053       0.75270499 </v>
    <v>       0.76111957       0.52685054       0.55684032 </v>
    <v>       0.49013001       0.01568445       0.55160032 </v>
    <v>       0.47138277       0.51641829       0.55829764 </v>
    <v>       0.00022897       0.99388051       0.55143024 </v>
    <v>       0.03323789       0.48861238       0.55154653 </v>
    <v>       0.24006172       0.24422359       0.55201855 </v>
    <v>       0.25325995       0.74933256       0.55294366 </v>
    <v>       0.75081020       0.21584579       0.55586289 </v>
    <v>       0.72375131       0.78207141       0.54713214 </v>
    <v>       0.00192436       0.99740622       0.65443485 </v>
    <v>       0.01087417       0.50289712       0.65460554 </v>
    <v>       0.49601976       0.99896705       0.65334351 </v>
    <v>       0.50764779       0.48641869       0.65642231 </v>
    <v>       0.25180238       0.24664845       0.65359563 </v>
    <v>       0.25010360       0.75297074       0.65506284 </v>
    <v>       0.74043532       0.25406553       0.65526143 </v>
    <v>       0.75540366       0.75803420       0.65367328 </v>
    <v>       0.14397057       0.10553302       0.60975440 </v>
    <v>       0.14571021       0.60850245       0.60672475 </v>
    <v>       0.64729699       0.10243139       0.60804251 </v>
    <v>       0.61894715       0.63336013       0.61429010 </v>
    <v>       0.35108377       0.39230026       0.60701912 </v>
    <v>       0.35690644       0.89154465       0.60686320 </v>
    <v>       0.88918204       0.36451217       0.61433577 </v>
    <v>       0.86081038       0.89439942       0.60632153 </v>
    <v>       0.11159870       0.35700355       0.60951931 </v>
    <v>       0.10876934       0.85861187       0.60648593 </v>
    <v>       0.57827871       0.32977218       0.60920638 </v>
    <v>       0.61073004       0.86281393       0.60914509 </v>
    <v>       0.38366167       0.13359994       0.60835856 </v>
    <v>       0.38468651       0.63614669       0.61163369 </v>
    <v>       0.89091552       0.14052733       0.61192110 </v>
    <v>       0.91540121       0.65529409       0.61493043 </v>
    <v>       0.00000000       0.00000000       0.75492797 </v>
    <v>       0.00000000       0.50000000       0.75492797 </v>
    <v>       0.50000000       0.00000000       0.75492797 </v>
    <v>       0.49999999       0.50000000       0.75492797 </v>
    <v>       0.25000050       0.25000000       0.75493902 </v>
    <v>       0.25000051       0.74999997       0.75493902 </v>
    <v>       0.75000047       0.25000000       0.75493902 </v>
    <v>       0.75000046       0.74999997       0.75493902 </v>
    <v>       0.13579050       0.11421000       0.70478299 </v>
    <v>       0.13579050       0.61420998       0.70478299 </v>
    <v>       0.63579045       0.11421000       0.70478299 </v>
    <v>       0.63579049       0.61420998       0.70478299 </v>
    <v>       0.36420952       0.38578999       0.70478299 </v>
    <v>       0.36420950       0.88578996       0.70478299 </v>
    <v>       0.86420954       0.38578999       0.70478299 </v>
    <v>       0.86420953       0.88578996       0.70478299 </v>
    <v>       0.11421799       0.36421899       0.70478098 </v>
    <v>       0.11421799       0.86421899       0.70478098 </v>
    <v>       0.61421800       0.36421899       0.70478098 </v>
    <v>       0.61421799       0.86421899       0.70478098 </v>
    <v>       0.38578201       0.13578149       0.70478202 </v>
    <v>       0.38578200       0.63578149       0.70478202 </v>
    <v>       0.88578199       0.13578149       0.70478202 </v>
    <v>       0.88578203       0.63578149       0.70478202 </v>
    <v>       0.13466700       0.11533200       0.80125603 </v>
    <v>       0.13466699       0.61533199       0.80125603 </v>
    <v>       0.63466699       0.11533200       0.80125603 </v>
    <v>       0.63466698       0.61533199       0.80125603 </v>
    <v>       0.36533300       0.38466799       0.80125603 </v>
    <v>       0.36533299       0.88466796       0.80125603 </v>
    <v>       0.86533295       0.38466799       0.80125603 </v>
    <v>       0.86533294       0.88466796       0.80125603 </v>
    <v>       0.11532850       0.36533700       0.80126500 </v>
    <v>       0.11532850       0.86533698       0.80126500 </v>
    <v>       0.61532850       0.36533700       0.80126500 </v>
    <v>       0.61532849       0.86533698       0.80126500 </v>
    <v>       0.38467151       0.13466300       0.80126500 </v>
    <v>       0.38467150       0.63466297       0.80126500 </v>
    <v>       0.88467149       0.13466300       0.80126500 </v>
    <v>       0.88467153       0.63466297       0.80126500 </v>
    <v>       0.99801991       0.00156909       0.60446477 </v>
    <v>       0.00693380       0.50088056       0.60462545 </v>
    <v>       0.50155999       0.00548595       0.60264098 </v>
    <v>       0.49559853       0.49606414       0.60612557 </v>
    <v>       0.24523060       0.24760193       0.60263439 </v>
    <v>       0.24863010       0.74863584       0.60174780 </v>
    <v>       0.74664749       0.24862665       0.60432119 </v>
    <v>       0.74751005       0.75664404       0.60362751 </v>
    <v>       0.00000050       0.00000050       0.70482896 </v>
    <v>       0.00000050       0.50000048       0.70482896 </v>
    <v>       0.50000048       0.00000050       0.70482896 </v>
    <v>       0.50000046       0.50000048       0.70482896 </v>
    <v>       0.24999999       0.24999947       0.70482499 </v>
    <v>       0.25000001       0.74999950       0.70482499 </v>
    <v>       0.74999999       0.24999947       0.70482499 </v>
    <v>       0.74999998       0.74999950       0.70482499 </v>
    <v>       0.00000000       0.00000000       0.80731797 </v>
    <v>       0.00000000       0.50000000       0.80731797 </v>
    <v>       0.50000000       0.00000000       0.80731797 </v>
    <v>       0.49999999       0.50000000       0.80731797 </v>
    <v>       0.24999999       0.25000000       0.80731797 </v>
    <v>       0.25000001       0.74999997       0.80731797 </v>
    <v>       0.74999999       0.25000000       0.80731797 </v>
    <v>       0.74999998       0.74999997       0.80731797 </v>
   </varray>
  </structure>
  <varray name="primitive_index" >
   <v type="int" >        1 </v>
   <v type="int" >        2 </v>
   <v type="int" >        3 </v>
   <v type="int" >        4 </v>
   <v type="int" >        5 </v>
   <v type="int" >        6 </v>
   <v type="int" >        7 </v>
   <v type="int" >        8 </v>
   <v type="int" >        9 </v>
   <v type="int" >       10 </v>
   <v type="int" >       11 </v>
   <v type="int" >       12 </v>
   <v type="int" >       13 </v>
   <v type="int" >       14 </v>
   <v type="int" >       15 </v>
   <v type="int" >       16 </v>
   <v type="int" >       17 </v>
   <v type="int" >       18 </v>
   <v type="int" >       19 </v>
   <v type="int" >       20 </v>
   <v type="int" >       21 </v>
   <v type="int" >       22 </v>
   <v type="int" >       23 </v>
   <v type="int" >       24 </v>
   <v type="int" >       25 </v>
   <v type="int" >       26 </v>
   <v type="int" >       27 </v>
   <v type="int" >       28 </v>
   <v type="int" >       29 </v>
   <v type="int" >       30 </v>
   <v type="int" >       31 </v>
   <v type="int" >       32 </v>
   <v type="int" >       33 </v>
   <v type="int" >       34 </v>
   <v type="int" >       35 </v>
   <v type="int" >       36 </v>
   <v type="int" >       37 </v>
   <v type="int" >       38 </v>
   <v type="int" >       39 </v>
   <v type="int" >       40 </v>
   <v type="int" >       41 </v>
   <v type="int" >       42 </v>
   <v type="int" >       43 </v>
   <v type="int" >       44 </v>
   <v type="int" >       45 </v>
   <v type="int" >       46 </v>
   <v type="int" >       47 </v>
   <v type="int" >       48 </v>
   <v type="int" >       49 </v>
   <v type="int" >       50 </v>
   <v type="int" >       51 </v>
   <v type="int" >       52 </v>
   <v type="int" >       53 </v>
   <v type="int" >       54 </v>
   <v type="int" >       55 </v>
   <v type="int" >       56 </v>
   <v type="int" >       57 </v>
   <v type="int" >       58 </v>
   <v type="int" >       59 </v>
   <v type="int" >       60 </v>
   <v type="int" >       61 </v>
   <v type="int" >       62 </v>
   <v type="int" >       63 </v>
   <v type="int" >       64 </v>
   <v type="int" >       65 </v>
   <v type="int" >       66 </v>
   <v type="int" >       67 </v>
   <v type="int" >       68 </v>
   <v type="int" >       69 </v>
   <v type="int" >       70 </v>
   <v type="int" >       71 </v>
   <v type="int" >       72 </v>
   <v type="int" >       73 </v>
   <v type="int" >       74 </v>
   <v type="int" >       75 </v>
   <v type="int" >       76 </v>
   <v type="int" >       77 </v>
   <v type="int" >       78 </v>
   <v type="int" >       79 </v>
   <v type="int" >       80 </v>
   <v type="int" >       81 </v>
   <v type="int" >       82 </v>
   <v type="int" >       83 </v>
   <v type="int" >       84 </v>
   <v type="int" >       85 </v>
   <v type="int" >       86 </v>
   <v type="int" >       87 </v>
   <v type="int" >       88 </v>
   <v type="int" >       89 </v>
   <v type="int" >       90 </v>
   <v type="int" >       91 </v>
   <v type="int" >       92 </v>
   <v type="int" >       93 </v>
   <v type="int" >       94 </v>
   <v type="int" >       95 </v>
   <v type="int" >       96 </v>
   <v type="int" >       97 </v>
   <v type="int" >       98 </v>
   <v type="int" >       99 </v>
   <v type="int" >      100 </v>
   <v type="int" >      101 </v>
   <v type="int" >      102 </v>
   <v type="int" >      103 </v>
   <v type="int" >      104 </v>
   <v type="int" >      105 </v>
   <v type="int" >      106 </v>
   <v type="int" >      107 </v>
   <v type="int" >      108 </v>
   <v type="int" >      109 </v>
   <v type="int" >      110 </v>
   <v type="int" >      111 </v>
   <v type="int" >      112 </v>
   <v type="int" >      113 </v>
   <v type="int" >      114 </v>
   <v type="int" >      115 </v>
   <v type="int" >      116 </v>
   <v type="int" >      117 </v>
   <v type="int" >      118 </v>
   <v type="int" >      119 </v>
   <v type="int" >      120 </v>
   <v type="int" >      121 </v>
   <v type="int" >      122 </v>
   <v type="int" >      123 </v>
   <v type="int" >      124 </v>
   <v type="int" >      125 </v>
   <v type="int" >      126 </v>
   <v type="int" >      127 </v>
   <v type="int" >      128 </v>
   <v type="int" >      129 </v>
   <v type="int" >      130 </v>
   <v type="int" >      131 </v>
   <v type="int" >      132 </v>
   <v type="int" >      133 </v>
   <v type="int" >      134 </v>
   <v type="int" >      135 </v>
   <v type="int" >      136 </v>
   <v type="int" >      137 </v>
   <v type="int" >      138 </v>
   <v type="int" >      139 </v>
   <v type="int" >      140 </v>
   <v type="int" >      141 </v>
   <v type="int" >      142 </v>
   <v type="int" >      143 </v>
   <v type="int" >      144 </v>
   <v type="int" >      145 </v>
   <v type="int" >      146 </v>
   <v type="int" >      147 </v>
   <v type="int" >      148 </v>
   <v type="int" >      149 </v>
   <v type="int" >      150 </v>
   <v type="int" >      151 </v>
   <v type="int" >      152 </v>
   <v type="int" >      153 </v>
   <v type="int" >      154 </v>
   <v type="int" >      155 </v>
   <v type="int" >      156 </v>
   <v type="int" >      157 </v>
   <v type="int" >      158 </v>
   <v type="int" >      159 </v>
   <v type="int" >      160 </v>
   <v type="int" >      161 </v>
   <v type="int" >      162 </v>
   <v type="int" >      163 </v>
   <v type="int" >      164 </v>
   <v type="int" >      165 </v>
   <v type="int" >      166 </v>
   <v type="int" >      167 </v>
   <v type="int" >      168 </v>
   <v type="int" >      169 </v>
   <v type="int" >      170 </v>
   <v type="int" >      171 </v>
   <v type="int" >      172 </v>
   <v type="int" >      173 </v>
   <v type="int" >      174 </v>
   <v type="int" >      175 </v>
   <v type="int" >      176 </v>
   <v type="int" >      177 </v>
   <v type="int" >      178 </v>
   <v type="int" >      179 </v>
   <v type="int" >      180 </v>
   <v type="int" >      181 </v>
   <v type="int" >      182 </v>
   <v type="int" >      183 </v>
   <v type="int" >      184 </v>
   <v type="int" >      185 </v>
   <v type="int" >      186 </v>
   <v type="int" >      187 </v>
   <v type="int" >      188 </v>
   <v type="int" >      189 </v>
   <v type="int" >      190 </v>
   <v type="int" >      191 </v>
   <v type="int" >      192 </v>
   <v type="int" >      193 </v>
   <v type="int" >      194 </v>
   <v type="int" >      195 </v>
   <v type="int" >      196 </v>
   <v type="int" >      197 </v>
   <v type="int" >      198 </v>
   <v type="int" >      199 </v>
   <v type="int" >      200 </v>
   <v type="int" >      201 </v>
   <v type="int" >      202 </v>
   <v type="int" >      203 </v>
   <v type="int" >      204 </v>
   <v type="int" >      205 </v>
   <v type="int" >      206 </v>
   <v type="int" >      207 </v>
   <v type="int" >      208 </v>
   <v type="int" >      209 </v>
   <v type="int" >      210 </v>
   <v type="int" >      211 </v>
   <v type="int" >      212 </v>
   <v type="int" >      213 </v>
   <v type="int" >      214 </v>
   <v type="int" >      215 </v>
   <v type="int" >      216 </v>
   <v type="int" >      217 </v>
   <v type="int" >      218 </v>
   <v type="int" >      219 </v>
   <v type="int" >      220 </v>
   <v type="int" >      221 </v>
   <v type="int" >      222 </v>
   <v type="int" >      223 </v>
   <v type="int" >      224 </v>
   <v type="int" >      225 </v>
   <v type="int" >      226 </v>
   <v type="int" >      227 </v>
   <v type="int" >      228 </v>
   <v type="int" >      229 </v>
   <v type="int" >      230 </v>
   <v type="int" >      231 </v>
   <v type="int" >      232 </v>
   <v type="int" >      233 </v>
   <v type="int" >      234 </v>
   <v type="int" >      235 </v>
   <v type="int" >      236 </v>
   <v type="int" >      237 </v>
   <v type="int" >      238 </v>
   <v type="int" >      239 </v>
   <v type="int" >      240 </v>
   <v type="int" >      241 </v>
   <v type="int" >      242 </v>
   <v type="int" >      243 </v>
   <v type="int" >      244 </v>
   <v type="int" >      245 </v>
   <v type="int" >      246 </v>
   <v type="int" >      247 </v>
   <v type="int" >      248 </v>
   <v type="int" >      249 </v>
   <v type="int" >      250 </v>
   <v type="int" >      251 </v>
   <v type="int" >      252 </v>
   <v type="int" >      253 </v>
   <v type="int" >      254 </v>
   <v type="int" >      255 </v>
   <v type="int" >      256 </v>
   <v type="int" >      257 </v>
   <v type="int" >      258 </v>
   <v type="int" >      259 </v>
   <v type="int" >      260 </v>
   <v type="int" >      261 </v>
   <v type="int" >      262 </v>
   <v type="int" >      263 </v>
   <v type="int" >      264 </v>
   <v type="int" >      265 </v>
   <v type="int" >      266 </v>
   <v type="int" >      267 </v>
   <v type="int" >      268 </v>
   <v type="int" >      269 </v>
   <v type="int" >      270 </v>
   <v type="int" >      271 </v>
   <v type="int" >      272 </v>
   <v type="int" >      273 </v>
   <v type="int" >      274 </v>
   <v type="int" >      275 </v>
   <v type="int" >      276 </v>
   <v type="int" >      277 </v>
   <v type="int" >      278 </v>
   <v type="int" >      279 </v>
   <v type="int" >      280 </v>
   <v type="int" >      281 </v>
   <v type="int" >      282 </v>
   <v type="int" >      283 </v>
   <v type="int" >      284 </v>
   <v type="int" >      285 </v>
   <v type="int" >      286 </v>
   <v type="int" >      287 </v>
   <v type="int" >      288 </v>
   <v type="int" >      289 </v>
   <v type="int" >      290 </v>
   <v type="int" >      291 </v>
   <v type="int" >      292 </v>
   <v type="int" >      293 </v>
   <v type="int" >      294 </v>
   <v type="int" >      295 </v>
   <v type="int" >      296 </v>
   <v type="int" >      297 </v>
   <v type="int" >      298 </v>
   <v type="int" >      299 </v>
   <v type="int" >      300 </v>
   <v type="int" >      301 </v>
   <v type="int" >      302 </v>
   <v type="int" >      303 </v>
   <v type="int" >      304 </v>
   <v type="int" >      305 </v>
   <v type="int" >      306 </v>
   <v type="int" >      307 </v>
   <v type="int" >      308 </v>
   <v type="int" >      309 </v>
   <v type="int" >      310 </v>
   <v type="int" >      311 </v>
   <v type="int" >      312 </v>
   <v type="int" >      313 </v>
   <v type="int" >      314 </v>
   <v type="int" >      315 </v>
   <v type="int" >      316 </v>
   <v type="int" >      317 </v>
   <v type="int" >      318 </v>
   <v type="int" >      319 </v>
   <v type="int" >      320 </v>
   <v type="int" >      321 </v>
   <v type="int" >      322 </v>
   <v type="int" >      323 </v>
   <v type="int" >      324 </v>
   <v type="int" >      325 </v>
  </varray>
 </primitive_cell>
 <kpoints>
  <generation param="Gamma">
   <v type="int" name="divisions">       3        3        1 </v>
   <v name="usershift">      0.00000000       0.00000000       0.00000000 </v>
   <v name="genvec1">      0.33333333       0.00000000       0.00000000 </v>
   <v name="genvec2">      0.00000000       0.33333333       0.00000000 </v>
   <v name="genvec3">      0.00000000       0.00000000       1.00000000 </v>
   <v name="shift">      0.00000000       0.00000000       0.00000000 </v>
  </generation>
  <varray name="kpointlist" >
   <v>       0.00000000       0.00000000       0.00000000 </v>
   <v>       0.33333333       0.00000000       0.00000000 </v>
   <v>       0.00000000       0.33333333       0.00000000 </v>
   <v>       0.33333333       0.33333333       0.00000000 </v>
   <v>      -0.33333333       0.33333333       0.00000000 </v>
  </varray>
  <varray name="weights" >
   <v>       0.11111111 </v>
   <v>       0.22222222 </v>
   <v>       0.22222222 </v>
   <v>       0.22222222 </v>
   <v>       0.22222222 </v>
  </varray>
 </kpoints>
 <parameters>
  <separator name="general" >
   <i type="string" name="SYSTEM">PSC</i>
   <i type="logical" name="LCOMPAT"> F  </i>
  </separator>
  <separator name="electronic" >
   <i type="string" name="PREC">normal</i>
   <i name="ENMAX">    500.00000000</i>
   <i name="ENAUG">    644.87300000</i>
   <i name="EDIFF">      0.00010000</i>
   <i type="int" name="IALGO">    38</i>
   <i type="int" name="IWAVPR">    10</i>
   <i type="int" name="NBANDS">   732</i>
   <i type="int" name="NBANDSLOW">    -1</i>
   <i type="int" name="NBANDSHIGH">    -1</i>
   <i name="NELECT">   1134.00000000</i>
   <i type="int" name="TURBO">     0</i>
   <i type="int" name="IRESTART">     0</i>
   <i type="int" name="NREBOOT">     0</i>
   <i type="int" name="NMIN">     0</i>
   <i name="EREF">      0.00000000</i>
   <separator name="electronic smearing" >
    <i type="int" name="ISMEAR">     0</i>
    <i name="SIGMA">      0.05000000</i>
    <i name="KSPACING">      0.50000000</i>
    <i type="logical" name="KGAMMA"> T  </i>
    <i type="logical" name="KBLOWUP"> T  </i>
   </separator>
   <separator name="electronic projectors" >
    <i type="logical" name="LREAL"> T  </i>
    <v name="ROPT">     -0.00050000     -0.00050000     -0.00050000     -0.00050000     -0.00050000</v>
    <i type="int" name="LMAXPAW">  -100</i>
    <i type="int" name="LMAXMIX">     2</i>
    <i type="logical" name="NLSPLINE"> F  </i>
   </separator>
   <separator name="electronic startup" >
    <i type="int" name="ISTART">     0</i>
    <i type="int" name="ICHARG">     1</i>
    <i type="int" name="INIWAV">     1</i>
   </separator>
   <separator name="electronic spin" >
    <i type="int" name="ISPIN">     1</i>
    <i type="logical" name="LNONCOLLINEAR"> F  </i>
    <v name="MAGMOM">      1.00000000      1.00000000      1.00000000      1.00000000      1.00000000      1.00000000      1.00000000      1.00000000      1.00000000      1.00000000      1.00000000      1.00000000      1.00000000      1.00000000      1.00000000      1.00000000      1.00000000      1.00000000      1.00000000      1.00000000
      1.00000000      1.00000000      1.00000000      1.00000000      1.00000000      1.00000000      1.00000000      1.00000000      1.00000000      1.00000000      1.00000000      1.00000000      1.00000000      1.00000000      1.00000000      1.00000000      1.00000000      1.00000000      1.00000000      1.00000000
      1.00000000      1.00000000      1.00000000      1.00000000      1.00000000      1.00000000      1.00000000      1.00000000      1.00000000      1.00000000      1.00000000      1.00000000      1.00000000      1.00000000      1.00000000      1.00000000      1.00000000      1.00000000      1.00000000      1.00000000
      1.00000000      1.00000000      1.00000000      1.00000000      1.00000000      1.00000000      1.00000000      1.00000000      1.00000000      1.00000000      1.00000000      1.00000000      1.00000000      1.00000000      1.00000000      1.00000000      1.00000000      1.00000000      1.00000000      1.00000000
      1.00000000      1.00000000      1.00000000      1.00000000      1.00000000      1.00000000      1.00000000      1.00000000      1.00000000      1.00000000      1.00000000      1.00000000      1.00000000      1.00000000      1.00000000      1.00000000      1.00000000      1.00000000      1.00000000      1.00000000
      1.00000000      1.00000000      1.00000000      1.00000000      1.00000000      1.00000000      1.00000000      1.00000000      1.00000000      1.00000000      1.00000000      1.00000000      1.00000000      1.00000000      1.00000000      1.00000000      1.00000000      1.00000000      1.00000000      1.00000000
      1.00000000      1.00000000      1.00000000      1.00000000      1.00000000      1.00000000      1.00000000      1.00000000      1.00000000      1.00000000      1.00000000      1.00000000      1.00000000      1.00000000      1.00000000      1.00000000      1.00000000      1.00000000      1.00000000      1.00000000
      1.00000000      1.00000000      1.00000000      1.00000000      1.00000000      1.00000000      1.00000000      1.00000000      1.00000000      1.00000000      1.00000000      1.00000000      1.00000000      1.00000000      1.00000000      1.00000000      1.00000000      1.00000000      1.00000000      1.00000000
      1.00000000      1.00000000      1.00000000      1.00000000      1.00000000      1.00000000      1.00000000      1.00000000      1.00000000      1.00000000      1.00000000      1.00000000      1.00000000      1.00000000      1.00000000      1.00000000      1.00000000      1.00000000      1.00000000      1.00000000
      1.00000000      1.00000000      1.00000000      1.00000000      1.00000000      1.00000000      1.00000000      1.00000000      1.00000000      1.00000000      1.00000000      1.00000000      1.00000000      1.00000000      1.00000000      1.00000000      1.00000000      1.00000000      1.00000000      1.00000000
      1.00000000      1.00000000      1.00000000      1.00000000      1.00000000      1.00000000      1.00000000      1.00000000      1.00000000      1.00000000      1.00000000      1.00000000      1.00000000      1.00000000      1.00000000      1.00000000      1.00000000      1.00000000      1.00000000      1.00000000
      1.00000000      1.00000000      1.00000000      1.00000000      1.00000000      1.00000000      1.00000000      1.00000000      1.00000000      1.00000000      1.00000000      1.00000000      1.00000000      1.00000000      1.00000000      1.00000000      1.00000000      1.00000000      1.00000000      1.00000000
      1.00000000      1.00000000      1.00000000      1.00000000      1.00000000      1.00000000      1.00000000      1.00000000      1.00000000      1.00000000      1.00000000      1.00000000      1.00000000      1.00000000      1.00000000      1.00000000      1.00000000      1.00000000      1.00000000      1.00000000
      1.00000000      1.00000000      1.00000000      1.00000000      1.00000000      1.00000000      1.00000000      1.00000000      1.00000000      1.00000000      1.00000000      1.00000000      1.00000000      1.00000000      1.00000000      1.00000000      1.00000000      1.00000000      1.00000000      1.00000000
      1.00000000      1.00000000      1.00000000      1.00000000      1.00000000      1.00000000      1.00000000      1.00000000      1.00000000      1.00000000      1.00000000      1.00000000      1.00000000      1.00000000      1.00000000      1.00000000      1.00000000      1.00000000      1.00000000      1.00000000
      1.00000000      1.00000000      1.00000000      1.00000000      1.00000000      1.00000000      1.00000000      1.00000000      1.00000000      1.00000000      1.00000000      1.00000000      1.00000000      1.00000000      1.00000000      1.00000000      1.00000000      1.00000000      1.00000000      1.00000000
      1.00000000      1.00000000      1.00000000      1.00000000      1.00000000</v>
    <i name="NUPDOWN">     -1.00000000</i>
    <i type="logical" name="LSORBIT"> F  </i>
    <v name="SAXIS">      0.00000000      0.00000000      1.00000000</v>
    <i type="logical" name="LSPIRAL"> F  </i>
    <v name="QSPIRAL">      0.00000000      0.00000000      0.00000000</v>
    <i type="logical" name="LZEROZ"> F  </i>
   </separator>
   <separator name="electronic exchange-correlation" >
    <i type="logical" name="LASPH"> F  </i>
    <i type="logical" name="LMETAGGA"> F  </i>
   </separator>
   <separator name="electronic convergence" >
    <i type="int" name="NELM">   600</i>
    <i type="int" name="NELMDL">     0</i>
    <i type="int" name="NELMIN">     2</i>
    <i name="ENINI">    500.00000000</i>
    <separator name="electronic convergence detail" >
     <i type="logical" name="LDIAG"> T  </i>
     <i type="logical" name="LSUBROT"> F  </i>
     <i name="WEIMIN">      0.00000000</i>
     <i name="EBREAK">      0.00000003</i>
     <i name="DEPER">      0.30000000</i>
     <i type="int" name="NRMM">     4</i>
     <i name="TIME">      0.40000000</i>
    </separator>
   </separator>
   <separator name="electronic mixer" >
    <i name="AMIX">      0.40000000</i>
    <i name="BMIX">      0.01000000</i>
    <i name="AMIN">      0.01000000</i>
    <i name="AMIX_MAG">      1.60000000</i>
    <i name="BMIX_MAG">      0.01000000</i>
    <separator name="electronic mixer details" >
     <i type="int" name="IMIX">     4</i>
     <i type="logical" name="MIXFIRST"> F  </i>
     <i type="int" name="MAXMIX">   -45</i>
     <i name="WC">    100.00000000</i>
     <i type="int" name="INIMIX">     1</i>
     <i type="int" name="MIXPRE">     1</i>
     <i type="int" name="MREMOVE">     5</i>
    </separator>
   </separator>
   <separator name="electronic dipolcorrection" >
    <i type="logical" name="LDIPOL"> T  </i>
    <i type="logical" name="LMONO"> F  </i>
    <i type="int" name="IDIPOL">     3</i>
    <i name="EPSILON">      1.00000000</i>
    <v name="DIPOL">   -100.00000000   -100.00000000   -100.00000000</v>
    <i name="EFIELD">      0.00000000</i>
   </separator>
  </separator>
  <separator name="grids" >
   <i type="int" name="NGX">   100</i>
   <i type="int" name="NGY">   100</i>
   <i type="int" name="NGZ">   350</i>
   <i type="int" name="NGXF">   200</i>
   <i type="int" name="NGYF">   200</i>
   <i type="int" name="NGZF">   700</i>
   <i type="logical" name="ADDGRID"> F  </i>
  </separator>
  <separator name="ionic" >
   <i type="int" name="NSW">     0</i>
   <i type="int" name="IBRION">    -1</i>
   <i type="int" name="MDALGO">     0</i>
   <i type="int" name="ISIF">     2</i>
   <i name="PSTRESS">      0.00000000</i>
   <i name="EDIFFG">      0.00100000</i>
   <i type="int" name="NFREE">     0</i>
   <i name="POTIM">      0.50000000</i>
   <i name="SMASS">     -3.00000000</i>
   <i name="SCALEE">      1.00000000</i>
  </separator>
  <separator name="ionic md" >
   <i name="TEBEG">      0.00010000</i>
   <i name="TEEND">      0.00010000</i>
   <i type="int" name="NBLOCK">     1</i>
   <i type="int" name="KBLOCK">     1</i>
   <i type="int" name="NPACO">   256</i>
   <i name="APACO">     16.00000000</i>
  </separator>
  <separator name="symmetry" >
   <i type="int" name="ISYM">     0</i>
   <i name="SYMPREC">      0.00001000</i>
  </separator>
  <separator name="dos" >
   <i type="int" name="LORBIT">     0</i>
   <v name="RWIGS">     -1.00000000     -1.00000000     -1.00000000     -1.00000000     -1.00000000</v>
   <i type="int" name="NEDOS">   301</i>
   <i name="EMIN">     10.00000000</i>
   <i name="EMAX">    -10.00000000</i>
   <i name="EFERMI">      0.00000000</i>
  </separator>
  <separator name="writing" >
   <i type="int" name="NWRITE">     2</i>
   <i type="logical" name="LWAVE"> F  </i>
   <i type="logical" name="LDOWNSAMPLE"> F  </i>
   <i type="logical" name="LCHARG"> T  </i>
   <i type="logical" name="LPARD"> F  </i>
   <i type="logical" name="LVTOT"> T  </i>
   <i type="logical" name="LVHAR"> F  </i>
   <i type="logical" name="LELF"> F  </i>
   <i type="logical" name="LOPTICS"> F  </i>
   <v name="STM">      0.00000000      0.00000000      0.00000000      0.00000000      0.00000000      0.00000000      0.00000000</v>
  </separator>
  <separator name="performance" >
   <i type="int" name="NPAR">     4</i>
   <i type="int" name="NSIM">     4</i>
   <i type="int" name="NBLK">    -1</i>
   <i type="logical" name="LPLANE"> T  </i>
   <i type="logical" name="LSCALAPACK"> T  </i>
   <i type="logical" name="LSCAAWARE"> F  </i>
   <i type="logical" name="LSCALU"> F  </i>
   <i type="logical" name="LASYNC"> F  </i>
   <i type="logical" name="LORBITALREAL"> F  </i>
  </separator>
  <separator name="miscellaneous" >
   <i type="int" name="IDIOT">     3</i>
   <i type="int" name="PHON_NSTRUCT">    -1</i>
   <i type="logical" name="LMUSIC"> F  </i>
   <v name="POMASS">      1.00000000     12.01100000     14.00100000    126.90400000    207.20000000</v>
   <v name="DARWINR">      0.00000000      0.00000000      0.00000000      0.00000000      0.00000000</v>
   <v name="DARWINV">      1.00000000      1.00000000      1.00000000      1.00000000      1.00000000</v>
   <i type="logical" name="LCORR"> T  </i>
  </separator>
  <i type="logical" name="GGA_COMPAT"> F  </i>
  <i type="logical" name="LBERRY"> F  </i>
  <i type="int" name="ICORELEVEL">     0</i>
  <i type="logical" name="LDAU"> F  </i>
  <i type="int" name="I_CONSTRAINED_M">     0</i>
  <separator name="electronic exchange-correlation" >
   <i type="string" name="GGA">--</i>
   <i type="int" name="VOSKOWN">     0</i>
   <i type="logical" name="LHFCALC"> F  </i>
   <i type="string" name="PRECFOCK"></i>
   <i type="logical" name="LSYMGRAD"> F  </i>
   <i type="logical" name="LHFONE"> F  </i>
   <i type="logical" name="LRHFCALC"> F  </i>
   <i type="logical" name="LTHOMAS"> F  </i>
   <i type="logical" name="LMODELHF"> F  </i>
   <i type="logical" name="LFOCKACE"> F  </i>
   <i name="ENCUT4O">     -1.00000000</i>
   <i type="int" name="EXXOEP">     0</i>
   <i type="int" name="FOURORBIT">     0</i>
   <i name="AEXX">      0.00000000</i>
   <i name="HFALPHA">      0.00000000</i>
   <i name="MCALPHA">      0.00000000</i>
   <i name="ALDAX">      1.00000000</i>
   <i name="AGGAX">      1.00000000</i>
   <i name="ALDAC">      1.00000000</i>
   <i name="AGGAC">      1.00000000</i>
   <i type="int" name="NKREDX">     1</i>
   <i type="int" name="NKREDY">     1</i>
   <i type="int" name="NKREDZ">     1</i>
   <i type="logical" name="SHIFTRED"> F  </i>
   <i type="logical" name="ODDONLY"> F  </i>
   <i type="logical" name="EVENONLY"> F  </i>
   <i type="int" name="LMAXFOCK">     0</i>
   <i type="int" name="NMAXFOCKAE">     0</i>
   <i type="logical" name="LFOCKAEDFT"> F  </i>
   <i name="HFSCREEN">      0.00000000</i>
   <i name="HFSCREENC">      0.00000000</i>
   <i type="int" name="NBANDSGWLOW">     0</i>
  </separator>
  <separator name="vdW DFT" >
   <i type="logical" name="LUSE_VDW"> F  </i>
   <i name="Zab_VDW">     -0.84910000</i>
   <i name="PARAM1">      0.12340000</i>
   <i name="PARAM2">      1.00000000</i>
   <i name="PARAM3">      0.00000000</i>
  </separator>
  <separator name="model GW" >
   <i type="int" name="MODEL_GW">     0</i>
   <i name="MODEL_EPS0">     37.63423484</i>
   <i name="MODEL_ALPHA">      1.00000000</i>
  </separator>
  <separator name="linear response parameters" >
   <i type="logical" name="LEPSILON"> F  </i>
   <i type="logical" name="LRPA"> F  </i>
   <i type="logical" name="LNABLA"> F  </i>
   <i type="logical" name="LVEL"> F  </i>
   <i type="int" name="KINTER">     0</i>
   <i name="CSHIFT">      0.10000000</i>
   <i name="OMEGAMAX">     -1.00000000</i>
   <i name="DEG_THRESHOLD">      0.00200000</i>
   <i name="RTIME">     -0.10000000</i>
   <i name="WPLASMAI">      0.00000000</i>
   <v name="DFIELD">      0.00000000      0.00000000      0.00000000</v>
   <v name="WPLASMA">      0.00000000      0.00000000      0.00000000      0.00000000      0.00000000      0.00000000      0.00000000      0.00000000      0.00000000</v>
  </separator>
  <separator name="orbital magnetization" >
   <i type="logical" name="NUCIND"> F  </i>
   <v name="MAGPOS">      0.00000000      0.00000000      0.00000000</v>
   <i type="logical" name="LNICSALL"> T  </i>
   <i type="logical" name="ORBITALMAG"> F  </i>
   <i type="logical" name="LMAGBLOCH"> F  </i>
   <i type="logical" name="LCHIMAG"> F  </i>
   <i type="logical" name="LGAUGE"> T  </i>
   <i type="int" name="MAGATOM">     0</i>
   <v name="MAGDIPOL">      0.00000000      0.00000000      0.00000000</v>
   <v name="AVECCONST">      0.00000000      0.00000000      0.00000000</v>
  </separator>
  <separator name="response functions" >
   <i type="logical" name="LFINITE_TEMPERATURE"> F  </i>
   <i type="logical" name="LADDER"> F  </i>
   <i type="logical" name="LRPAFORCE"> F  </i>
   <i type="logical" name="LFXC"> F  </i>
   <i type="logical" name="LHARTREE"> T  </i>
   <i type="int" name="IBSE">     0</i>
   <v type="int" name="KPOINT">    -1     0     0     0</v>
   <i type="logical" name="LTCTC"> F  </i>
   <i type="logical" name="LTCTE"> F  </i>
   <i type="logical" name="LTETE"> F  </i>
   <i type="logical" name="LTRIPLET"> F  </i>
   <i type="logical" name="LFXCEPS"> F  </i>
   <i type="logical" name="LFXHEG"> F  </i>
   <i type="int" name="NATURALO">     2</i>
   <i type="logical" name="LHOLEGF"> F  </i>
   <i type="logical" name="L2ORDER"> F  </i>
   <i type="logical" name="LDMP1"> F  </i>
   <i type="logical" name="LMP2LT"> F  </i>
   <i type="logical" name="LSMP2LT"> F  </i>
   <i type="logical" name="LGWLF"> F  </i>
   <i name="ENCUTGW">     -2.00000000</i>
   <i name="ENCUTGWSOFT">     -2.00000000</i>
   <i name="ENCUTLF">     -1.00000000</i>
   <i type="logical" name="LESF_SPLINES"> F  </i>
   <i type="int" name="LMAXMP2">    -1</i>
   <i name="SCISSOR">      0.00000000</i>
   <i type="int" name="NOMEGA">     0</i>
   <i type="int" name="NOMEGAR">     0</i>
   <i type="int" name="NBANDSGW">    -1</i>
   <i type="int" name="NBANDSO">    -1</i>
   <i type="int" name="NBANDSV">    -1</i>
   <i type="int" name="NELM">   600</i>
   <i type="int" name="NELMHF">     1</i>
   <i type="int" name="DIM">     3</i>
   <i type="int" name="IESPILON">     4</i>
   <i type="int" name="ANTIRES">     0</i>
   <i name="OMEGAMAX">    -30.00000000</i>
   <i name="OMEGAMIN">    -30.00000000</i>
   <i name="OMEGATL">   -200.00000000</i>
   <i type="int" name="OMEGAGRID">     0</i>
   <i name="CSHIFT">     -0.10000000</i>
   <i type="logical" name="LSELFENERGY"> F  </i>
   <i type="logical" name="LSPECTRAL"> F  </i>
   <i type="logical" name="LSPECTRALGW"> F  </i>
   <i type="logical" name="LSINGLES"> F  </i>
   <i type="logical" name="LFERMIGW"> F  </i>
   <i type="logical" name="ODDONLYGW"> F  </i>
   <i type="logical" name="EVENONLYGW"> F  </i>
   <i type="int" name="NKREDLFX">     1</i>
   <i type="int" name="NKREDLFY">     1</i>
   <i type="int" name="NKREDLFZ">     1</i>
   <i type="int" name="MAXMEM">  2800</i>
   <i type="int" name="TELESCOPE">     0</i>
   <i type="int" name="NTAUPAR">    -1</i>
   <i type="int" name="NOMEGAPAR">    -1</i>
   <i name="DAMP_NEWTON">      0.80000001</i>
   <i name="LAMBDA">      1.00000000</i>
  </separator>
  <separator name="External order field" >
   <i name="OFIELD_KAPPA">      0.00000000</i>
   <v name="OFIELD_K">      0.00000000      0.00000000      0.00000000</v>
   <i name="OFIELD_Q6_NEAR">      0.00000000</i>
   <i name="OFIELD_Q6_FAR">      0.00000000</i>
   <i name="OFIELD_A">      0.00000000</i>
  </separator>
 </parameters>
 <atominfo>
  <atoms>     325 </atoms>
  <types>       5 </types>
  <array name="atoms" >
   <dimension dim="1">ion</dimension>
   <field type="string">element</field>
   <field type="int">atomtype</field>
   <set>
    <rc><c>H </c><c>   1</c></rc>
    <rc><c>H </c><c>   1</c></rc>
    <rc><c>H </c><c>   1</c></rc>
    <rc><c>H </c><c>   1</c></rc>
    <rc><c>H </c><c>   1</c></rc>
    <rc><c>H </c><c>   1</c></rc>
    <rc><c>H </c><c>   1</c></rc>
    <rc><c>H </c><c>   1</c></rc>
    <rc><c>H </c><c>   1</c></rc>
    <rc><c>H </c><c>   1</c></rc>
    <rc><c>H </c><c>   1</c></rc>
    <rc><c>H </c><c>   1</c></rc>
    <rc><c>H </c><c>   1</c></rc>
    <rc><c>H </c><c>   1</c></rc>
    <rc><c>H </c><c>   1</c></rc>
    <rc><c>H </c><c>   1</c></rc>
    <rc><c>H </c><c>   1</c></rc>
    <rc><c>H </c><c>   1</c></rc>
    <rc><c>H </c><c>   1</c></rc>
    <rc><c>H </c><c>   1</c></rc>
    <rc><c>H </c><c>   1</c></rc>
    <rc><c>H </c><c>   1</c></rc>
    <rc><c>H </c><c>   1</c></rc>
    <rc><c>H </c><c>   1</c></rc>
    <rc><c>H </c><c>   1</c></rc>
    <rc><c>H </c><c>   1</c></rc>
    <rc><c>H </c><c>   1</c></rc>
    <rc><c>H </c><c>   1</c></rc>
    <rc><c>H </c><c>   1</c></rc>
    <rc><c>H </c><c>   1</c></rc>
    <rc><c>H </c><c>   1</c></rc>
    <rc><c>H </c><c>   1</c></rc>
    <rc><c>H </c><c>   1</c></rc>
    <rc><c>H </c><c>   1</c></rc>
    <rc><c>H </c><c>   1</c></rc>
    <rc><c>H </c><c>   1</c></rc>
    <rc><c>H </c><c>   1</c></rc>
    <rc><c>H </c><c>   1</c></rc>
    <rc><c>H </c><c>   1</c></rc>
    <rc><c>H </c><c>   1</c></rc>
    <rc><c>H </c><c>   1</c></rc>
    <rc><c>H </c><c>   1</c></rc>
    <rc><c>H </c><c>   1</c></rc>
    <rc><c>H </c><c>   1</c></rc>
    <rc><c>H </c><c>   1</c></rc>
    <rc><c>H </c><c>   1</c></rc>
    <rc><c>H </c><c>   1</c></rc>
    <rc><c>H </c><c>   1</c></rc>
    <rc><c>H </c><c>   1</c></rc>
    <rc><c>H </c><c>   1</c></rc>
    <rc><c>H </c><c>   1</c></rc>
    <rc><c>H </c><c>   1</c></rc>
    <rc><c>H </c><c>   1</c></rc>
    <rc><c>H </c><c>   1</c></rc>
    <rc><c>H </c><c>   1</c></rc>
    <rc><c>H </c><c>   1</c></rc>
    <rc><c>H </c><c>   1</c></rc>
    <rc><c>H </c><c>   1</c></rc>
    <rc><c>H </c><c>   1</c></rc>
    <rc><c>H </c><c>   1</c></rc>
    <rc><c>H </c><c>   1</c></rc>
    <rc><c>H </c><c>   1</c></rc>
    <rc><c>H </c><c>   1</c></rc>
    <rc><c>H </c><c>   1</c></rc>
    <rc><c>H </c><c>   1</c></rc>
    <rc><c>H </c><c>   1</c></rc>
    <rc><c>H </c><c>   1</c></rc>
    <rc><c>H </c><c>   1</c></rc>
    <rc><c>H </c><c>   1</c></rc>
    <rc><c>H </c><c>   1</c></rc>
    <rc><c>H </c><c>   1</c></rc>
    <rc><c>H </c><c>   1</c></rc>
    <rc><c>H </c><c>   1</c></rc>
    <rc><c>H </c><c>   1</c></rc>
    <rc><c>H </c><c>   1</c></rc>
    <rc><c>H </c><c>   1</c></rc>
    <rc><c>H </c><c>   1</c></rc>
    <rc><c>H </c><c>   1</c></rc>
    <rc><c>H </c><c>   1</c></rc>
    <rc><c>H </c><c>   1</c></rc>
    <rc><c>H </c><c>   1</c></rc>
    <rc><c>H </c><c>   1</c></rc>
    <rc><c>H </c><c>   1</c></rc>
    <rc><c>H </c><c>   1</c></rc>
    <rc><c>H </c><c>   1</c></rc>
    <rc><c>H </c><c>   1</c></rc>
    <rc><c>H </c><c>   1</c></rc>
    <rc><c>H </c><c>   1</c></rc>
    <rc><c>H </c><c>   1</c></rc>
    <rc><c>H </c><c>   1</c></rc>
    <rc><c>H </c><c>   1</c></rc>
    <rc><c>H </c><c>   1</c></rc>
    <rc><c>H </c><c>   1</c></rc>
    <rc><c>H </c><c>   1</c></rc>
    <rc><c>H </c><c>   1</c></rc>
    <rc><c>H </c><c>   1</c></rc>
    <rc><c>H </c><c>   1</c></rc>
    <rc><c>H </c><c>   1</c></rc>
    <rc><c>H </c><c>   1</c></rc>
    <rc><c>H </c><c>   1</c></rc>
    <rc><c>H </c><c>   1</c></rc>
    <rc><c>H </c><c>   1</c></rc>
    <rc><c>H </c><c>   1</c></rc>
    <rc><c>H </c><c>   1</c></rc>
    <rc><c>H </c><c>   1</c></rc>
    <rc><c>H </c><c>   1</c></rc>
    <rc><c>H </c><c>   1</c></rc>
    <rc><c>H </c><c>   1</c></rc>
    <rc><c>H </c><c>   1</c></rc>
    <rc><c>H </c><c>   1</c></rc>
    <rc><c>H </c><c>   1</c></rc>
    <rc><c>H </c><c>   1</c></rc>
    <rc><c>H </c><c>   1</c></rc>
    <rc><c>H </c><c>   1</c></rc>
    <rc><c>H </c><c>   1</c></rc>
    <rc><c>H </c><c>   1</c></rc>
    <rc><c>H </c><c>   1</c></rc>
    <rc><c>H </c><c>   1</c></rc>
    <rc><c>H </c><c>   1</c></rc>
    <rc><c>H </c><c>   1</c></rc>
    <rc><c>H </c><c>   1</c></rc>
    <rc><c>H </c><c>   1</c></rc>
    <rc><c>H </c><c>   1</c></rc>
    <rc><c>H </c><c>   1</c></rc>
    <rc><c>H </c><c>   1</c></rc>
    <rc><c>H </c><c>   1</c></rc>
    <rc><c>H </c><c>   1</c></rc>
    <rc><c>H </c><c>   1</c></rc>
    <rc><c>H </c><c>   1</c></rc>
    <rc><c>H </c><c>   1</c></rc>
    <rc><c>H </c><c>   1</c></rc>
    <rc><c>H </c><c>   1</c></rc>
    <rc><c>H </c><c>   1</c></rc>
    <rc><c>H </c><c>   1</c></rc>
    <rc><c>H </c><c>   1</c></rc>
    <rc><c>H </c><c>   1</c></rc>
    <rc><c>H </c><c>   1</c></rc>
    <rc><c>H </c><c>   1</c></rc>
    <rc><c>H </c><c>   1</c></rc>
    <rc><c>H </c><c>   1</c></rc>
    <rc><c>H </c><c>   1</c></rc>
    <rc><c>H </c><c>   1</c></rc>
    <rc><c>H </c><c>   1</c></rc>
    <rc><c>C </c><c>   2</c></rc>
    <rc><c>C </c><c>   2</c></rc>
    <rc><c>C </c><c>   2</c></rc>
    <rc><c>C </c><c>   2</c></rc>
    <rc><c>C </c><c>   2</c></rc>
    <rc><c>C </c><c>   2</c></rc>
    <rc><c>C </c><c>   2</c></rc>
    <rc><c>C </c><c>   2</c></rc>
    <rc><c>C </c><c>   2</c></rc>
    <rc><c>C </c><c>   2</c></rc>
    <rc><c>C </c><c>   2</c></rc>
    <rc><c>C </c><c>   2</c></rc>
    <rc><c>C </c><c>   2</c></rc>
    <rc><c>C </c><c>   2</c></rc>
    <rc><c>C </c><c>   2</c></rc>
    <rc><c>C </c><c>   2</c></rc>
    <rc><c>C </c><c>   2</c></rc>
    <rc><c>C </c><c>   2</c></rc>
    <rc><c>C </c><c>   2</c></rc>
    <rc><c>C </c><c>   2</c></rc>
    <rc><c>C </c><c>   2</c></rc>
    <rc><c>C </c><c>   2</c></rc>
    <rc><c>C </c><c>   2</c></rc>
    <rc><c>C </c><c>   2</c></rc>
    <rc><c>C </c><c>   2</c></rc>
    <rc><c>C </c><c>   2</c></rc>
    <rc><c>C </c><c>   2</c></rc>
    <rc><c>C </c><c>   2</c></rc>
    <rc><c>C </c><c>   2</c></rc>
    <rc><c>C </c><c>   2</c></rc>
    <rc><c>C </c><c>   2</c></rc>
    <rc><c>C </c><c>   2</c></rc>
    <rc><c>C </c><c>   2</c></rc>
    <rc><c>C </c><c>   2</c></rc>
    <rc><c>C </c><c>   2</c></rc>
    <rc><c>C </c><c>   2</c></rc>
    <rc><c>C </c><c>   2</c></rc>
    <rc><c>C </c><c>   2</c></rc>
    <rc><c>C </c><c>   2</c></rc>
    <rc><c>N </c><c>   3</c></rc>
    <rc><c>N </c><c>   3</c></rc>
    <rc><c>N </c><c>   3</c></rc>
    <rc><c>N </c><c>   3</c></rc>
    <rc><c>N </c><c>   3</c></rc>
    <rc><c>N </c><c>   3</c></rc>
    <rc><c>N </c><c>   3</c></rc>
    <rc><c>N </c><c>   3</c></rc>
    <rc><c>N </c><c>   3</c></rc>
    <rc><c>N </c><c>   3</c></rc>
    <rc><c>N </c><c>   3</c></rc>
    <rc><c>N </c><c>   3</c></rc>
    <rc><c>N </c><c>   3</c></rc>
    <rc><c>N </c><c>   3</c></rc>
    <rc><c>N </c><c>   3</c></rc>
    <rc><c>N </c><c>   3</c></rc>
    <rc><c>N </c><c>   3</c></rc>
    <rc><c>N </c><c>   3</c></rc>
    <rc><c>N </c><c>   3</c></rc>
    <rc><c>N </c><c>   3</c></rc>
    <rc><c>N </c><c>   3</c></rc>
    <rc><c>N </c><c>   3</c></rc>
    <rc><c>N </c><c>   3</c></rc>
    <rc><c>N </c><c>   3</c></rc>
    <rc><c>N </c><c>   3</c></rc>
    <rc><c>N </c><c>   3</c></rc>
    <rc><c>N </c><c>   3</c></rc>
    <rc><c>N </c><c>   3</c></rc>
    <rc><c>N </c><c>   3</c></rc>
    <rc><c>N </c><c>   3</c></rc>
    <rc><c>N </c><c>   3</c></rc>
    <rc><c>N </c><c>   3</c></rc>
    <rc><c>N </c><c>   3</c></rc>
    <rc><c>N </c><c>   3</c></rc>
    <rc><c>N </c><c>   3</c></rc>
    <rc><c>N </c><c>   3</c></rc>
    <rc><c>N </c><c>   3</c></rc>
    <rc><c>N </c><c>   3</c></rc>
    <rc><c>N </c><c>   3</c></rc>
    <rc><c>N </c><c>   3</c></rc>
    <rc><c>N </c><c>   3</c></rc>
    <rc><c>N </c><c>   3</c></rc>
    <rc><c>N </c><c>   3</c></rc>
    <rc><c>N </c><c>   3</c></rc>
    <rc><c>N </c><c>   3</c></rc>
    <rc><c>N </c><c>   3</c></rc>
    <rc><c>N </c><c>   3</c></rc>
    <rc><c>I </c><c>   4</c></rc>
    <rc><c>I </c><c>   4</c></rc>
    <rc><c>I </c><c>   4</c></rc>
    <rc><c>I </c><c>   4</c></rc>
    <rc><c>I </c><c>   4</c></rc>
    <rc><c>I </c><c>   4</c></rc>
    <rc><c>I </c><c>   4</c></rc>
    <rc><c>I </c><c>   4</c></rc>
    <rc><c>I </c><c>   4</c></rc>
    <rc><c>I </c><c>   4</c></rc>
    <rc><c>I </c><c>   4</c></rc>
    <rc><c>I </c><c>   4</c></rc>
    <rc><c>I </c><c>   4</c></rc>
    <rc><c>I </c><c>   4</c></rc>
    <rc><c>I </c><c>   4</c></rc>
    <rc><c>I </c><c>   4</c></rc>
    <rc><c>I </c><c>   4</c></rc>
    <rc><c>I </c><c>   4</c></rc>
    <rc><c>I </c><c>   4</c></rc>
    <rc><c>I </c><c>   4</c></rc>
    <rc><c>I </c><c>   4</c></rc>
    <rc><c>I </c><c>   4</c></rc>
    <rc><c>I </c><c>   4</c></rc>
    <rc><c>I </c><c>   4</c></rc>
    <rc><c>I </c><c>   4</c></rc>
    <rc><c>I </c><c>   4</c></rc>
    <rc><c>I </c><c>   4</c></rc>
    <rc><c>I </c><c>   4</c></rc>
    <rc><c>I </c><c>   4</c></rc>
    <rc><c>I </c><c>   4</c></rc>
    <rc><c>I </c><c>   4</c></rc>
    <rc><c>I </c><c>   4</c></rc>
    <rc><c>I </c><c>   4</c></rc>
    <rc><c>I </c><c>   4</c></rc>
    <rc><c>I </c><c>   4</c></rc>
    <rc><c>I </c><c>   4</c></rc>
    <rc><c>I </c><c>   4</c></rc>
    <rc><c>I </c><c>   4</c></rc>
    <rc><c>I </c><c>   4</c></rc>
    <rc><c>I </c><c>   4</c></rc>
    <rc><c>I </c><c>   4</c></rc>
    <rc><c>I </c><c>   4</c></rc>
    <rc><c>I </c><c>   4</c></rc>
    <rc><c>I </c><c>   4</c></rc>
    <rc><c>I </c><c>   4</c></rc>
    <rc><c>I </c><c>   4</c></rc>
    <rc><c>I </c><c>   4</c></rc>
    <rc><c>I </c><c>   4</c></rc>
    <rc><c>I </c><c>   4</c></rc>
    <rc><c>I </c><c>   4</c></rc>
    <rc><c>I </c><c>   4</c></rc>
    <rc><c>I </c><c>   4</c></rc>
    <rc><c>I </c><c>   4</c></rc>
    <rc><c>I </c><c>   4</c></rc>
    <rc><c>I </c><c>   4</c></rc>
    <rc><c>I </c><c>   4</c></rc>
    <rc><c>I </c><c>   4</c></rc>
    <rc><c>I </c><c>   4</c></rc>
    <rc><c>I </c><c>   4</c></rc>
    <rc><c>I </c><c>   4</c></rc>
    <rc><c>I </c><c>   4</c></rc>
    <rc><c>I </c><c>   4</c></rc>
    <rc><c>I </c><c>   4</c></rc>
    <rc><c>I </c><c>   4</c></rc>
    <rc><c>I </c><c>   4</c></rc>
    <rc><c>I </c><c>   4</c></rc>
    <rc><c>I </c><c>   4</c></rc>
    <rc><c>I </c><c>   4</c></rc>
    <rc><c>I </c><c>   4</c></rc>
    <rc><c>I </c><c>   4</c></rc>
    <rc><c>I </c><c>   4</c></rc>
    <rc><c>I </c><c>   4</c></rc>
    <rc><c>Pb</c><c>   5</c></rc>
    <rc><c>Pb</c><c>   5</c></rc>
    <rc><c>Pb</c><c>   5</c></rc>
    <rc><c>Pb</c><c>   5</c></rc>
    <rc><c>Pb</c><c>   5</c></rc>
    <rc><c>Pb</c><c>   5</c></rc>
    <rc><c>Pb</c><c>   5</c></rc>
    <rc><c>Pb</c><c>   5</c></rc>
    <rc><c>Pb</c><c>   5</c></rc>
    <rc><c>Pb</c><c>   5</c></rc>
    <rc><c>Pb</c><c>   5</c></rc>
    <rc><c>Pb</c><c>   5</c></rc>
    <rc><c>Pb</c><c>   5</c></rc>
    <rc><c>Pb</c><c>   5</c></rc>
    <rc><c>Pb</c><c>   5</c></rc>
    <rc><c>Pb</c><c>   5</c></rc>
    <rc><c>Pb</c><c>   5</c></rc>
    <rc><c>Pb</c><c>   5</c></rc>
    <rc><c>Pb</c><c>   5</c></rc>
    <rc><c>Pb</c><c>   5</c></rc>
    <rc><c>Pb</c><c>   5</c></rc>
    <rc><c>Pb</c><c>   5</c></rc>
    <rc><c>Pb</c><c>   5</c></rc>
    <rc><c>Pb</c><c>   5</c></rc>
   </set>
  </array>
  <array name="atomtypes" >
   <dimension dim="1">type</dimension>
   <field type="int">atomspertype</field>
   <field type="string">element</field>
   <field>mass</field>
   <field>valence</field>
   <field type="string">pseudopotential</field>
   <set>
    <rc><c> 143</c><c>H </c><c>      1.00000000</c><c>      1.00000000</c><c>  PAW_PBE H 15Jun2001                   </c></rc>
    <rc><c>  39</c><c>C </c><c>     12.01100000</c><c>      4.00000000</c><c>  PAW_PBE C 08Apr2002                   </c></rc>
    <rc><c>  47</c><c>N </c><c>     14.00100000</c><c>      5.00000000</c><c>  PAW_PBE N 08Apr2002                   </c></rc>
    <rc><c>  72</c><c>I </c><c>    126.90400000</c><c>      7.00000000</c><c>  PAW_PBE I 08Apr2002                   </c></rc>
    <rc><c>  24</c><c>Pb</c><c>    207.20000000</c><c>      4.00000000</c><c>  PAW_PBE Pb 08Apr2002                  </c></rc>
   </set>
  </array>
 </atominfo>
 <structure name="initialpos" >
  <crystal>
   <varray name="basis" >
    <v>      18.06080055       0.00000000       0.00000000 </v>
    <v>      -0.00491865      18.06279945       0.00000000 </v>
    <v>       0.00000000       0.00000000      62.48749924 </v>
   </varray>
   <i name="volume">  20385.21054034 </i>
   <varray name="rec_basis" >
    <v>       0.05536853       0.00001508      -0.00000000 </v>
    <v>       0.00000000       0.05536240       0.00000000 </v>
    <v>       0.00000000      -0.00000000       0.01600320 </v>
   </varray>
  </crystal>
  <varray name="positions" >
   <v>       0.43965560       0.30031558       0.57723771 </v>
   <v>       0.44007400       0.82568025       0.57929421 </v>
   <v>       0.98019241       0.30622810       0.58046156 </v>
   <v>       0.97010724       0.79907042       0.58305381 </v>
   <v>       0.31572769       0.00620544       0.58112539 </v>
   <v>       0.30927692       0.55383951       0.58085080 </v>
   <v>       0.77791586       0.06428438       0.58322707 </v>
   <v>       0.06047315       0.13762600       0.56135672 </v>
   <v>       0.05857014       0.64533639       0.55677347 </v>
   <v>       0.59215352       0.19595669       0.55505462 </v>
   <v>       0.55281802       0.67088610       0.56156465 </v>
   <v>       0.34169352       0.05419096       0.55811236 </v>
   <v>       0.29939848       0.60513422       0.55762233 </v>
   <v>       0.83950328       0.06970722       0.56205865 </v>
   <v>       0.03367725       0.18066247       0.58455924 </v>
   <v>       0.03202433       0.67680134       0.58211735 </v>
   <v>       0.56707234       0.25539355       0.57597122 </v>
   <v>       0.49999276       0.69682577       0.58263216 </v>
   <v>       0.23505378       0.43578432       0.58268319 </v>
   <v>       0.18906869       0.94839547       0.58109547 </v>
   <v>       0.68504504       0.96344342       0.58173897 </v>
   <v>       0.37863894       0.27076732       0.55712895 </v>
   <v>       0.46314617       0.87534214       0.55665541 </v>
   <v>       0.97995386       0.34583525       0.55527097 </v>
   <v>       0.95740938       0.84645805       0.55863029 </v>
   <v>       0.18086524       0.41633906       0.56041971 </v>
   <v>       0.13569921       0.96644439       0.55853157 </v>
   <v>       0.68878968       0.90480515       0.55913820 </v>
   <v>       0.47009753       0.20189724       0.54017097 </v>
   <v>       0.53701488       0.77968627       0.54257843 </v>
   <v>       0.02938111       0.23402180       0.54016004 </v>
   <v>       0.01128038       0.74981101       0.53924158 </v>
   <v>       0.21759830       0.52165318       0.54217296 </v>
   <v>       0.22770886       0.03417227       0.54162420 </v>
   <v>       0.78736081       0.96822961       0.54447456 </v>
   <v>       0.45666334       0.30924502       0.67517972 </v>
   <v>       0.43455405       0.81230818       0.67328286 </v>
   <v>       0.96349046       0.28525799       0.68014281 </v>
   <v>       0.93493911       0.79834071       0.67567445 </v>
   <v>       0.29802399       0.05172494       0.67537483 </v>
   <v>       0.30008722       0.55091246       0.67644865 </v>
   <v>       0.79952407       0.05299077       0.67458689 </v>
   <v>       0.80389137       0.57816520       0.67169514 </v>
   <v>       0.08247410       0.16652509       0.64661596 </v>
   <v>       0.09393975       0.68993150       0.65531686 </v>
   <v>       0.57176189       0.16256677       0.65148693 </v>
   <v>       0.57287713       0.67802118       0.65569823 </v>
   <v>       0.18126866       0.41447965       0.64910041 </v>
   <v>       0.17465386       0.91520266       0.65052733 </v>
   <v>       0.68693673       0.41813347       0.65858711 </v>
   <v>       0.66826301       0.92445988       0.64975801 </v>
   <v>       0.06414530       0.18271194       0.67333377 </v>
   <v>       0.04323316       0.69963778       0.67854044 </v>
   <v>       0.56644111       0.21150426       0.67517826 </v>
   <v>       0.53585876       0.71343382       0.67899244 </v>
   <v>       0.20955664       0.43971619       0.67473957 </v>
   <v>       0.19892868       0.94793016       0.67580827 </v>
   <v>       0.70647889       0.47664953       0.68022126 </v>
   <v>       0.69266985       0.95776038       0.67492167 </v>
   <v>       0.40470231       0.31142487       0.65196316 </v>
   <v>       0.41485934       0.83156229       0.64670473 </v>
   <v>       0.92810076       0.32353297       0.65687253 </v>
   <v>       0.92957170       0.83921331       0.65090619 </v>
   <v>       0.32892010       0.07715710       0.65020262 </v>
   <v>       0.32247850       0.58810474       0.65153809 </v>
   <v>       0.83615243       0.07246450       0.64946456 </v>
   <v>       0.83493039       0.57908399       0.64510956 </v>
   <v>       0.99558837       0.25689021       0.63442944 </v>
   <v>       0.02855536       0.78089022       0.63650628 </v>
   <v>       0.47230846       0.21953662       0.63499505 </v>
   <v>       0.50198677       0.74756658       0.63363894 </v>
   <v>       0.25434471       0.99361360       0.63243686 </v>
   <v>       0.24892897       0.50549677       0.63246311 </v>
   <v>       0.75835618       0.99338542       0.63181448 </v>
   <v>       0.76397505       0.47770406       0.63549863 </v>
   <v>       0.44874502       0.30128397       0.76888902 </v>
   <v>       0.44874501       0.80128391       0.76888902 </v>
   <v>       0.94874497       0.30128397       0.76888902 </v>
   <v>       0.94874501       0.80128391       0.76888902 </v>
   <v>       0.30127600       0.05129450       0.76887296 </v>
   <v>       0.30127601       0.55129450       0.76887296 </v>
   <v>       0.80127594       0.05129450       0.76887296 </v>
   <v>       0.80127598       0.55129450       0.76887296 </v>
   <v>       0.07877100       0.17118050       0.74344197 </v>
   <v>       0.07877101       0.67118045       0.74344197 </v>
   <v>       0.57877100       0.17118050       0.74344197 </v>
   <v>       0.57877099       0.67118045       0.74344197 </v>
   <v>       0.17119950       0.42117448       0.74342103 </v>
   <v>       0.17119950       0.92117451       0.74342103 </v>
   <v>       0.67119951       0.42117448       0.74342103 </v>
   <v>       0.67119950       0.92117451       0.74342103 </v>
   <v>       0.05125600       0.19871499       0.76888902 </v>
   <v>       0.05125600       0.69871493       0.76888902 </v>
   <v>       0.55125603       0.19871499       0.76888902 </v>
   <v>       0.55125602       0.69871493       0.76888902 </v>
   <v>       0.19872349       0.44870397       0.76887205 </v>
   <v>       0.19872349       0.94870397       0.76887205 </v>
   <v>       0.69872352       0.44870397       0.76887205 </v>
   <v>       0.69872351       0.94870397       0.76887205 </v>
   <v>       0.42123152       0.32881747       0.74344197 </v>
   <v>       0.42123151       0.82881744       0.74344197 </v>
   <v>       0.92123147       0.32881747       0.74344197 </v>
   <v>       0.92123151       0.82881744       0.74344197 </v>
   <v>       0.32880050       0.07882500       0.74342103 </v>
   <v>       0.32880049       0.57882496       0.74342103 </v>
   <v>       0.82880048       0.07882500       0.74342103 </v>
   <v>       0.82880052       0.57882496       0.74342103 </v>
   <v>       0.00000350       0.25000148       0.72582199 </v>
   <v>       0.00000350       0.75000145       0.72582199 </v>
   <v>       0.50000351       0.25000148       0.72582199 </v>
   <v>       0.50000350       0.75000145       0.72582199 </v>
   <v>       0.25000050       0.00000000       0.72580398 </v>
   <v>       0.25000052       0.50000000       0.72580398 </v>
   <v>       0.75000050       0.00000000       0.72580398 </v>
   <v>       0.75000049       0.50000000       0.72580398 </v>
   <v>       0.77832378       0.55852821       0.52472305 </v>
   <v>       0.72575530       0.47859164       0.52817797 </v>
   <v>       0.86767202       0.50675726       0.54686658 </v>
   <v>       0.85057694       0.48334903       0.57358030 </v>
   <v>       0.73841730       0.64136722       0.56494301 </v>
   <v>       0.79655779       0.59071469       0.58272745 </v>
   <v>       0.65562269       0.53676336       0.57139071 </v>
   <v>       0.67219938       0.45000971       0.56156435 </v>
   <v>       0.61382772       0.54701113       0.53880918 </v>
   <v>       0.66991409       0.62758190       0.54197998 </v>
   <v>       0.61489317       0.65300394       0.50922337 </v>
   <v>       0.69501595       0.60683768       0.49974314 </v>
   <v>       0.83011482       0.38946078       0.53318001 </v>
   <v>       0.75726563       0.37846336       0.55158133 </v>
   <v>       0.84757878       0.35817705       0.56024627 </v>
   <v>       0.85510973       0.69127816       0.55923985 </v>
   <v>       0.85004522       0.63208829       0.53672387 </v>
   <v>       0.90443044       0.60379173       0.55964679 </v>
   <v>       0.75861052       0.50867245       0.59957793 </v>
   <v>       0.74810580       0.41685637       0.59188102 </v>
   <v>       0.67283639       0.46758200       0.60182295 </v>
   <v>       0.54127738       0.53534806       0.50762515 </v>
   <v>       0.57908355       0.55800118       0.48256573 </v>
   <v>       0.71260128       0.49576061       0.47547663 </v>
   <v>       0.54846339       0.41619291       0.52034333 </v>
   <v>       0.77831539       0.37629509       0.47785321 </v>
   <v>       0.61834675       0.29476202       0.52282265 </v>
   <v>       0.73306025       0.27522130       0.50191377 </v>
   <v>       0.01917998       0.23978502       0.55729237 </v>
   <v>       0.00692921       0.74533794       0.55691223 </v>
   <v>       0.48536146       0.23277108       0.55464939 </v>
   <v>       0.50880225       0.77245463       0.55789906 </v>
   <v>       0.23971407       0.51074940       0.55808178 </v>
   <v>       0.23843553       0.01125760       0.55746837 </v>
   <v>       0.76488113       0.98683693       0.55971119 </v>
   <v>       0.00405099       0.24616800       0.65149481 </v>
   <v>       0.01227257       0.76506596       0.65272797 </v>
   <v>       0.48769993       0.23631584       0.65120154 </v>
   <v>       0.49456284       0.75450420       0.65094618 </v>
   <v>       0.25271598       0.50151936       0.64993926 </v>
   <v>       0.25170859       0.99591001       0.64989824 </v>
   <v>       0.76091769       0.49868064       0.65178735 </v>
   <v>       0.75175298       0.99799377       0.64918624 </v>
   <v>       0.49998898       0.24999498       0.74327702 </v>
   <v>       0.49998903       0.74999496       0.74327702 </v>
   <v>       0.99998898       0.24999498       0.74327702 </v>
   <v>       0.99998903       0.74999496       0.74327702 </v>
   <v>       0.25000050       0.00000100       0.74325596 </v>
   <v>       0.25000052       0.50000100       0.74325596 </v>
   <v>       0.75000050       0.00000100       0.74325596 </v>
   <v>       0.75000049       0.50000100       0.74325596 </v>
   <v>       0.62687975       0.46322624       0.49786502 </v>
   <v>       0.69014683       0.45173704       0.48553513 </v>
   <v>       0.59908692       0.40699608       0.51099887 </v>
   <v>       0.72850629       0.38408315       0.48682024 </v>
   <v>       0.63720931       0.33902902       0.51226805 </v>
   <v>       0.70227250       0.32696226       0.50052635 </v>
   <v>       0.73464403       0.53442035       0.53421787 </v>
   <v>       0.82795442       0.47846878       0.55725220 </v>
   <v>       0.78551069       0.60150211       0.56568449 </v>
   <v>       0.69783340       0.49540306       0.57038642 </v>
   <v>       0.66121218       0.57873690       0.53225319 </v>
   <v>       0.64398381       0.59775679       0.50888090 </v>
   <v>       0.81507249       0.39695420       0.55013646 </v>
   <v>       0.85388684       0.63269905       0.55446747 </v>
   <v>       0.72174266       0.47047827       0.59210952 </v>
   <v>       0.59275067       0.53891845       0.49865610 </v>
   <v>       0.03950720       0.18190675       0.56875719 </v>
   <v>       0.03458485       0.68638244       0.56602605 </v>
   <v>       0.55198969       0.22608066       0.56260014 </v>
   <v>       0.52240570       0.71156900       0.56839695 </v>
   <v>       0.43158626       0.27235988       0.56335737 </v>
   <v>       0.46694899       0.82614033       0.56481420 </v>
   <v>       0.98748131       0.29966706       0.56458473 </v>
   <v>       0.97453287       0.80046465       0.56690703 </v>
   <v>       0.21802977       0.44986473       0.56741757 </v>
   <v>       0.18527204       0.97280425       0.56609199 </v>
   <v>       0.70750601       0.94999613       0.56704054 </v>
   <v>       0.30331941       0.02599284       0.56598802 </v>
   <v>       0.28536110       0.56050105       0.56590481 </v>
   <v>       0.79887169       0.04139642       0.56925924 </v>
   <v>       0.05193594       0.19661252       0.65779795 </v>
   <v>       0.05114725       0.71590063       0.66285285 </v>
   <v>       0.54477628       0.20272296       0.66006714 </v>
   <v>       0.53774356       0.71217818       0.66285902 </v>
   <v>       0.21184283       0.44869721       0.65862893 </v>
   <v>       0.20528958       0.95002865       0.65939941 </v>
   <v>       0.71555036       0.46339197       0.66460192 </v>
   <v>       0.70089940       0.95741716       0.65866916 </v>
   <v>       0.44784416       0.28933096       0.66031817 </v>
   <v>       0.44524587       0.80241906       0.65774929 </v>
   <v>       0.96218667       0.28777773       0.66411977 </v>
   <v>       0.95550062       0.80166126       0.66035736 </v>
   <v>       0.29550479       0.04433854       0.65931614 </v>
   <v>       0.29416178       0.55018210       0.66009333 </v>
   <v>       0.79859354       0.04399392       0.65854505 </v>
   <v>       0.80190296       0.55589376       0.65656259 </v>
   <v>       0.04586250       0.20411950       0.75272599 </v>
   <v>       0.04586250       0.70411946       0.75272599 </v>
   <v>       0.54586251       0.20411950       0.75272599 </v>
   <v>       0.54586250       0.70411946       0.75272599 </v>
   <v>       0.20411900       0.45410100       0.75270499 </v>
   <v>       0.20411899       0.95410095       0.75270499 </v>
   <v>       0.70411898       0.45410100       0.75270499 </v>
   <v>       0.70411896       0.95410095       0.75270499 </v>
   <v>       0.45414002       0.29588849       0.75272697 </v>
   <v>       0.45414001       0.79588852       0.75272697 </v>
   <v>       0.95414002       0.29588849       0.75272697 </v>
[...]
   <v>       0.59215352       0.19595669       0.55505462 </v>
   <v>       0.55281802       0.67088610       0.56156465 </v>
   <v>       0.34169352       0.05419096       0.55811236 </v>
   <v>       0.29939848       0.60513422       0.55762233 </v>
   <v>       0.83950328       0.06970722       0.56205865 </v>
   <v>       0.03367725       0.18066247       0.58455924 </v>
   <v>       0.03202433       0.67680134       0.58211735 </v>
   <v>       0.56707234       0.25539355       0.57597122 </v>
   <v>       0.49999276       0.69682577       0.58263216 </v>
   <v>       0.23505378       0.43578432       0.58268319 </v>
   <v>       0.18906869       0.94839547       0.58109547 </v>
   <v>       0.68504504       0.96344342       0.58173897 </v>
   <v>       0.37863894       0.27076732       0.55712895 </v>
   <v>       0.46314617       0.87534214       0.55665541 </v>
   <v>       0.97995386       0.34583525       0.55527097 </v>
   <v>       0.95740938       0.84645805       0.55863029 </v>
   <v>       0.18086524       0.41633906       0.56041971 </v>
   <v>       0.13569921       0.96644439       0.55853157 </v>
   <v>       0.68878968       0.90480515       0.55913820 </v>
   <v>       0.47009753       0.20189724       0.54017097 </v>
   <v>       0.53701488       0.77968627       0.54257843 </v>
   <v>       0.02938111       0.23402180       0.54016004 </v>
   <v>       0.01128038       0.74981101       0.53924158 </v>
   <v>       0.21759830       0.52165318       0.54217296 </v>
   <v>       0.22770886       0.03417227       0.54162420 </v>
   <v>       0.78736081       0.96822961       0.54447456 </v>
   <v>       0.45666334       0.30924502       0.67517972 </v>
   <v>       0.43455405       0.81230818       0.67328286 </v>
   <v>       0.96349046       0.28525799       0.68014281 </v>
   <v>       0.93493911       0.79834071       0.67567445 </v>
   <v>       0.29802399       0.05172494       0.67537483 </v>
   <v>       0.30008722       0.55091246       0.67644865 </v>
   <v>       0.79952407       0.05299077       0.67458689 </v>
   <v>       0.80389137       0.57816520       0.67169514 </v>
   <v>       0.08247410       0.16652509       0.64661596 </v>
   <v>       0.09393975       0.68993150       0.65531686 </v>
   <v>       0.57176189       0.16256677       0.65148693 </v>
   <v>       0.57287713       0.67802118       0.65569823 </v>
   <v>       0.18126866       0.41447965       0.64910041 </v>
   <v>       0.17465386       0.91520266       0.65052733 </v>
   <v>       0.68693673       0.41813347       0.65858711 </v>
   <v>       0.66826301       0.92445988       0.64975801 </v>
   <v>       0.06414530       0.18271194       0.67333377 </v>
   <v>       0.04323316       0.69963778       0.67854044 </v>
   <v>       0.56644111       0.21150426       0.67517826 </v>
   <v>       0.53585876       0.71343382       0.67899244 </v>
   <v>       0.20955664       0.43971619       0.67473957 </v>
   <v>       0.19892868       0.94793016       0.67580827 </v>
   <v>       0.70647889       0.47664953       0.68022126 </v>
   <v>       0.69266985       0.95776038       0.67492167 </v>
   <v>       0.40470231       0.31142487       0.65196316 </v>
   <v>       0.41485934       0.83156229       0.64670473 </v>
   <v>       0.92810076       0.32353297       0.65687253 </v>
   <v>       0.92957170       0.83921331       0.65090619 </v>
   <v>       0.32892010       0.07715710       0.65020262 </v>
   <v>       0.32247850       0.58810474       0.65153809 </v>
   <v>       0.83615243       0.07246450       0.64946456 </v>
   <v>       0.83493039       0.57908399       0.64510956 </v>
   <v>       0.99558837       0.25689021       0.63442944 </v>
   <v>       0.02855536       0.78089022       0.63650628 </v>
   <v>       0.47230846       0.21953662       0.63499505 </v>
   <v>       0.50198677       0.74756658       0.63363894 </v>
   <v>       0.25434471       0.99361360       0.63243686 </v>
   <v>       0.24892897       0.50549677       0.63246311 </v>
   <v>       0.75835618       0.99338542       0.63181448 </v>
   <v>       0.76397505       0.47770406       0.63549863 </v>
   <v>       0.44874502       0.30128397       0.76888902 </v>
   <v>       0.44874501       0.80128391       0.76888902 </v>
   <v>       0.94874497       0.30128397       0.76888902 </v>
   <v>       0.94874501       0.80128391       0.76888902 </v>
   <v>       0.30127600       0.05129450       0.76887296 </v>
   <v>       0.30127601       0.55129450       0.76887296 </v>
   <v>       0.80127594       0.05129450       0.76887296 </v>
   <v>       0.80127598       0.55129450       0.76887296 </v>
   <v>       0.07877100       0.17118050       0.74344197 </v>
   <v>       0.07877101       0.67118045       0.74344197 </v>
   <v>       0.57877100       0.17118050       0.74344197 </v>
   <v>       0.57877099       0.67118045       0.74344197 </v>
   <v>       0.17119950       0.42117448       0.74342103 </v>
   <v>       0.17119950       0.92117451       0.74342103 </v>
   <v>       0.67119951       0.42117448       0.74342103 </v>
   <v>       0.67119950       0.92117451       0.74342103 </v>
   <v>       0.05125600       0.19871499       0.76888902 </v>
   <v>       0.05125600       0.69871493       0.76888902 </v>
   <v>       0.55125603       0.19871499       0.76888902 </v>
   <v>       0.55125602       0.69871493       0.76888902 </v>
   <v>       0.19872349       0.44870397       0.76887205 </v>
   <v>       0.19872349       0.94870397       0.76887205 </v>
   <v>       0.69872352       0.44870397       0.76887205 </v>
   <v>       0.69872351       0.94870397       0.76887205 </v>
   <v>       0.42123152       0.32881747       0.74344197 </v>
   <v>       0.42123151       0.82881744       0.74344197 </v>
   <v>       0.92123147       0.32881747       0.74344197 </v>
   <v>       0.92123151       0.82881744       0.74344197 </v>
   <v>       0.32880050       0.07882500       0.74342103 </v>
   <v>       0.32880049       0.57882496       0.74342103 </v>
   <v>       0.82880048       0.07882500       0.74342103 </v>
   <v>       0.82880052       0.57882496       0.74342103 </v>
   <v>       0.00000350       0.25000148       0.72582199 </v>
   <v>       0.00000350       0.75000145       0.72582199 </v>
   <v>       0.50000351       0.25000148       0.72582199 </v>
   <v>       0.50000350       0.75000145       0.72582199 </v>
   <v>       0.25000050       0.00000000       0.72580398 </v>
   <v>       0.25000052       0.50000000       0.72580398 </v>
   <v>       0.75000050       0.00000000       0.72580398 </v>
   <v>       0.75000049       0.50000000       0.72580398 </v>
   <v>       0.77832378       0.55852821       0.52472305 </v>
   <v>       0.72575530       0.47859164       0.52817797 </v>
   <v>       0.86767202       0.50675726       0.54686658 </v>
   <v>       0.85057694       0.48334903       0.57358030 </v>
   <v>       0.73841730       0.64136722       0.56494301 </v>
   <v>       0.79655779       0.59071469       0.58272745 </v>
   <v>       0.65562269       0.53676336       0.57139071 </v>
   <v>       0.67219938       0.45000971       0.56156435 </v>
   <v>       0.61382772       0.54701113       0.53880918 </v>
   <v>       0.66991409       0.62758190       0.54197998 </v>
   <v>       0.61489317       0.65300394       0.50922337 </v>
   <v>       0.69501595       0.60683768       0.49974314 </v>
   <v>       0.83011482       0.38946078       0.53318001 </v>
   <v>       0.75726563       0.37846336       0.55158133 </v>
   <v>       0.84757878       0.35817705       0.56024627 </v>
   <v>       0.85510973       0.69127816       0.55923985 </v>
   <v>       0.85004522       0.63208829       0.53672387 </v>
   <v>       0.90443044       0.60379173       0.55964679 </v>
   <v>       0.75861052       0.50867245       0.59957793 </v>
   <v>       0.74810580       0.41685637       0.59188102 </v>
   <v>       0.67283639       0.46758200       0.60182295 </v>
   <v>       0.54127738       0.53534806       0.50762515 </v>
   <v>       0.57908355       0.55800118       0.48256573 </v>
   <v>       0.71260128       0.49576061       0.47547663 </v>
   <v>       0.54846339       0.41619291       0.52034333 </v>
   <v>       0.77831539       0.37629509       0.47785321 </v>
   <v>       0.61834675       0.29476202       0.52282265 </v>
   <v>       0.73306025       0.27522130       0.50191377 </v>
   <v>       0.01917998       0.23978502       0.55729237 </v>
   <v>       0.00692921       0.74533794       0.55691223 </v>
   <v>       0.48536146       0.23277108       0.55464939 </v>
   <v>       0.50880225       0.77245463       0.55789906 </v>
   <v>       0.23971407       0.51074940       0.55808178 </v>
   <v>       0.23843553       0.01125760       0.55746837 </v>
   <v>       0.76488113       0.98683693       0.55971119 </v>
   <v>       0.00405099       0.24616800       0.65149481 </v>
   <v>       0.01227257       0.76506596       0.65272797 </v>
   <v>       0.48769993       0.23631584       0.65120154 </v>
   <v>       0.49456284       0.75450420       0.65094618 </v>
   <v>       0.25271598       0.50151936       0.64993926 </v>
   <v>       0.25170859       0.99591001       0.64989824 </v>
   <v>       0.76091769       0.49868064       0.65178735 </v>
   <v>       0.75175298       0.99799377       0.64918624 </v>
   <v>       0.49998898       0.24999498       0.74327702 </v>
   <v>       0.49998903       0.74999496       0.74327702 </v>
   <v>       0.99998898       0.24999498       0.74327702 </v>
   <v>       0.99998903       0.74999496       0.74327702 </v>
   <v>       0.25000050       0.00000100       0.74325596 </v>
   <v>       0.25000052       0.50000100       0.74325596 </v>
   <v>       0.75000050       0.00000100       0.74325596 </v>
   <v>       0.75000049       0.50000100       0.74325596 </v>
   <v>       0.62687975       0.46322624       0.49786502 </v>
   <v>       0.69014683       0.45173704       0.48553513 </v>
   <v>       0.59908692       0.40699608       0.51099887 </v>
   <v>       0.72850629       0.38408315       0.48682024 </v>
   <v>       0.63720931       0.33902902       0.51226805 </v>
   <v>       0.70227250       0.32696226       0.50052635 </v>
   <v>       0.73464403       0.53442035       0.53421787 </v>
   <v>       0.82795442       0.47846878       0.55725220 </v>
   <v>       0.78551069       0.60150211       0.56568449 </v>
   <v>       0.69783340       0.49540306       0.57038642 </v>
   <v>       0.66121218       0.57873690       0.53225319 </v>
   <v>       0.64398381       0.59775679       0.50888090 </v>
   <v>       0.81507249       0.39695420       0.55013646 </v>
   <v>       0.85388684       0.63269905       0.55446747 </v>
   <v>       0.72174266       0.47047827       0.59210952 </v>
   <v>       0.59275067       0.53891845       0.49865610 </v>
   <v>       0.03950720       0.18190675       0.56875719 </v>
   <v>       0.03458485       0.68638244       0.56602605 </v>
   <v>       0.55198969       0.22608066       0.56260014 </v>
   <v>       0.52240570       0.71156900       0.56839695 </v>
   <v>       0.43158626       0.27235988       0.56335737 </v>
   <v>       0.46694899       0.82614033       0.56481420 </v>
   <v>       0.98748131       0.29966706       0.56458473 </v>
   <v>       0.97453287       0.80046465       0.56690703 </v>
   <v>       0.21802977       0.44986473       0.56741757 </v>
   <v>       0.18527204       0.97280425       0.56609199 </v>
   <v>       0.70750601       0.94999613       0.56704054 </v>
   <v>       0.30331941       0.02599284       0.56598802 </v>
   <v>       0.28536110       0.56050105       0.56590481 </v>
   <v>       0.79887169       0.04139642       0.56925924 </v>
   <v>       0.05193594       0.19661252       0.65779795 </v>
   <v>       0.05114725       0.71590063       0.66285285 </v>
   <v>       0.54477628       0.20272296       0.66006714 </v>
   <v>       0.53774356       0.71217818       0.66285902 </v>
   <v>       0.21184283       0.44869721       0.65862893 </v>
   <v>       0.20528958       0.95002865       0.65939941 </v>
   <v>       0.71555036       0.46339197       0.66460192 </v>
   <v>       0.70089940       0.95741716       0.65866916 </v>
   <v>       0.44784416       0.28933096       0.66031817 </v>
   <v>       0.44524587       0.80241906       0.65774929 </v>
   <v>       0.96218667       0.28777773       0.66411977 </v>
   <v>       0.95550062       0.80166126       0.66035736 </v>
   <v>       0.29550479       0.04433854       0.65931614 </v>
   <v>       0.29416178       0.55018210       0.66009333 </v>
   <v>       0.79859354       0.04399392       0.65854505 </v>
   <v>       0.80190296       0.55589376       0.65656259 </v>
   <v>       0.04586250       0.20411950       0.75272599 </v>
   <v>       0.04586250       0.70411946       0.75272599 </v>
   <v>       0.54586251       0.20411950       0.75272599 </v>
   <v>       0.54586250       0.70411946       0.75272599 </v>
   <v>       0.20411900       0.45410100       0.75270499 </v>
   <v>       0.20411899       0.95410095       0.75270499 </v>
   <v>       0.70411898       0.45410100       0.75270499 </v>
   <v>       0.70411896       0.95410095       0.75270499 </v>
   <v>       0.45414002       0.29588849       0.75272697 </v>
   <v>       0.45414001       0.79588852       0.75272697 </v>
   <v>       0.95414002       0.29588849       0.75272697 </v>
   <v>       0.95414006       0.79588852       0.75272697 </v>
   <v>       0.29588249       0.04590050       0.75270499 </v>
   <v>       0.29588248       0.54590053       0.75270499 </v>
   <v>       0.79588244       0.04590050       0.75270499 </v>
   <v>       0.79588248       0.54590053       0.75270499 </v>
   <v>       0.76111957       0.52685054       0.55684032 </v>
   <v>       0.49013001       0.01568445       0.55160032 </v>
   <v>       0.47138277       0.51641829       0.55829764 </v>
   <v>       0.00022897       0.99388051       0.55143024 </v>
   <v>       0.03323789       0.48861238       0.55154653 </v>
   <v>       0.24006172       0.24422359       0.55201855 </v>
   <v>       0.25325995       0.74933256       0.55294366 </v>
   <v>       0.75081020       0.21584579       0.55586289 </v>
   <v>       0.72375131       0.78207141       0.54713214 </v>
   <v>       0.00192436       0.99740622       0.65443485 </v>
   <v>       0.01087417       0.50289712       0.65460554 </v>
   <v>       0.49601976       0.99896705       0.65334351 </v>
   <v>       0.50764779       0.48641869       0.65642231 </v>
   <v>       0.25180238       0.24664845       0.65359563 </v>
   <v>       0.25010360       0.75297074       0.65506284 </v>
   <v>       0.74043532       0.25406553       0.65526143 </v>
   <v>       0.75540366       0.75803420       0.65367328 </v>
   <v>       0.14397057       0.10553302       0.60975440 </v>
   <v>       0.14571021       0.60850245       0.60672475 </v>
   <v>       0.64729699       0.10243139       0.60804251 </v>
   <v>       0.61894715       0.63336013       0.61429010 </v>
   <v>       0.35108377       0.39230026       0.60701912 </v>
   <v>       0.35690644       0.89154465       0.60686320 </v>
   <v>       0.88918204       0.36451217       0.61433577 </v>
   <v>       0.86081038       0.89439942       0.60632153 </v>
   <v>       0.11159870       0.35700355       0.60951931 </v>
   <v>       0.10876934       0.85861187       0.60648593 </v>
   <v>       0.57827871       0.32977218       0.60920638 </v>
   <v>       0.61073004       0.86281393       0.60914509 </v>
   <v>       0.38366167       0.13359994       0.60835856 </v>
   <v>       0.38468651       0.63614669       0.61163369 </v>
   <v>       0.89091552       0.14052733       0.61192110 </v>
   <v>       0.91540121       0.65529409       0.61493043 </v>
   <v>       0.00000000       0.00000000       0.75492797 </v>
   <v>       0.00000000       0.50000000       0.75492797 </v>
   <v>       0.50000000       0.00000000       0.75492797 </v>
   <v>       0.49999999       0.50000000       0.75492797 </v>
   <v>       0.25000050       0.25000000       0.75493902 </v>
   <v>       0.25000051       0.74999997       0.75493902 </v>
   <v>       0.75000047       0.25000000       0.75493902 </v>
   <v>       0.75000046       0.74999997       0.75493902 </v>
   <v>       0.13579050       0.11421000       0.70478299 </v>
   <v>       0.13579050       0.61420998       0.70478299 </v>
   <v>       0.63579045       0.11421000       0.70478299 </v>
   <v>       0.63579049       0.61420998       0.70478299 </v>
   <v>       0.36420952       0.38578999       0.70478299 </v>
   <v>       0.36420950       0.88578996       0.70478299 </v>
   <v>       0.86420954       0.38578999       0.70478299 </v>
   <v>       0.86420953       0.88578996       0.70478299 </v>
   <v>       0.11421799       0.36421899       0.70478098 </v>
   <v>       0.11421799       0.86421899       0.70478098 </v>
   <v>       0.61421800       0.36421899       0.70478098 </v>
   <v>       0.61421799       0.86421899       0.70478098 </v>
   <v>       0.38578201       0.13578149       0.70478202 </v>
   <v>       0.38578200       0.63578149       0.70478202 </v>
   <v>       0.88578199       0.13578149       0.70478202 </v>
   <v>       0.88578203       0.63578149       0.70478202 </v>
   <v>       0.13466700       0.11533200       0.80125603 </v>
   <v>       0.13466699       0.61533199       0.80125603 </v>
   <v>       0.63466699       0.11533200       0.80125603 </v>
   <v>       0.63466698       0.61533199       0.80125603 </v>
   <v>       0.36533300       0.38466799       0.80125603 </v>
   <v>       0.36533299       0.88466796       0.80125603 </v>
   <v>       0.86533295       0.38466799       0.80125603 </v>
   <v>       0.86533294       0.88466796       0.80125603 </v>
   <v>       0.11532850       0.36533700       0.80126500 </v>
   <v>       0.11532850       0.86533698       0.80126500 </v>
   <v>       0.61532850       0.36533700       0.80126500 </v>
   <v>       0.61532849       0.86533698       0.80126500 </v>
   <v>       0.38467151       0.13466300       0.80126500 </v>
   <v>       0.38467150       0.63466297       0.80126500 </v>
   <v>       0.88467149       0.13466300       0.80126500 </v>
   <v>       0.88467153       0.63466297       0.80126500 </v>
   <v>       0.99801991       0.00156909       0.60446477 </v>
   <v>       0.00693380       0.50088056       0.60462545 </v>
   <v>       0.50155999       0.00548595       0.60264098 </v>
   <v>       0.49559853       0.49606414       0.60612557 </v>
   <v>       0.24523060       0.24760193       0.60263439 </v>
   <v>       0.24863010       0.74863584       0.60174780 </v>
   <v>       0.74664749       0.24862665       0.60432119 </v>
   <v>       0.74751005       0.75664404       0.60362751 </v>
   <v>       0.00000050       0.00000050       0.70482896 </v>
   <v>       0.00000050       0.50000048       0.70482896 </v>
   <v>       0.50000048       0.00000050       0.70482896 </v>
   <v>       0.50000046       0.50000048       0.70482896 </v>
   <v>       0.24999999       0.24999947       0.70482499 </v>
   <v>       0.25000001       0.74999950       0.70482499 </v>
   <v>       0.74999999       0.24999947       0.70482499 </v>
   <v>       0.74999998       0.74999950       0.70482499 </v>
   <v>       0.00000000       0.00000000       0.80731797 </v>
   <v>       0.00000000       0.50000000       0.80731797 </v>
   <v>       0.50000000       0.00000000       0.80731797 </v>
   <v>       0.49999999       0.50000000       0.80731797 </v>
   <v>       0.24999999       0.25000000       0.80731797 </v>
   <v>       0.25000001       0.74999997       0.80731797 </v>
   <v>       0.74999999       0.25000000       0.80731797 </v>
   <v>       0.74999998       0.74999997       0.80731797 </v>
  </varray>
 </structure>
</modeling>
