<?xml version="1.0" encoding="ISO-8859-1"?>
<modeling>
 <generator>
  <i name="program" type="string">vasp </i>
  <i name="version" type="string">6.2.1  </i>
  <i name="subversion" type="string">16May21 (build Nov 15 2021 14:57:28) complex                          parallel </i>
  <i name="platform" type="string">LinuxPGI </i>
  <i name="date" type="string">2023 07 30 </i>
  <i name="time" type="string">21:35:47 </i>
 </generator>
 <incar>
  <i type="string" name="SYSTEM">PSC</i>
  <i type="int" name="ISTART">     1</i>
  <i type="string" name="PREC">Normal</i>
  <i name="BMIX">      0.01000000</i>
  <i name="AMIN">      0.01000000</i>
  <i type="int" name="ICHARG">     1</i>
  <i type="int" name="NELM">   600</i>
  <i type="int" name="ISYM">     0</i>
  <i name="ENCUT">    500.00000000</i>
  <i type="string" name="LREAL">Auto</i>
  <i type="int" name="ISMEAR">     0</i>
  <i name="SIGMA">      0.05000000</i>
  <i type="logical" name="LWAVE"> F  </i>
  <i type="logical" name="LVTOT"> T  </i>
  <i type="logical" name="GGA_COMPAT"> F  </i>
  <i type="logical" name="LDIPOL"> T  </i>
  <i type="int" name="IDIPOL">     3</i>
  <i type="int" name="IVDW">    12</i>
 </incar>
 <primitive_cell>
  <structure name="primitive_cell" >
   <crystal>
    <varray name="basis" >
     <v>      18.06080055       0.00000000       0.00000000 </v>
     <v>      -0.00491865      18.06279945       0.00000000 </v>
     <v>       0.00000000       0.00000000      62.48749924 </v>
    </varray>
    <i name="volume">  20385.21054034 </i>
    <varray name="rec_basis" >
     <v>       0.05536853       0.00001508      -0.00000000 </v>
     <v>       0.00000000       0.05536240       0.00000000 </v>
     <v>       0.00000000      -0.00000000       0.01600320 </v>
    </varray>
   </crystal>
   <varray name="positions" >
    <v>       0.47135968       0.33874006       0.56616915 </v>
    <v>       0.44253263       0.82809057       0.57452092 </v>
    <v>       0.92284739       0.26340877       0.57920667 </v>
    <v>       0.93826089       0.81923371       0.57339221 </v>
    <v>       0.31935135       0.07820561       0.56964732 </v>
    <v>       0.35003394       0.54559525       0.55973408 </v>
    <v>       0.80274184       0.09305467       0.56802340 </v>
    <v>       0.10680569       0.24878600       0.55698305 </v>
    <v>       0.07649570       0.67374589       0.57590401 </v>
    <v>       0.54532620       0.15165633       0.56101553 </v>
    <v>       0.50298540       0.64464401       0.55861570 </v>
    <v>       0.37214041       0.01426147       0.55546559 </v>
    <v>       0.29838325       0.62634374       0.55370322 </v>
    <v>       0.87544697       0.03480939       0.55872802 </v>
    <v>       0.05796100       0.26571334       0.58031547 </v>
    <v>       0.98943027       0.69706146       0.58597401 </v>
    <v>       0.57294839       0.24169107       0.56831973 </v>
    <v>       0.44995408       0.69086792       0.57761321 </v>
    <v>       0.27315911       0.43740853       0.57262277 </v>
    <v>       0.18430154       0.05953389       0.57197390 </v>
    <v>       0.68071161       0.03094624       0.57403467 </v>
    <v>       0.38512253       0.30489675       0.55718975 </v>
    <v>       0.49961668       0.87050888       0.55559074 </v>
    <v>       0.87891414       0.24028105       0.55562309 </v>
    <v>       0.98964398       0.86677350       0.55447424 </v>
    <v>       0.17727091       0.44498606       0.56835110 </v>
    <v>       0.14703188       0.98366353       0.55881685 </v>
    <v>       0.67639458       0.93661194       0.56635553 </v>
    <v>       0.42762956       0.18646648       0.55179805 </v>
    <v>       0.54500041       0.75720596       0.54286163 </v>
    <v>       0.99519551       0.22915750       0.53722897 </v>
    <v>       0.08323434       0.77675283       0.55363826 </v>
    <v>       0.18465731       0.56498204       0.55611782 </v>
    <v>       0.26507551       0.94188855       0.54721358 </v>
    <v>       0.79738557       0.93219244       0.55607564 </v>
    <v>       0.45109636       0.30301631       0.67312267 </v>
    <v>       0.44719178       0.80861076       0.67305454 </v>
    <v>       0.94201274       0.27840891       0.67465093 </v>
    <v>       0.92321040       0.72944382       0.67044043 </v>
    <v>       0.30455688       0.05146176       0.67236819 </v>
    <v>       0.29519521       0.55545802       0.67505140 </v>
    <v>       0.80347439       0.05371909       0.67497814 </v>
    <v>       0.84171327       0.47048762       0.66334538 </v>
    <v>       0.09109872       0.17290615       0.64895255 </v>
    <v>       0.11415893       0.71907346       0.65201566 </v>
    <v>       0.58007397       0.16936869       0.64968170 </v>
    <v>       0.56949909       0.66800604       0.64966882 </v>
    <v>       0.18512419       0.41234116       0.64800894 </v>
    <v>       0.16685387       0.92776533       0.64773710 </v>
    <v>       0.64152302       0.47488746       0.65659843 </v>
    <v>       0.67526479       0.92070189       0.65041531 </v>
    <v>       0.05254681       0.18730840       0.67419564 </v>
    <v>       0.05087478       0.67266786       0.66811703 </v>
    <v>       0.55325631       0.20251668       0.67446999 </v>
    <v>       0.54023815       0.69915975       0.67454593 </v>
    <v>       0.20157185       0.44621028       0.67365763 </v>
    <v>       0.19742831       0.95426683       0.67301919 </v>
    <v>       0.71427217       0.41849278       0.66556751 </v>
    <v>       0.70264206       0.95192863       0.67562268 </v>
    <v>       0.41939856       0.32401523       0.64756220 </v>
    <v>       0.42422295       0.83642358       0.64711942 </v>
    <v>       0.92187491       0.31741559       0.64978316 </v>
    <v>       0.90923536       0.80948561       0.65568571 </v>
    <v>       0.33300232       0.07679696       0.64674319 </v>
    <v>       0.32648005       0.58430230       0.65018302 </v>
    <v>       0.83057010       0.08043908       0.64917623 </v>
    <v>       0.85018385       0.55656614       0.65090265 </v>
    <v>       0.01275634       0.25519833       0.63193590 </v>
    <v>       0.03048025       0.81084072       0.64232867 </v>
    <v>       0.49922070       0.24130984       0.63059280 </v>
    <v>       0.49861282       0.75044126       0.63066233 </v>
    <v>       0.24823219       0.00107836       0.62961849 </v>
    <v>       0.26312504       0.49540628       0.63143934 </v>
    <v>       0.75312345       0.99859271       0.63211624 </v>
    <v>       0.72284361       0.56936578       0.64580080 </v>
    <v>       0.44874502       0.30128397       0.76888902 </v>
    <v>       0.44874501       0.80128391       0.76888902 </v>
    <v>       0.94874497       0.30128397       0.76888902 </v>
    <v>       0.94874501       0.80128391       0.76888902 </v>
    <v>       0.30127600       0.05129450       0.76887296 </v>
    <v>       0.30127601       0.55129450       0.76887296 </v>
    <v>       0.80127594       0.05129450       0.76887296 </v>
    <v>       0.80127598       0.55129450       0.76887296 </v>
    <v>       0.07877100       0.17118050       0.74344197 </v>
    <v>       0.07877101       0.67118045       0.74344197 </v>
    <v>       0.57877100       0.17118050       0.74344197 </v>
    <v>       0.57877099       0.67118045       0.74344197 </v>
    <v>       0.17119950       0.42117448       0.74342103 </v>
    <v>       0.17119950       0.92117451       0.74342103 </v>
    <v>       0.67119951       0.42117448       0.74342103 </v>
    <v>       0.67119950       0.92117451       0.74342103 </v>
    <v>       0.05125600       0.19871499       0.76888902 </v>
    <v>       0.05125600       0.69871493       0.76888902 </v>
    <v>       0.55125603       0.19871499       0.76888902 </v>
    <v>       0.55125602       0.69871493       0.76888902 </v>
    <v>       0.19872349       0.44870397       0.76887205 </v>
    <v>       0.19872349       0.94870397       0.76887205 </v>
    <v>       0.69872352       0.44870397       0.76887205 </v>
    <v>       0.69872351       0.94870397       0.76887205 </v>
    <v>       0.42123152       0.32881747       0.74344197 </v>
    <v>       0.42123151       0.82881744       0.74344197 </v>
    <v>       0.92123147       0.32881747       0.74344197 </v>
    <v>       0.92123151       0.82881744       0.74344197 </v>
    <v>       0.32880050       0.07882500       0.74342103 </v>
    <v>       0.32880049       0.57882496       0.74342103 </v>
    <v>       0.82880048       0.07882500       0.74342103 </v>
    <v>       0.82880052       0.57882496       0.74342103 </v>
    <v>       0.00000350       0.25000148       0.72582199 </v>
    <v>       0.00000350       0.75000145       0.72582199 </v>
    <v>       0.50000351       0.25000148       0.72582199 </v>
    <v>       0.50000350       0.75000145       0.72582199 </v>
    <v>       0.25000050       0.00000000       0.72580398 </v>
    <v>       0.25000052       0.50000000       0.72580398 </v>
    <v>       0.75000050       0.00000000       0.72580398 </v>
    <v>       0.75000049       0.50000000       0.72580398 </v>
    <v>       0.72041704       0.44280269       0.54033958 </v>
    <v>       0.73811066       0.49399014       0.51688360 </v>
    <v>       0.66059450       0.55164846       0.55745189 </v>
    <v>       0.70786851       0.63735053       0.55600031 </v>
    <v>       0.85097842       0.50802467       0.56789319 </v>
    <v>       0.78992853       0.57659057       0.57779751 </v>
    <v>       0.87521304       0.56195541       0.53119304 </v>
    <v>       0.80416764       0.62351368       0.52234520 </v>
    <v>       0.87246542       0.46215730       0.51846179 </v>
    <v>       0.86232594       0.42244648       0.54393710 </v>
    <v>       0.87277083       0.32622447       0.51850959 </v>
    <v>       0.78396660       0.32304937       0.53008057 </v>
    <v>       0.63688446       0.55057935       0.51846045 </v>
    <v>       0.69088010       0.63297128       0.51489486 </v>
    <v>       0.60947678       0.63511381       0.53026390 </v>
    <v>       0.75703524       0.46642943       0.59608834 </v>
    <v>       0.75410931       0.41145432       0.57275390 </v>
    <v>       0.68527734       0.47946117       0.57797418 </v>
    <v>       0.81778123       0.69097985       0.55834532 </v>
    <v>       0.89757649       0.69044686       0.54244761 </v>
    <v>       0.89236813       0.62908975       0.56455084 </v>
    <v>       0.82084729       0.38160904       0.48468105 </v>
    <v>       0.78647735       0.29317242       0.49147635 </v>
    <v>       0.66305900       0.30385382       0.51787128 </v>
    <v>       0.73284020       0.46303485       0.47092042 </v>
    <v>       0.53640912       0.35545721       0.51690777 </v>
    <v>       0.60486882       0.51409794       0.46957585 </v>
    <v>       0.50671994       0.46204030       0.49306822 </v>
    <v>       0.99355906       0.24290074       0.55434415 </v>
    <v>       0.03392088       0.76814237       0.56352500 </v>
    <v>       0.46562624       0.22868467       0.55780126 </v>
    <v>       0.50432397       0.75748590       0.55577205 </v>
    <v>       0.23589973       0.53570482       0.55995129 </v>
    <v>       0.25987661       0.99368208       0.55617997 </v>
    <v>       0.77570576       0.98474284       0.56200285 </v>
    <v>       0.00668040       0.24534327       0.64911463 </v>
    <v>       0.01249233       0.76686335       0.65321000 </v>
    <v>       0.50012473       0.24684719       0.64804795 </v>
    <v>       0.49641014       0.75185439       0.64824178 </v>
    <v>       0.25678856       0.49751978       0.64884987 </v>
    <v>       0.24973921       0.00194861       0.64708719 </v>
    <v>       0.74491452       0.51846367       0.65326457 </v>
    <v>       0.75303957       0.00025984       0.64961846 </v>
    <v>       0.49998898       0.24999498       0.74327702 </v>
    <v>       0.49998903       0.74999496       0.74327702 </v>
    <v>       0.99998898       0.24999498       0.74327702 </v>
    <v>       0.99998903       0.74999496       0.74327702 </v>
    <v>       0.25000050       0.00000100       0.74325596 </v>
    <v>       0.25000052       0.50000100       0.74325596 </v>
    <v>       0.75000050       0.00000100       0.74325596 </v>
    <v>       0.75000049       0.50000100       0.74325596 </v>
    <v>       0.70713506       0.38022039       0.49455702 </v>
    <v>       0.65072539       0.34992018       0.50710942 </v>
    <v>       0.68930674       0.43918357       0.48092722 </v>
    <v>       0.57905446       0.37925342       0.50668930 </v>
    <v>       0.61801457       0.46811700       0.48015671 </v>
    <v>       0.56207784       0.43850438       0.49330469 </v>
    <v>       0.76232239       0.47665132       0.53218512 </v>
    <v>       0.69647625       0.58577795       0.54731925 </v>
    <v>       0.79285146       0.52519300       0.56858418 </v>
    <v>       0.82925638       0.59708996       0.53634275 </v>
    <v>       0.83333520       0.43172769       0.52868460 </v>
    <v>       0.81899196       0.35492936       0.51899467 </v>
    <v>       0.65752412       0.60085734       0.52626242 </v>
    <v>       0.74448154       0.46730222       0.57895583 </v>
    <v>       0.86018622       0.65448428       0.55159116 </v>
    <v>       0.78555749       0.35181873       0.49634830 </v>
    <v>       0.05621772       0.25127768       0.56450988 </v>
    <v>       0.03199088       0.70871249       0.57552460 </v>
    <v>       0.53334392       0.20693815       0.56215187 </v>
    <v>       0.48408397       0.69436439       0.56436459 </v>
    <v>       0.44054337       0.29646818       0.55970948 </v>
    <v>       0.47817124       0.82252564       0.56176055 </v>
    <v>       0.92819160       0.24929058       0.56337861 </v>
    <v>       0.98048458       0.81754988       0.56226016 </v>
    <v>       0.22989209       0.46659748       0.56625871 </v>
    <v>       0.19339331       0.01406287       0.56237585 </v>
    <v>       0.70538171       0.98603358       0.56721062 </v>
    <v>       0.31991819       0.03183836       0.56025134 </v>
    <v>       0.29919071       0.57083335       0.55745964 </v>
    <v>       0.82102570       0.04128888       0.56357573 </v>
    <v>       0.05243079       0.19844768       0.65812828 </v>
    <v>       0.06112729       0.71512735       0.65780918 </v>
    <v>       0.54736202       0.20449637       0.65822235 </v>
    <v>       0.53718110       0.70306788       0.65849059 </v>
    <v>       0.21272800       0.44854399       0.65773080 </v>
    <v>       0.20209019       0.95941262       0.65690977 </v>
    <v>       0.69749166       0.46710487       0.65885492 </v>
    <v>       0.70838077       0.95473102       0.65951210 </v>
    <v>       0.45443508       0.29430720       0.65702540 </v>
    <v>       0.45337685       0.80193924       0.65695476 </v>
    <v>       0.95425053       0.28264089       0.65878154 </v>
    <v>       0.94445071       0.76899009       0.66054417 </v>
    <v>       0.29892518       0.04567027       0.65623324 </v>
    <v>       0.29540311       0.54891221       0.65891811 </v>
    <v>       0.79787583       0.04823604       0.65880248 </v>
    <v>       0.81688573       0.51450675       0.65614796 </v>
    <v>       0.04586250       0.20411950       0.75272599 </v>
    <v>       0.04586250       0.70411946       0.75272599 </v>
    <v>       0.54586251       0.20411950       0.75272599 </v>
    <v>       0.54586250       0.70411946       0.75272599 </v>
    <v>       0.20411900       0.45410100       0.75270499 </v>
    <v>       0.20411899       0.95410095       0.75270499 </v>
    <v>       0.70411898       0.45410100       0.75270499 </v>
    <v>       0.70411896       0.95410095       0.75270499 </v>
    <v>       0.45414002       0.29588849       0.75272697 </v>
    <v>       0.45414001       0.79588852       0.75272697 </v>
    <v>       0.95414002       0.29588849       0.75272697 </v>
    <v>       0.95414006       0.79588852       0.75272697 </v>
    <v>       0.29588249       0.04590050       0.75270499 </v>
    <v>       0.29588248       0.54590053       0.75270499 </v>
    <v>       0.79588244       0.04590050       0.75270499 </v>
    <v>       0.79588248       0.54590053       0.75270499 </v>
    <v>       0.77076783       0.54604651       0.54582811 </v>
    <v>       0.51296676       0.01318576       0.55250766 </v>
    <v>       0.48582497       0.49995792       0.55385571 </v>
    <v>       0.00563160       0.00882673       0.55064865 </v>
    <v>       0.02744895       0.50214327       0.55472942 </v>
    <v>       0.25118623       0.24352320       0.55274239 </v>
    <v>       0.25193003       0.76474062       0.55284117 </v>
    <v>       0.73475742       0.21128620       0.55583102 </v>
    <v>       0.69915601       0.79625335       0.55515565 </v>
    <v>       0.99577765       0.98539065       0.65405630 </v>
    <v>       0.01517132       0.49560998       0.65531625 </v>
    <v>       0.49766902       0.00359893       0.65483630 </v>
    <v>       0.50186173       0.49592243       0.65455066 </v>
    <v>       0.25480321       0.24628793       0.65444761 </v>
    <v>       0.25449153       0.75493307       0.65423919 </v>
    <v>       0.74719954       0.26582432       0.65520863 </v>
    <v>       0.74603051       0.74160329       0.65469131 </v>
    <v>       0.12904374       0.12314049       0.60738693 </v>
    <v>       0.15375478       0.60503549       0.60795870 </v>
    <v>       0.64021577       0.11349399       0.61110203 </v>
    <v>       0.63116093       0.61960021       0.60807267 </v>
    <v>       0.36296293       0.38801290       0.60623960 </v>
    <v>       0.37135362       0.88368788       0.60641585 </v>
    <v>       0.88794388       0.36986129       0.60847198 </v>
    <v>       0.86714248       0.88184064       0.60597142 </v>
    <v>       0.12284513       0.36393285       0.60825233 </v>
    <v>       0.12305885       0.87512831       0.60675692 </v>
    <v>       0.59653572       0.34767834       0.60075773 </v>
    <v>       0.61576253       0.86725876       0.61356004 </v>
    <v>       0.38706858       0.13289961       0.60646700 </v>
    <v>       0.38594998       0.63435722       0.60965185 </v>
    <v>       0.88353389       0.13682337       0.61202378 </v>
    <v>       0.89971500       0.64145450       0.61424670 </v>
    <v>       0.00000000       0.00000000       0.75492797 </v>
    <v>       0.00000000       0.50000000       0.75492797 </v>
    <v>       0.50000000       0.00000000       0.75492797 </v>
    <v>       0.49999999       0.50000000       0.75492797 </v>
    <v>       0.25000050       0.25000000       0.75493902 </v>
    <v>       0.25000051       0.74999997       0.75493902 </v>
    <v>       0.75000047       0.25000000       0.75493902 </v>
    <v>       0.75000046       0.74999997       0.75493902 </v>
    <v>       0.13579050       0.11421000       0.70478299 </v>
    <v>       0.13579050       0.61420998       0.70478299 </v>
    <v>       0.63579045       0.11421000       0.70478299 </v>
    <v>       0.63579049       0.61420998       0.70478299 </v>
    <v>       0.36420952       0.38578999       0.70478299 </v>
    <v>       0.36420950       0.88578996       0.70478299 </v>
    <v>       0.86420954       0.38578999       0.70478299 </v>
    <v>       0.86420953       0.88578996       0.70478299 </v>
    <v>       0.11421799       0.36421899       0.70478098 </v>
    <v>       0.11421799       0.86421899       0.70478098 </v>
    <v>       0.61421800       0.36421899       0.70478098 </v>
    <v>       0.61421799       0.86421899       0.70478098 </v>
    <v>       0.38578201       0.13578149       0.70478202 </v>
    <v>       0.38578200       0.63578149       0.70478202 </v>
    <v>       0.88578199       0.13578149       0.70478202 </v>
    <v>       0.88578203       0.63578149       0.70478202 </v>
    <v>       0.13466700       0.11533200       0.80125603 </v>
    <v>       0.13466699       0.61533199       0.80125603 </v>
    <v>       0.63466699       0.11533200       0.80125603 </v>
    <v>       0.63466698       0.61533199       0.80125603 </v>
    <v>       0.36533300       0.38466799       0.80125603 </v>
    <v>       0.36533299       0.88466796       0.80125603 </v>
    <v>       0.86533295       0.38466799       0.80125603 </v>
    <v>       0.86533294       0.88466796       0.80125603 </v>
    <v>       0.11532850       0.36533700       0.80126500 </v>
    <v>       0.11532850       0.86533698       0.80126500 </v>
    <v>       0.61532850       0.36533700       0.80126500 </v>
    <v>       0.61532849       0.86533698       0.80126500 </v>
    <v>       0.38467151       0.13466300       0.80126500 </v>
    <v>       0.38467150       0.63466297       0.80126500 </v>
    <v>       0.88467149       0.13466300       0.80126500 </v>
    <v>       0.88467153       0.63466297       0.80126500 </v>
    <v>       0.99745910       0.00423941       0.60427107 </v>
    <v>       0.00807218       0.50304843       0.60454816 </v>
    <v>       0.50431335       0.00149778       0.60484955 </v>
    <v>       0.50142531       0.49902060       0.60413414 </v>
    <v>       0.25358368       0.25025844       0.60399764 </v>
    <v>       0.24997345       0.75214625       0.60301874 </v>
    <v>       0.74641329       0.25264139       0.60522902 </v>
    <v>       0.74307465       0.75664103       0.60415642 </v>
    <v>       0.00000050       0.00000050       0.70482896 </v>
    <v>       0.00000050       0.50000048       0.70482896 </v>
    <v>       0.50000048       0.00000050       0.70482896 </v>
    <v>       0.50000046       0.50000048       0.70482896 </v>
    <v>       0.24999999       0.24999947       0.70482499 </v>
    <v>       0.25000001       0.74999950       0.70482499 </v>
    <v>       0.74999999       0.24999947       0.70482499 </v>
    <v>       0.74999998       0.74999950       0.70482499 </v>
    <v>       0.00000000       0.00000000       0.80731797 </v>
    <v>       0.00000000       0.50000000       0.80731797 </v>
    <v>       0.50000000       0.00000000       0.80731797 </v>
    <v>       0.49999999       0.50000000       0.80731797 </v>
    <v>       0.24999999       0.25000000       0.80731797 </v>
    <v>       0.25000001       0.74999997       0.80731797 </v>
    <v>       0.74999999       0.25000000       0.80731797 </v>
    <v>       0.74999998       0.74999997       0.80731797 </v>
   </varray>
  </structure>
  <varray name="primitive_index" >
   <v type="int" >        1 </v>
   <v type="int" >        2 </v>
   <v type="int" >        3 </v>
   <v type="int" >        4 </v>
   <v type="int" >        5 </v>
   <v type="int" >        6 </v>
   <v type="int" >        7 </v>
   <v type="int" >        8 </v>
   <v type="int" >        9 </v>
   <v type="int" >       10 </v>
   <v type="int" >       11 </v>
   <v type="int" >       12 </v>
   <v type="int" >       13 </v>
   <v type="int" >       14 </v>
   <v type="int" >       15 </v>
   <v type="int" >       16 </v>
   <v type="int" >       17 </v>
   <v type="int" >       18 </v>
   <v type="int" >       19 </v>
   <v type="int" >       20 </v>
   <v type="int" >       21 </v>
   <v type="int" >       22 </v>
   <v type="int" >       23 </v>
   <v type="int" >       24 </v>
   <v type="int" >       25 </v>
   <v type="int" >       26 </v>
   <v type="int" >       27 </v>
   <v type="int" >       28 </v>
   <v type="int" >       29 </v>
   <v type="int" >       30 </v>
   <v type="int" >       31 </v>
   <v type="int" >       32 </v>
   <v type="int" >       33 </v>
   <v type="int" >       34 </v>
   <v type="int" >       35 </v>
   <v type="int" >       36 </v>
   <v type="int" >       37 </v>
   <v type="int" >       38 </v>
   <v type="int" >       39 </v>
   <v type="int" >       40 </v>
   <v type="int" >       41 </v>
   <v type="int" >       42 </v>
   <v type="int" >       43 </v>
   <v type="int" >       44 </v>
   <v type="int" >       45 </v>
   <v type="int" >       46 </v>
   <v type="int" >       47 </v>
   <v type="int" >       48 </v>
   <v type="int" >       49 </v>
   <v type="int" >       50 </v>
   <v type="int" >       51 </v>
   <v type="int" >       52 </v>
   <v type="int" >       53 </v>
   <v type="int" >       54 </v>
   <v type="int" >       55 </v>
   <v type="int" >       56 </v>
   <v type="int" >       57 </v>
   <v type="int" >       58 </v>
   <v type="int" >       59 </v>
   <v type="int" >       60 </v>
   <v type="int" >       61 </v>
   <v type="int" >       62 </v>
   <v type="int" >       63 </v>
   <v type="int" >       64 </v>
   <v type="int" >       65 </v>
   <v type="int" >       66 </v>
   <v type="int" >       67 </v>
   <v type="int" >       68 </v>
   <v type="int" >       69 </v>
   <v type="int" >       70 </v>
   <v type="int" >       71 </v>
   <v type="int" >       72 </v>
   <v type="int" >       73 </v>
   <v type="int" >       74 </v>
   <v type="int" >       75 </v>
   <v type="int" >       76 </v>
   <v type="int" >       77 </v>
   <v type="int" >       78 </v>
   <v type="int" >       79 </v>
   <v type="int" >       80 </v>
   <v type="int" >       81 </v>
   <v type="int" >       82 </v>
   <v type="int" >       83 </v>
   <v type="int" >       84 </v>
   <v type="int" >       85 </v>
   <v type="int" >       86 </v>
   <v type="int" >       87 </v>
   <v type="int" >       88 </v>
   <v type="int" >       89 </v>
   <v type="int" >       90 </v>
   <v type="int" >       91 </v>
   <v type="int" >       92 </v>
   <v type="int" >       93 </v>
   <v type="int" >       94 </v>
   <v type="int" >       95 </v>
   <v type="int" >       96 </v>
   <v type="int" >       97 </v>
   <v type="int" >       98 </v>
   <v type="int" >       99 </v>
   <v type="int" >      100 </v>
   <v type="int" >      101 </v>
   <v type="int" >      102 </v>
   <v type="int" >      103 </v>
   <v type="int" >      104 </v>
   <v type="int" >      105 </v>
   <v type="int" >      106 </v>
   <v type="int" >      107 </v>
   <v type="int" >      108 </v>
   <v type="int" >      109 </v>
   <v type="int" >      110 </v>
   <v type="int" >      111 </v>
   <v type="int" >      112 </v>
   <v type="int" >      113 </v>
   <v type="int" >      114 </v>
   <v type="int" >      115 </v>
   <v type="int" >      116 </v>
   <v type="int" >      117 </v>
   <v type="int" >      118 </v>
   <v type="int" >      119 </v>
   <v type="int" >      120 </v>
   <v type="int" >      121 </v>
   <v type="int" >      122 </v>
   <v type="int" >      123 </v>
   <v type="int" >      124 </v>
   <v type="int" >      125 </v>
   <v type="int" >      126 </v>
   <v type="int" >      127 </v>
   <v type="int" >      128 </v>
   <v type="int" >      129 </v>
   <v type="int" >      130 </v>
   <v type="int" >      131 </v>
   <v type="int" >      132 </v>
   <v type="int" >      133 </v>
   <v type="int" >      134 </v>
   <v type="int" >      135 </v>
   <v type="int" >      136 </v>
   <v type="int" >      137 </v>
   <v type="int" >      138 </v>
   <v type="int" >      139 </v>
   <v type="int" >      140 </v>
   <v type="int" >      141 </v>
   <v type="int" >      142 </v>
   <v type="int" >      143 </v>
   <v type="int" >      144 </v>
   <v type="int" >      145 </v>
   <v type="int" >      146 </v>
   <v type="int" >      147 </v>
   <v type="int" >      148 </v>
   <v type="int" >      149 </v>
   <v type="int" >      150 </v>
   <v type="int" >      151 </v>
   <v type="int" >      152 </v>
   <v type="int" >      153 </v>
   <v type="int" >      154 </v>
   <v type="int" >      155 </v>
   <v type="int" >      156 </v>
   <v type="int" >      157 </v>
   <v type="int" >      158 </v>
   <v type="int" >      159 </v>
   <v type="int" >      160 </v>
   <v type="int" >      161 </v>
   <v type="int" >      162 </v>
   <v type="int" >      163 </v>
   <v type="int" >      164 </v>
   <v type="int" >      165 </v>
   <v type="int" >      166 </v>
   <v type="int" >      167 </v>
   <v type="int" >      168 </v>
   <v type="int" >      169 </v>
   <v type="int" >      170 </v>
   <v type="int" >      171 </v>
   <v type="int" >      172 </v>
   <v type="int" >      173 </v>
   <v type="int" >      174 </v>
   <v type="int" >      175 </v>
   <v type="int" >      176 </v>
   <v type="int" >      177 </v>
   <v type="int" >      178 </v>
   <v type="int" >      179 </v>
   <v type="int" >      180 </v>
   <v type="int" >      181 </v>
   <v type="int" >      182 </v>
   <v type="int" >      183 </v>
   <v type="int" >      184 </v>
   <v type="int" >      185 </v>
   <v type="int" >      186 </v>
   <v type="int" >      187 </v>
   <v type="int" >      188 </v>
   <v type="int" >      189 </v>
   <v type="int" >      190 </v>
   <v type="int" >      191 </v>
   <v type="int" >      192 </v>
   <v type="int" >      193 </v>
   <v type="int" >      194 </v>
   <v type="int" >      195 </v>
   <v type="int" >      196 </v>
   <v type="int" >      197 </v>
   <v type="int" >      198 </v>
   <v type="int" >      199 </v>
   <v type="int" >      200 </v>
   <v type="int" >      201 </v>
   <v type="int" >      202 </v>
   <v type="int" >      203 </v>
   <v type="int" >      204 </v>
   <v type="int" >      205 </v>
   <v type="int" >      206 </v>
   <v type="int" >      207 </v>
   <v type="int" >      208 </v>
   <v type="int" >      209 </v>
   <v type="int" >      210 </v>
   <v type="int" >      211 </v>
   <v type="int" >      212 </v>
   <v type="int" >      213 </v>
   <v type="int" >      214 </v>
   <v type="int" >      215 </v>
   <v type="int" >      216 </v>
   <v type="int" >      217 </v>
   <v type="int" >      218 </v>
   <v type="int" >      219 </v>
   <v type="int" >      220 </v>
   <v type="int" >      221 </v>
   <v type="int" >      222 </v>
   <v type="int" >      223 </v>
   <v type="int" >      224 </v>
   <v type="int" >      225 </v>
   <v type="int" >      226 </v>
   <v type="int" >      227 </v>
   <v type="int" >      228 </v>
   <v type="int" >      229 </v>
   <v type="int" >      230 </v>
   <v type="int" >      231 </v>
   <v type="int" >      232 </v>
   <v type="int" >      233 </v>
   <v type="int" >      234 </v>
   <v type="int" >      235 </v>
   <v type="int" >      236 </v>
   <v type="int" >      237 </v>
   <v type="int" >      238 </v>
   <v type="int" >      239 </v>
   <v type="int" >      240 </v>
   <v type="int" >      241 </v>
   <v type="int" >      242 </v>
   <v type="int" >      243 </v>
   <v type="int" >      244 </v>
   <v type="int" >      245 </v>
   <v type="int" >      246 </v>
   <v type="int" >      247 </v>
   <v type="int" >      248 </v>
   <v type="int" >      249 </v>
   <v type="int" >      250 </v>
   <v type="int" >      251 </v>
   <v type="int" >      252 </v>
   <v type="int" >      253 </v>
   <v type="int" >      254 </v>
   <v type="int" >      255 </v>
   <v type="int" >      256 </v>
   <v type="int" >      257 </v>
   <v type="int" >      258 </v>
   <v type="int" >      259 </v>
   <v type="int" >      260 </v>
   <v type="int" >      261 </v>
   <v type="int" >      262 </v>
   <v type="int" >      263 </v>
   <v type="int" >      264 </v>
   <v type="int" >      265 </v>
   <v type="int" >      266 </v>
   <v type="int" >      267 </v>
   <v type="int" >      268 </v>
   <v type="int" >      269 </v>
   <v type="int" >      270 </v>
   <v type="int" >      271 </v>
   <v type="int" >      272 </v>
   <v type="int" >      273 </v>
   <v type="int" >      274 </v>
   <v type="int" >      275 </v>
   <v type="int" >      276 </v>
   <v type="int" >      277 </v>
   <v type="int" >      278 </v>
   <v type="int" >      279 </v>
   <v type="int" >      280 </v>
   <v type="int" >      281 </v>
   <v type="int" >      282 </v>
   <v type="int" >      283 </v>
   <v type="int" >      284 </v>
   <v type="int" >      285 </v>
   <v type="int" >      286 </v>
   <v type="int" >      287 </v>
   <v type="int" >      288 </v>
   <v type="int" >      289 </v>
   <v type="int" >      290 </v>
   <v type="int" >      291 </v>
   <v type="int" >      292 </v>
   <v type="int" >      293 </v>
   <v type="int" >      294 </v>
   <v type="int" >      295 </v>
   <v type="int" >      296 </v>
   <v type="int" >      297 </v>
   <v type="int" >      298 </v>
   <v type="int" >      299 </v>
   <v type="int" >      300 </v>
   <v type="int" >      301 </v>
   <v type="int" >      302 </v>
   <v type="int" >      303 </v>
   <v type="int" >      304 </v>
   <v type="int" >      305 </v>
   <v type="int" >      306 </v>
   <v type="int" >      307 </v>
   <v type="int" >      308 </v>
   <v type="int" >      309 </v>
   <v type="int" >      310 </v>
   <v type="int" >      311 </v>
   <v type="int" >      312 </v>
   <v type="int" >      313 </v>
   <v type="int" >      314 </v>
   <v type="int" >      315 </v>
   <v type="int" >      316 </v>
   <v type="int" >      317 </v>
   <v type="int" >      318 </v>
   <v type="int" >      319 </v>
   <v type="int" >      320 </v>
   <v type="int" >      321 </v>
   <v type="int" >      322 </v>
   <v type="int" >      323 </v>
   <v type="int" >      324 </v>
   <v type="int" >      325 </v>
  </varray>
 </primitive_cell>
 <kpoints>
  <generation param="Gamma">
   <v type="int" name="divisions">       3        3        1 </v>
   <v name="usershift">      0.00000000       0.00000000       0.00000000 </v>
   <v name="genvec1">      0.33333333       0.00000000       0.00000000 </v>
   <v name="genvec2">      0.00000000       0.33333333       0.00000000 </v>
   <v name="genvec3">      0.00000000       0.00000000       1.00000000 </v>
   <v name="shift">      0.00000000       0.00000000       0.00000000 </v>
  </generation>
  <varray name="kpointlist" >
   <v>       0.00000000       0.00000000       0.00000000 </v>
   <v>       0.33333333       0.00000000       0.00000000 </v>
   <v>       0.00000000       0.33333333       0.00000000 </v>
   <v>       0.33333333       0.33333333       0.00000000 </v>
   <v>      -0.33333333       0.33333333       0.00000000 </v>
  </varray>
  <varray name="weights" >
   <v>       0.11111111 </v>
   <v>       0.22222222 </v>
   <v>       0.22222222 </v>
   <v>       0.22222222 </v>
   <v>       0.22222222 </v>
  </varray>
 </kpoints>
 <parameters>
  <separator name="general" >
   <i type="string" name="SYSTEM">PSC</i>
   <i type="logical" name="LCOMPAT"> F  </i>
  </separator>
  <separator name="electronic" >
   <i type="string" name="PREC">normal</i>
   <i name="ENMAX">    500.00000000</i>
   <i name="ENAUG">    644.87300000</i>
   <i name="EDIFF">      0.00010000</i>
   <i type="int" name="IALGO">    38</i>
   <i type="int" name="IWAVPR">    10</i>
   <i type="int" name="NBANDS">   732</i>
   <i type="int" name="NBANDSLOW">    -1</i>
   <i type="int" name="NBANDSHIGH">    -1</i>
   <i name="NELECT">   1134.00000000</i>
   <i type="int" name="TURBO">     0</i>
   <i type="int" name="IRESTART">     0</i>
   <i type="int" name="NREBOOT">     0</i>
   <i type="int" name="NMIN">     0</i>
   <i name="EREF">      0.00000000</i>
   <separator name="electronic smearing" >
    <i type="int" name="ISMEAR">     0</i>
    <i name="SIGMA">      0.05000000</i>
    <i name="KSPACING">      0.50000000</i>
    <i type="logical" name="KGAMMA"> T  </i>
    <i type="logical" name="KBLOWUP"> T  </i>
   </separator>
   <separator name="electronic projectors" >
    <i type="logical" name="LREAL"> T  </i>
    <v name="ROPT">     -0.00050000     -0.00050000     -0.00050000     -0.00050000     -0.00050000</v>
    <i type="int" name="LMAXPAW">  -100</i>
    <i type="int" name="LMAXMIX">     2</i>
    <i type="logical" name="NLSPLINE"> F  </i>
   </separator>
   <separator name="electronic startup" >
    <i type="int" name="ISTART">     0</i>
    <i type="int" name="ICHARG">     1</i>
    <i type="int" name="INIWAV">     1</i>
   </separator>
   <separator name="electronic spin" >
    <i type="int" name="ISPIN">     1</i>
    <i type="logical" name="LNONCOLLINEAR"> F  </i>
    <v name="MAGMOM">      1.00000000      1.00000000      1.00000000      1.00000000      1.00000000      1.00000000      1.00000000      1.00000000      1.00000000      1.00000000      1.00000000      1.00000000      1.00000000      1.00000000      1.00000000      1.00000000      1.00000000      1.00000000      1.00000000      1.00000000
      1.00000000      1.00000000      1.00000000      1.00000000      1.00000000      1.00000000      1.00000000      1.00000000      1.00000000      1.00000000      1.00000000      1.00000000      1.00000000      1.00000000      1.00000000      1.00000000      1.00000000      1.00000000      1.00000000      1.00000000
      1.00000000      1.00000000      1.00000000      1.00000000      1.00000000      1.00000000      1.00000000      1.00000000      1.00000000      1.00000000      1.00000000      1.00000000      1.00000000      1.00000000      1.00000000      1.00000000      1.00000000      1.00000000      1.00000000      1.00000000
      1.00000000      1.00000000      1.00000000      1.00000000      1.00000000      1.00000000      1.00000000      1.00000000      1.00000000      1.00000000      1.00000000      1.00000000      1.00000000      1.00000000      1.00000000      1.00000000      1.00000000      1.00000000      1.00000000      1.00000000
      1.00000000      1.00000000      1.00000000      1.00000000      1.00000000      1.00000000      1.00000000      1.00000000      1.00000000      1.00000000      1.00000000      1.00000000      1.00000000      1.00000000      1.00000000      1.00000000      1.00000000      1.00000000      1.00000000      1.00000000
      1.00000000      1.00000000      1.00000000      1.00000000      1.00000000      1.00000000      1.00000000      1.00000000      1.00000000      1.00000000      1.00000000      1.00000000      1.00000000      1.00000000      1.00000000      1.00000000      1.00000000      1.00000000      1.00000000      1.00000000
      1.00000000      1.00000000      1.00000000      1.00000000      1.00000000      1.00000000      1.00000000      1.00000000      1.00000000      1.00000000      1.00000000      1.00000000      1.00000000      1.00000000      1.00000000      1.00000000      1.00000000      1.00000000      1.00000000      1.00000000
      1.00000000      1.00000000      1.00000000      1.00000000      1.00000000      1.00000000      1.00000000      1.00000000      1.00000000      1.00000000      1.00000000      1.00000000      1.00000000      1.00000000      1.00000000      1.00000000      1.00000000      1.00000000      1.00000000      1.00000000
      1.00000000      1.00000000      1.00000000      1.00000000      1.00000000      1.00000000      1.00000000      1.00000000      1.00000000      1.00000000      1.00000000      1.00000000      1.00000000      1.00000000      1.00000000      1.00000000      1.00000000      1.00000000      1.00000000      1.00000000
      1.00000000      1.00000000      1.00000000      1.00000000      1.00000000      1.00000000      1.00000000      1.00000000      1.00000000      1.00000000      1.00000000      1.00000000      1.00000000      1.00000000      1.00000000      1.00000000      1.00000000      1.00000000      1.00000000      1.00000000
      1.00000000      1.00000000      1.00000000      1.00000000      1.00000000      1.00000000      1.00000000      1.00000000      1.00000000      1.00000000      1.00000000      1.00000000      1.00000000      1.00000000      1.00000000      1.00000000      1.00000000      1.00000000      1.00000000      1.00000000
      1.00000000      1.00000000      1.00000000      1.00000000      1.00000000      1.00000000      1.00000000      1.00000000      1.00000000      1.00000000      1.00000000      1.00000000      1.00000000      1.00000000      1.00000000      1.00000000      1.00000000      1.00000000      1.00000000      1.00000000
      1.00000000      1.00000000      1.00000000      1.00000000      1.00000000      1.00000000      1.00000000      1.00000000      1.00000000      1.00000000      1.00000000      1.00000000      1.00000000      1.00000000      1.00000000      1.00000000      1.00000000      1.00000000      1.00000000      1.00000000
      1.00000000      1.00000000      1.00000000      1.00000000      1.00000000      1.00000000      1.00000000      1.00000000      1.00000000      1.00000000      1.00000000      1.00000000      1.00000000      1.00000000      1.00000000      1.00000000      1.00000000      1.00000000      1.00000000      1.00000000
      1.00000000      1.00000000      1.00000000      1.00000000      1.00000000      1.00000000      1.00000000      1.00000000      1.00000000      1.00000000      1.00000000      1.00000000      1.00000000      1.00000000      1.00000000      1.00000000      1.00000000      1.00000000      1.00000000      1.00000000
      1.00000000      1.00000000      1.00000000      1.00000000      1.00000000      1.00000000      1.00000000      1.00000000      1.00000000      1.00000000      1.00000000      1.00000000      1.00000000      1.00000000      1.00000000      1.00000000      1.00000000      1.00000000      1.00000000      1.00000000
      1.00000000      1.00000000      1.00000000      1.00000000      1.00000000</v>
    <i name="NUPDOWN">     -1.00000000</i>
    <i type="logical" name="LSORBIT"> F  </i>
    <v name="SAXIS">      0.00000000      0.00000000      1.00000000</v>
    <i type="logical" name="LSPIRAL"> F  </i>
    <v name="QSPIRAL">      0.00000000      0.00000000      0.00000000</v>
    <i type="logical" name="LZEROZ"> F  </i>
   </separator>
   <separator name="electronic exchange-correlation" >
    <i type="logical" name="LASPH"> F  </i>
    <i type="logical" name="LMETAGGA"> F  </i>
   </separator>
   <separator name="electronic convergence" >
    <i type="int" name="NELM">   600</i>
    <i type="int" name="NELMDL">     0</i>
    <i type="int" name="NELMIN">     2</i>
    <i name="ENINI">    500.00000000</i>
    <separator name="electronic convergence detail" >
     <i type="logical" name="LDIAG"> T  </i>
     <i type="logical" name="LSUBROT"> F  </i>
     <i name="WEIMIN">      0.00000000</i>
     <i name="EBREAK">      0.00000003</i>
     <i name="DEPER">      0.30000000</i>
     <i type="int" name="NRMM">     4</i>
     <i name="TIME">      0.40000000</i>
    </separator>
   </separator>
   <separator name="electronic mixer" >
    <i name="AMIX">      0.40000000</i>
    <i name="BMIX">      0.01000000</i>
    <i name="AMIN">      0.01000000</i>
    <i name="AMIX_MAG">      1.60000000</i>
    <i name="BMIX_MAG">      0.01000000</i>
    <separator name="electronic mixer details" >
     <i type="int" name="IMIX">     4</i>
     <i type="logical" name="MIXFIRST"> F  </i>
     <i type="int" name="MAXMIX">   -45</i>
     <i name="WC">    100.00000000</i>
     <i type="int" name="INIMIX">     1</i>
     <i type="int" name="MIXPRE">     1</i>
     <i type="int" name="MREMOVE">     5</i>
    </separator>
   </separator>
   <separator name="electronic dipolcorrection" >
    <i type="logical" name="LDIPOL"> T  </i>
    <i type="logical" name="LMONO"> F  </i>
    <i type="int" name="IDIPOL">     3</i>
    <i name="EPSILON">      1.00000000</i>
    <v name="DIPOL">   -100.00000000   -100.00000000   -100.00000000</v>
    <i name="EFIELD">      0.00000000</i>
   </separator>
  </separator>
  <separator name="grids" >
   <i type="int" name="NGX">   100</i>
   <i type="int" name="NGY">   100</i>
   <i type="int" name="NGZ">   350</i>
   <i type="int" name="NGXF">   200</i>
   <i type="int" name="NGYF">   200</i>
   <i type="int" name="NGZF">   700</i>
   <i type="logical" name="ADDGRID"> F  </i>
  </separator>
  <separator name="ionic" >
   <i type="int" name="NSW">     0</i>
   <i type="int" name="IBRION">    -1</i>
   <i type="int" name="MDALGO">     0</i>
   <i type="int" name="ISIF">     2</i>
   <i name="PSTRESS">      0.00000000</i>
   <i name="EDIFFG">      0.00100000</i>
   <i type="int" name="NFREE">     0</i>
   <i name="POTIM">      0.50000000</i>
   <i name="SMASS">     -3.00000000</i>
   <i name="SCALEE">      1.00000000</i>
  </separator>
  <separator name="ionic md" >
   <i name="TEBEG">      0.00010000</i>
   <i name="TEEND">      0.00010000</i>
   <i type="int" name="NBLOCK">     1</i>
   <i type="int" name="KBLOCK">     1</i>
   <i type="int" name="NPACO">   256</i>
   <i name="APACO">     16.00000000</i>
  </separator>
  <separator name="symmetry" >
   <i type="int" name="ISYM">     0</i>
   <i name="SYMPREC">      0.00001000</i>
  </separator>
  <separator name="dos" >
   <i type="int" name="LORBIT">     0</i>
   <v name="RWIGS">     -1.00000000     -1.00000000     -1.00000000     -1.00000000     -1.00000000</v>
   <i type="int" name="NEDOS">   301</i>
   <i name="EMIN">     10.00000000</i>
   <i name="EMAX">    -10.00000000</i>
   <i name="EFERMI">      0.00000000</i>
  </separator>
  <separator name="writing" >
   <i type="int" name="NWRITE">     2</i>
   <i type="logical" name="LWAVE"> F  </i>
   <i type="logical" name="LDOWNSAMPLE"> F  </i>
   <i type="logical" name="LCHARG"> T  </i>
   <i type="logical" name="LPARD"> F  </i>
   <i type="logical" name="LVTOT"> T  </i>
   <i type="logical" name="LVHAR"> F  </i>
   <i type="logical" name="LELF"> F  </i>
   <i type="logical" name="LOPTICS"> F  </i>
   <v name="STM">      0.00000000      0.00000000      0.00000000      0.00000000      0.00000000      0.00000000      0.00000000</v>
  </separator>
  <separator name="performance" >
   <i type="int" name="NPAR">     4</i>
   <i type="int" name="NSIM">     4</i>
   <i type="int" name="NBLK">    -1</i>
   <i type="logical" name="LPLANE"> T  </i>
   <i type="logical" name="LSCALAPACK"> T  </i>
   <i type="logical" name="LSCAAWARE"> F  </i>
   <i type="logical" name="LSCALU"> F  </i>
   <i type="logical" name="LASYNC"> F  </i>
   <i type="logical" name="LORBITALREAL"> F  </i>
  </separator>
  <separator name="miscellaneous" >
   <i type="int" name="IDIOT">     3</i>
   <i type="int" name="PHON_NSTRUCT">    -1</i>
   <i type="logical" name="LMUSIC"> F  </i>
   <v name="POMASS">      1.00000000     12.01100000     14.00100000    126.90400000    207.20000000</v>
   <v name="DARWINR">      0.00000000      0.00000000      0.00000000      0.00000000      0.00000000</v>
   <v name="DARWINV">      1.00000000      1.00000000      1.00000000      1.00000000      1.00000000</v>
   <i type="logical" name="LCORR"> T  </i>
  </separator>
  <i type="logical" name="GGA_COMPAT"> F  </i>
  <i type="logical" name="LBERRY"> F  </i>
  <i type="int" name="ICORELEVEL">     0</i>
  <i type="logical" name="LDAU"> F  </i>
  <i type="int" name="I_CONSTRAINED_M">     0</i>
  <separator name="electronic exchange-correlation" >
   <i type="string" name="GGA">--</i>
   <i type="int" name="VOSKOWN">     0</i>
   <i type="logical" name="LHFCALC"> F  </i>
   <i type="string" name="PRECFOCK"></i>
   <i type="logical" name="LSYMGRAD"> F  </i>
   <i type="logical" name="LHFONE"> F  </i>
   <i type="logical" name="LRHFCALC"> F  </i>
   <i type="logical" name="LTHOMAS"> F  </i>
   <i type="logical" name="LMODELHF"> F  </i>
   <i type="logical" name="LFOCKACE"> F  </i>
   <i name="ENCUT4O">     -1.00000000</i>
   <i type="int" name="EXXOEP">     0</i>
   <i type="int" name="FOURORBIT">     0</i>
   <i name="AEXX">      0.00000000</i>
   <i name="HFALPHA">      0.00000000</i>
   <i name="MCALPHA">      0.00000000</i>
   <i name="ALDAX">      1.00000000</i>
   <i name="AGGAX">      1.00000000</i>
   <i name="ALDAC">      1.00000000</i>
   <i name="AGGAC">      1.00000000</i>
   <i type="int" name="NKREDX">     1</i>
   <i type="int" name="NKREDY">     1</i>
   <i type="int" name="NKREDZ">     1</i>
   <i type="logical" name="SHIFTRED"> F  </i>
   <i type="logical" name="ODDONLY"> F  </i>
   <i type="logical" name="EVENONLY"> F  </i>
   <i type="int" name="LMAXFOCK">     0</i>
   <i type="int" name="NMAXFOCKAE">     0</i>
   <i type="logical" name="LFOCKAEDFT"> F  </i>
   <i name="HFSCREEN">      0.00000000</i>
   <i name="HFSCREENC">      0.00000000</i>
   <i type="int" name="NBANDSGWLOW">     0</i>
  </separator>
  <separator name="vdW DFT" >
   <i type="logical" name="LUSE_VDW"> F  </i>
   <i name="Zab_VDW">     -0.84910000</i>
   <i name="PARAM1">      0.12340000</i>
   <i name="PARAM2">      1.00000000</i>
   <i name="PARAM3">      0.00000000</i>
  </separator>
  <separator name="model GW" >
   <i type="int" name="MODEL_GW">     0</i>
   <i name="MODEL_EPS0">     37.63423484</i>
   <i name="MODEL_ALPHA">      1.00000000</i>
  </separator>
  <separator name="linear response parameters" >
   <i type="logical" name="LEPSILON"> F  </i>
   <i type="logical" name="LRPA"> F  </i>
   <i type="logical" name="LNABLA"> F  </i>
   <i type="logical" name="LVEL"> F  </i>
   <i type="int" name="KINTER">     0</i>
   <i name="CSHIFT">      0.10000000</i>
   <i name="OMEGAMAX">     -1.00000000</i>
   <i name="DEG_THRESHOLD">      0.00200000</i>
   <i name="RTIME">     -0.10000000</i>
   <i name="WPLASMAI">      0.00000000</i>
   <v name="DFIELD">      0.00000000      0.00000000      0.00000000</v>
   <v name="WPLASMA">      0.00000000      0.00000000      0.00000000      0.00000000      0.00000000      0.00000000      0.00000000      0.00000000      0.00000000</v>
  </separator>
  <separator name="orbital magnetization" >
   <i type="logical" name="NUCIND"> F  </i>
   <v name="MAGPOS">      0.00000000      0.00000000      0.00000000</v>
   <i type="logical" name="LNICSALL"> T  </i>
   <i type="logical" name="ORBITALMAG"> F  </i>
   <i type="logical" name="LMAGBLOCH"> F  </i>
   <i type="logical" name="LCHIMAG"> F  </i>
   <i type="logical" name="LGAUGE"> T  </i>
   <i type="int" name="MAGATOM">     0</i>
   <v name="MAGDIPOL">      0.00000000      0.00000000      0.00000000</v>
   <v name="AVECCONST">      0.00000000      0.00000000      0.00000000</v>
  </separator>
  <separator name="response functions" >
   <i type="logical" name="LFINITE_TEMPERATURE"> F  </i>
   <i type="logical" name="LADDER"> F  </i>
   <i type="logical" name="LRPAFORCE"> F  </i>
   <i type="logical" name="LFXC"> F  </i>
   <i type="logical" name="LHARTREE"> T  </i>
   <i type="int" name="IBSE">     0</i>
   <v type="int" name="KPOINT">    -1     0     0     0</v>
   <i type="logical" name="LTCTC"> F  </i>
   <i type="logical" name="LTCTE"> F  </i>
   <i type="logical" name="LTETE"> F  </i>
   <i type="logical" name="LTRIPLET"> F  </i>
   <i type="logical" name="LFXCEPS"> F  </i>
   <i type="logical" name="LFXHEG"> F  </i>
   <i type="int" name="NATURALO">     2</i>
   <i type="logical" name="LHOLEGF"> F  </i>
   <i type="logical" name="L2ORDER"> F  </i>
   <i type="logical" name="LDMP1"> F  </i>
   <i type="logical" name="LMP2LT"> F  </i>
   <i type="logical" name="LSMP2LT"> F  </i>
   <i type="logical" name="LGWLF"> F  </i>
   <i name="ENCUTGW">     -2.00000000</i>
   <i name="ENCUTGWSOFT">     -2.00000000</i>
   <i name="ENCUTLF">     -1.00000000</i>
   <i type="logical" name="LESF_SPLINES"> F  </i>
   <i type="int" name="LMAXMP2">    -1</i>
   <i name="SCISSOR">      0.00000000</i>
   <i type="int" name="NOMEGA">     0</i>
   <i type="int" name="NOMEGAR">     0</i>
   <i type="int" name="NBANDSGW">    -1</i>
   <i type="int" name="NBANDSO">    -1</i>
   <i type="int" name="NBANDSV">    -1</i>
   <i type="int" name="NELM">   600</i>
   <i type="int" name="NELMHF">     1</i>
   <i type="int" name="DIM">     3</i>
   <i type="int" name="IESPILON">     4</i>
   <i type="int" name="ANTIRES">     0</i>
   <i name="OMEGAMAX">    -30.00000000</i>
   <i name="OMEGAMIN">    -30.00000000</i>
   <i name="OMEGATL">   -200.00000000</i>
   <i type="int" name="OMEGAGRID">     0</i>
   <i name="CSHIFT">     -0.10000000</i>
   <i type="logical" name="LSELFENERGY"> F  </i>
   <i type="logical" name="LSPECTRAL"> F  </i>
   <i type="logical" name="LSPECTRALGW"> F  </i>
   <i type="logical" name="LSINGLES"> F  </i>
   <i type="logical" name="LFERMIGW"> F  </i>
   <i type="logical" name="ODDONLYGW"> F  </i>
   <i type="logical" name="EVENONLYGW"> F  </i>
   <i type="int" name="NKREDLFX">     1</i>
   <i type="int" name="NKREDLFY">     1</i>
   <i type="int" name="NKREDLFZ">     1</i>
   <i type="int" name="MAXMEM">  2800</i>
   <i type="int" name="TELESCOPE">     0</i>
   <i type="int" name="NTAUPAR">    -1</i>
   <i type="int" name="NOMEGAPAR">    -1</i>
   <i name="DAMP_NEWTON">      0.80000001</i>
   <i name="LAMBDA">      1.00000000</i>
  </separator>
  <separator name="External order field" >
   <i name="OFIELD_KAPPA">      0.00000000</i>
   <v name="OFIELD_K">      0.00000000      0.00000000      0.00000000</v>
   <i name="OFIELD_Q6_NEAR">      0.00000000</i>
   <i name="OFIELD_Q6_FAR">      0.00000000</i>
   <i name="OFIELD_A">      0.00000000</i>
  </separator>
 </parameters>
 <atominfo>
  <atoms>     325 </atoms>
  <types>       5 </types>
  <array name="atoms" >
   <dimension dim="1">ion</dimension>
   <field type="string">element</field>
   <field type="int">atomtype</field>
   <set>
    <rc><c>H </c><c>   1</c></rc>
    <rc><c>H </c><c>   1</c></rc>
    <rc><c>H </c><c>   1</c></rc>
    <rc><c>H </c><c>   1</c></rc>
    <rc><c>H </c><c>   1</c></rc>
    <rc><c>H </c><c>   1</c></rc>
    <rc><c>H </c><c>   1</c></rc>
    <rc><c>H </c><c>   1</c></rc>
    <rc><c>H </c><c>   1</c></rc>
    <rc><c>H </c><c>   1</c></rc>
    <rc><c>H </c><c>   1</c></rc>
    <rc><c>H </c><c>   1</c></rc>
    <rc><c>H </c><c>   1</c></rc>
    <rc><c>H </c><c>   1</c></rc>
    <rc><c>H </c><c>   1</c></rc>
    <rc><c>H </c><c>   1</c></rc>
    <rc><c>H </c><c>   1</c></rc>
    <rc><c>H </c><c>   1</c></rc>
    <rc><c>H </c><c>   1</c></rc>
    <rc><c>H </c><c>   1</c></rc>
    <rc><c>H </c><c>   1</c></rc>
    <rc><c>H </c><c>   1</c></rc>
    <rc><c>H </c><c>   1</c></rc>
    <rc><c>H </c><c>   1</c></rc>
    <rc><c>H </c><c>   1</c></rc>
    <rc><c>H </c><c>   1</c></rc>
    <rc><c>H </c><c>   1</c></rc>
    <rc><c>H </c><c>   1</c></rc>
    <rc><c>H </c><c>   1</c></rc>
    <rc><c>H </c><c>   1</c></rc>
    <rc><c>H </c><c>   1</c></rc>
    <rc><c>H </c><c>   1</c></rc>
    <rc><c>H </c><c>   1</c></rc>
    <rc><c>H </c><c>   1</c></rc>
    <rc><c>H </c><c>   1</c></rc>
    <rc><c>H </c><c>   1</c></rc>
    <rc><c>H </c><c>   1</c></rc>
    <rc><c>H </c><c>   1</c></rc>
    <rc><c>H </c><c>   1</c></rc>
    <rc><c>H </c><c>   1</c></rc>
    <rc><c>H </c><c>   1</c></rc>
    <rc><c>H </c><c>   1</c></rc>
    <rc><c>H </c><c>   1</c></rc>
    <rc><c>H </c><c>   1</c></rc>
    <rc><c>H </c><c>   1</c></rc>
    <rc><c>H </c><c>   1</c></rc>
    <rc><c>H </c><c>   1</c></rc>
    <rc><c>H </c><c>   1</c></rc>
    <rc><c>H </c><c>   1</c></rc>
    <rc><c>H </c><c>   1</c></rc>
    <rc><c>H </c><c>   1</c></rc>
    <rc><c>H </c><c>   1</c></rc>
    <rc><c>H </c><c>   1</c></rc>
    <rc><c>H </c><c>   1</c></rc>
    <rc><c>H </c><c>   1</c></rc>
    <rc><c>H </c><c>   1</c></rc>
    <rc><c>H </c><c>   1</c></rc>
    <rc><c>H </c><c>   1</c></rc>
    <rc><c>H </c><c>   1</c></rc>
    <rc><c>H </c><c>   1</c></rc>
    <rc><c>H </c><c>   1</c></rc>
    <rc><c>H </c><c>   1</c></rc>
    <rc><c>H </c><c>   1</c></rc>
    <rc><c>H </c><c>   1</c></rc>
    <rc><c>H </c><c>   1</c></rc>
    <rc><c>H </c><c>   1</c></rc>
    <rc><c>H </c><c>   1</c></rc>
    <rc><c>H </c><c>   1</c></rc>
    <rc><c>H </c><c>   1</c></rc>
    <rc><c>H </c><c>   1</c></rc>
    <rc><c>H </c><c>   1</c></rc>
    <rc><c>H </c><c>   1</c></rc>
    <rc><c>H </c><c>   1</c></rc>
    <rc><c>H </c><c>   1</c></rc>
    <rc><c>H </c><c>   1</c></rc>
    <rc><c>H </c><c>   1</c></rc>
    <rc><c>H </c><c>   1</c></rc>
    <rc><c>H </c><c>   1</c></rc>
    <rc><c>H </c><c>   1</c></rc>
    <rc><c>H </c><c>   1</c></rc>
    <rc><c>H </c><c>   1</c></rc>
    <rc><c>H </c><c>   1</c></rc>
    <rc><c>H </c><c>   1</c></rc>
    <rc><c>H </c><c>   1</c></rc>
    <rc><c>H </c><c>   1</c></rc>
    <rc><c>H </c><c>   1</c></rc>
    <rc><c>H </c><c>   1</c></rc>
    <rc><c>H </c><c>   1</c></rc>
    <rc><c>H </c><c>   1</c></rc>
    <rc><c>H </c><c>   1</c></rc>
    <rc><c>H </c><c>   1</c></rc>
    <rc><c>H </c><c>   1</c></rc>
    <rc><c>H </c><c>   1</c></rc>
    <rc><c>H </c><c>   1</c></rc>
    <rc><c>H </c><c>   1</c></rc>
    <rc><c>H </c><c>   1</c></rc>
    <rc><c>H </c><c>   1</c></rc>
    <rc><c>H </c><c>   1</c></rc>
    <rc><c>H </c><c>   1</c></rc>
    <rc><c>H </c><c>   1</c></rc>
    <rc><c>H </c><c>   1</c></rc>
    <rc><c>H </c><c>   1</c></rc>
    <rc><c>H </c><c>   1</c></rc>
    <rc><c>H </c><c>   1</c></rc>
    <rc><c>H </c><c>   1</c></rc>
    <rc><c>H </c><c>   1</c></rc>
    <rc><c>H </c><c>   1</c></rc>
    <rc><c>H </c><c>   1</c></rc>
    <rc><c>H </c><c>   1</c></rc>
    <rc><c>H </c><c>   1</c></rc>
    <rc><c>H </c><c>   1</c></rc>
    <rc><c>H </c><c>   1</c></rc>
    <rc><c>H </c><c>   1</c></rc>
    <rc><c>H </c><c>   1</c></rc>
    <rc><c>H </c><c>   1</c></rc>
    <rc><c>H </c><c>   1</c></rc>
    <rc><c>H </c><c>   1</c></rc>
    <rc><c>H </c><c>   1</c></rc>
    <rc><c>H </c><c>   1</c></rc>
    <rc><c>H </c><c>   1</c></rc>
    <rc><c>H </c><c>   1</c></rc>
    <rc><c>H </c><c>   1</c></rc>
    <rc><c>H </c><c>   1</c></rc>
    <rc><c>H </c><c>   1</c></rc>
    <rc><c>H </c><c>   1</c></rc>
    <rc><c>H </c><c>   1</c></rc>
    <rc><c>H </c><c>   1</c></rc>
    <rc><c>H </c><c>   1</c></rc>
    <rc><c>H </c><c>   1</c></rc>
    <rc><c>H </c><c>   1</c></rc>
    <rc><c>H </c><c>   1</c></rc>
    <rc><c>H </c><c>   1</c></rc>
    <rc><c>H </c><c>   1</c></rc>
    <rc><c>H </c><c>   1</c></rc>
    <rc><c>H </c><c>   1</c></rc>
    <rc><c>H </c><c>   1</c></rc>
    <rc><c>H </c><c>   1</c></rc>
    <rc><c>H </c><c>   1</c></rc>
    <rc><c>H </c><c>   1</c></rc>
    <rc><c>H </c><c>   1</c></rc>
    <rc><c>H </c><c>   1</c></rc>
    <rc><c>H </c><c>   1</c></rc>
    <rc><c>H </c><c>   1</c></rc>
    <rc><c>C </c><c>   2</c></rc>
    <rc><c>C </c><c>   2</c></rc>
    <rc><c>C </c><c>   2</c></rc>
    <rc><c>C </c><c>   2</c></rc>
    <rc><c>C </c><c>   2</c></rc>
    <rc><c>C </c><c>   2</c></rc>
    <rc><c>C </c><c>   2</c></rc>
    <rc><c>C </c><c>   2</c></rc>
    <rc><c>C </c><c>   2</c></rc>
    <rc><c>C </c><c>   2</c></rc>
    <rc><c>C </c><c>   2</c></rc>
    <rc><c>C </c><c>   2</c></rc>
    <rc><c>C </c><c>   2</c></rc>
    <rc><c>C </c><c>   2</c></rc>
    <rc><c>C </c><c>   2</c></rc>
    <rc><c>C </c><c>   2</c></rc>
    <rc><c>C </c><c>   2</c></rc>
    <rc><c>C </c><c>   2</c></rc>
    <rc><c>C </c><c>   2</c></rc>
    <rc><c>C </c><c>   2</c></rc>
    <rc><c>C </c><c>   2</c></rc>
    <rc><c>C </c><c>   2</c></rc>
    <rc><c>C </c><c>   2</c></rc>
    <rc><c>C </c><c>   2</c></rc>
    <rc><c>C </c><c>   2</c></rc>
    <rc><c>C </c><c>   2</c></rc>
    <rc><c>C </c><c>   2</c></rc>
    <rc><c>C </c><c>   2</c></rc>
    <rc><c>C </c><c>   2</c></rc>
    <rc><c>C </c><c>   2</c></rc>
    <rc><c>C </c><c>   2</c></rc>
    <rc><c>C </c><c>   2</c></rc>
    <rc><c>C </c><c>   2</c></rc>
    <rc><c>C </c><c>   2</c></rc>
    <rc><c>C </c><c>   2</c></rc>
    <rc><c>C </c><c>   2</c></rc>
    <rc><c>C </c><c>   2</c></rc>
    <rc><c>C </c><c>   2</c></rc>
    <rc><c>C </c><c>   2</c></rc>
    <rc><c>N </c><c>   3</c></rc>
    <rc><c>N </c><c>   3</c></rc>
    <rc><c>N </c><c>   3</c></rc>
    <rc><c>N </c><c>   3</c></rc>
    <rc><c>N </c><c>   3</c></rc>
    <rc><c>N </c><c>   3</c></rc>
    <rc><c>N </c><c>   3</c></rc>
    <rc><c>N </c><c>   3</c></rc>
    <rc><c>N </c><c>   3</c></rc>
    <rc><c>N </c><c>   3</c></rc>
    <rc><c>N </c><c>   3</c></rc>
    <rc><c>N </c><c>   3</c></rc>
    <rc><c>N </c><c>   3</c></rc>
    <rc><c>N </c><c>   3</c></rc>
    <rc><c>N </c><c>   3</c></rc>
    <rc><c>N </c><c>   3</c></rc>
    <rc><c>N </c><c>   3</c></rc>
    <rc><c>N </c><c>   3</c></rc>
    <rc><c>N </c><c>   3</c></rc>
    <rc><c>N </c><c>   3</c></rc>
    <rc><c>N </c><c>   3</c></rc>
    <rc><c>N </c><c>   3</c></rc>
    <rc><c>N </c><c>   3</c></rc>
    <rc><c>N </c><c>   3</c></rc>
    <rc><c>N </c><c>   3</c></rc>
    <rc><c>N </c><c>   3</c></rc>
    <rc><c>N </c><c>   3</c></rc>
    <rc><c>N </c><c>   3</c></rc>
    <rc><c>N </c><c>   3</c></rc>
    <rc><c>N </c><c>   3</c></rc>
    <rc><c>N </c><c>   3</c></rc>
    <rc><c>N </c><c>   3</c></rc>
    <rc><c>N </c><c>   3</c></rc>
    <rc><c>N </c><c>   3</c></rc>
    <rc><c>N </c><c>   3</c></rc>
    <rc><c>N </c><c>   3</c></rc>
    <rc><c>N </c><c>   3</c></rc>
    <rc><c>N </c><c>   3</c></rc>
    <rc><c>N </c><c>   3</c></rc>
    <rc><c>N </c><c>   3</c></rc>
    <rc><c>N </c><c>   3</c></rc>
    <rc><c>N </c><c>   3</c></rc>
    <rc><c>N </c><c>   3</c></rc>
    <rc><c>N </c><c>   3</c></rc>
    <rc><c>N </c><c>   3</c></rc>
    <rc><c>N </c><c>   3</c></rc>
    <rc><c>N </c><c>   3</c></rc>
    <rc><c>I </c><c>   4</c></rc>
    <rc><c>I </c><c>   4</c></rc>
    <rc><c>I </c><c>   4</c></rc>
    <rc><c>I </c><c>   4</c></rc>
    <rc><c>I </c><c>   4</c></rc>
    <rc><c>I </c><c>   4</c></rc>
    <rc><c>I </c><c>   4</c></rc>
    <rc><c>I </c><c>   4</c></rc>
    <rc><c>I </c><c>   4</c></rc>
    <rc><c>I </c><c>   4</c></rc>
    <rc><c>I </c><c>   4</c></rc>
    <rc><c>I </c><c>   4</c></rc>
    <rc><c>I </c><c>   4</c></rc>
    <rc><c>I </c><c>   4</c></rc>
    <rc><c>I </c><c>   4</c></rc>
    <rc><c>I </c><c>   4</c></rc>
    <rc><c>I </c><c>   4</c></rc>
    <rc><c>I </c><c>   4</c></rc>
    <rc><c>I </c><c>   4</c></rc>
    <rc><c>I </c><c>   4</c></rc>
    <rc><c>I </c><c>   4</c></rc>
    <rc><c>I </c><c>   4</c></rc>
    <rc><c>I </c><c>   4</c></rc>
    <rc><c>I </c><c>   4</c></rc>
    <rc><c>I </c><c>   4</c></rc>
    <rc><c>I </c><c>   4</c></rc>
    <rc><c>I </c><c>   4</c></rc>
    <rc><c>I </c><c>   4</c></rc>
    <rc><c>I </c><c>   4</c></rc>
    <rc><c>I </c><c>   4</c></rc>
    <rc><c>I </c><c>   4</c></rc>
    <rc><c>I </c><c>   4</c></rc>
    <rc><c>I </c><c>   4</c></rc>
    <rc><c>I </c><c>   4</c></rc>
    <rc><c>I </c><c>   4</c></rc>
    <rc><c>I </c><c>   4</c></rc>
    <rc><c>I </c><c>   4</c></rc>
    <rc><c>I </c><c>   4</c></rc>
    <rc><c>I </c><c>   4</c></rc>
    <rc><c>I </c><c>   4</c></rc>
    <rc><c>I </c><c>   4</c></rc>
    <rc><c>I </c><c>   4</c></rc>
    <rc><c>I </c><c>   4</c></rc>
    <rc><c>I </c><c>   4</c></rc>
    <rc><c>I </c><c>   4</c></rc>
    <rc><c>I </c><c>   4</c></rc>
    <rc><c>I </c><c>   4</c></rc>
    <rc><c>I </c><c>   4</c></rc>
    <rc><c>I </c><c>   4</c></rc>
    <rc><c>I </c><c>   4</c></rc>
    <rc><c>I </c><c>   4</c></rc>
    <rc><c>I </c><c>   4</c></rc>
    <rc><c>I </c><c>   4</c></rc>
    <rc><c>I </c><c>   4</c></rc>
    <rc><c>I </c><c>   4</c></rc>
    <rc><c>I </c><c>   4</c></rc>
    <rc><c>I </c><c>   4</c></rc>
    <rc><c>I </c><c>   4</c></rc>
    <rc><c>I </c><c>   4</c></rc>
    <rc><c>I </c><c>   4</c></rc>
    <rc><c>I </c><c>   4</c></rc>
    <rc><c>I </c><c>   4</c></rc>
    <rc><c>I </c><c>   4</c></rc>
    <rc><c>I </c><c>   4</c></rc>
    <rc><c>I </c><c>   4</c></rc>
    <rc><c>I </c><c>   4</c></rc>
    <rc><c>I </c><c>   4</c></rc>
    <rc><c>I </c><c>   4</c></rc>
    <rc><c>I </c><c>   4</c></rc>
    <rc><c>I </c><c>   4</c></rc>
    <rc><c>I </c><c>   4</c></rc>
    <rc><c>I </c><c>   4</c></rc>
    <rc><c>Pb</c><c>   5</c></rc>
    <rc><c>Pb</c><c>   5</c></rc>
    <rc><c>Pb</c><c>   5</c></rc>
    <rc><c>Pb</c><c>   5</c></rc>
    <rc><c>Pb</c><c>   5</c></rc>
    <rc><c>Pb</c><c>   5</c></rc>
    <rc><c>Pb</c><c>   5</c></rc>
    <rc><c>Pb</c><c>   5</c></rc>
    <rc><c>Pb</c><c>   5</c></rc>
    <rc><c>Pb</c><c>   5</c></rc>
    <rc><c>Pb</c><c>   5</c></rc>
    <rc><c>Pb</c><c>   5</c></rc>
    <rc><c>Pb</c><c>   5</c></rc>
    <rc><c>Pb</c><c>   5</c></rc>
    <rc><c>Pb</c><c>   5</c></rc>
    <rc><c>Pb</c><c>   5</c></rc>
    <rc><c>Pb</c><c>   5</c></rc>
    <rc><c>Pb</c><c>   5</c></rc>
    <rc><c>Pb</c><c>   5</c></rc>
    <rc><c>Pb</c><c>   5</c></rc>
    <rc><c>Pb</c><c>   5</c></rc>
    <rc><c>Pb</c><c>   5</c></rc>
    <rc><c>Pb</c><c>   5</c></rc>
    <rc><c>Pb</c><c>   5</c></rc>
   </set>
  </array>
  <array name="atomtypes" >
   <dimension dim="1">type</dimension>
   <field type="int">atomspertype</field>
   <field type="string">element</field>
   <field>mass</field>
   <field>valence</field>
   <field type="string">pseudopotential</field>
   <set>
    <rc><c> 143</c><c>H </c><c>      1.00000000</c><c>      1.00000000</c><c>  PAW_PBE H 15Jun2001                   </c></rc>
    <rc><c>  39</c><c>C </c><c>     12.01100000</c><c>      4.00000000</c><c>  PAW_PBE C 08Apr2002                   </c></rc>
    <rc><c>  47</c><c>N </c><c>     14.00100000</c><c>      5.00000000</c><c>  PAW_PBE N 08Apr2002                   </c></rc>
    <rc><c>  72</c><c>I </c><c>    126.90400000</c><c>      7.00000000</c><c>  PAW_PBE I 08Apr2002                   </c></rc>
    <rc><c>  24</c><c>Pb</c><c>    207.20000000</c><c>      4.00000000</c><c>  PAW_PBE Pb 08Apr2002                  </c></rc>
   </set>
  </array>
 </atominfo>
 <structure name="initialpos" >
  <crystal>
   <varray name="basis" >
    <v>      18.06080055       0.00000000       0.00000000 </v>
    <v>      -0.00491865      18.06279945       0.00000000 </v>
    <v>       0.00000000       0.00000000      62.48749924 </v>
   </varray>
   <i name="volume">  20385.21054034 </i>
   <varray name="rec_basis" >
    <v>       0.05536853       0.00001508      -0.00000000 </v>
    <v>       0.00000000       0.05536240       0.00000000 </v>
    <v>       0.00000000      -0.00000000       0.01600320 </v>
   </varray>
  </crystal>
  <varray name="positions" >
   <v>       0.47135968       0.33874006       0.56616915 </v>
   <v>       0.44253263       0.82809057       0.57452092 </v>
   <v>       0.92284739       0.26340877       0.57920667 </v>
   <v>       0.93826089       0.81923371       0.57339221 </v>
   <v>       0.31935135       0.07820561       0.56964732 </v>
   <v>       0.35003394       0.54559525       0.55973408 </v>
   <v>       0.80274184       0.09305467       0.56802340 </v>
   <v>       0.10680569       0.24878600       0.55698305 </v>
   <v>       0.07649570       0.67374589       0.57590401 </v>
   <v>       0.54532620       0.15165633       0.56101553 </v>
   <v>       0.50298540       0.64464401       0.55861570 </v>
   <v>       0.37214041       0.01426147       0.55546559 </v>
   <v>       0.29838325       0.62634374       0.55370322 </v>
   <v>       0.87544697       0.03480939       0.55872802 </v>
   <v>       0.05796100       0.26571334       0.58031547 </v>
   <v>       0.98943027       0.69706146       0.58597401 </v>
   <v>       0.57294839       0.24169107       0.56831973 </v>
   <v>       0.44995408       0.69086792       0.57761321 </v>
   <v>       0.27315911       0.43740853       0.57262277 </v>
   <v>       0.18430154       0.05953389       0.57197390 </v>
   <v>       0.68071161       0.03094624       0.57403467 </v>
   <v>       0.38512253       0.30489675       0.55718975 </v>
   <v>       0.49961668       0.87050888       0.55559074 </v>
   <v>       0.87891414       0.24028105       0.55562309 </v>
   <v>       0.98964398       0.86677350       0.55447424 </v>
   <v>       0.17727091       0.44498606       0.56835110 </v>
   <v>       0.14703188       0.98366353       0.55881685 </v>
   <v>       0.67639458       0.93661194       0.56635553 </v>
   <v>       0.42762956       0.18646648       0.55179805 </v>
   <v>       0.54500041       0.75720596       0.54286163 </v>
   <v>       0.99519551       0.22915750       0.53722897 </v>
   <v>       0.08323434       0.77675283       0.55363826 </v>
   <v>       0.18465731       0.56498204       0.55611782 </v>
   <v>       0.26507551       0.94188855       0.54721358 </v>
   <v>       0.79738557       0.93219244       0.55607564 </v>
   <v>       0.45109636       0.30301631       0.67312267 </v>
   <v>       0.44719178       0.80861076       0.67305454 </v>
   <v>       0.94201274       0.27840891       0.67465093 </v>
   <v>       0.92321040       0.72944382       0.67044043 </v>
   <v>       0.30455688       0.05146176       0.67236819 </v>
   <v>       0.29519521       0.55545802       0.67505140 </v>
   <v>       0.80347439       0.05371909       0.67497814 </v>
   <v>       0.84171327       0.47048762       0.66334538 </v>
   <v>       0.09109872       0.17290615       0.64895255 </v>
   <v>       0.11415893       0.71907346       0.65201566 </v>
   <v>       0.58007397       0.16936869       0.64968170 </v>
   <v>       0.56949909       0.66800604       0.64966882 </v>
   <v>       0.18512419       0.41234116       0.64800894 </v>
   <v>       0.16685387       0.92776533       0.64773710 </v>
   <v>       0.64152302       0.47488746       0.65659843 </v>
   <v>       0.67526479       0.92070189       0.65041531 </v>
   <v>       0.05254681       0.18730840       0.67419564 </v>
   <v>       0.05087478       0.67266786       0.66811703 </v>
   <v>       0.55325631       0.20251668       0.67446999 </v>
   <v>       0.54023815       0.69915975       0.67454593 </v>
   <v>       0.20157185       0.44621028       0.67365763 </v>
   <v>       0.19742831       0.95426683       0.67301919 </v>
   <v>       0.71427217       0.41849278       0.66556751 </v>
   <v>       0.70264206       0.95192863       0.67562268 </v>
   <v>       0.41939856       0.32401523       0.64756220 </v>
   <v>       0.42422295       0.83642358       0.64711942 </v>
   <v>       0.92187491       0.31741559       0.64978316 </v>
   <v>       0.90923536       0.80948561       0.65568571 </v>
   <v>       0.33300232       0.07679696       0.64674319 </v>
   <v>       0.32648005       0.58430230       0.65018302 </v>
   <v>       0.83057010       0.08043908       0.64917623 </v>
   <v>       0.85018385       0.55656614       0.65090265 </v>
   <v>       0.01275634       0.25519833       0.63193590 </v>
   <v>       0.03048025       0.81084072       0.64232867 </v>
   <v>       0.49922070       0.24130984       0.63059280 </v>
   <v>       0.49861282       0.75044126       0.63066233 </v>
   <v>       0.24823219       0.00107836       0.62961849 </v>
   <v>       0.26312504       0.49540628       0.63143934 </v>
   <v>       0.75312345       0.99859271       0.63211624 </v>
   <v>       0.72284361       0.56936578       0.64580080 </v>
   <v>       0.44874502       0.30128397       0.76888902 </v>
   <v>       0.44874501       0.80128391       0.76888902 </v>
   <v>       0.94874497       0.30128397       0.76888902 </v>
   <v>       0.94874501       0.80128391       0.76888902 </v>
   <v>       0.30127600       0.05129450       0.76887296 </v>
   <v>       0.30127601       0.55129450       0.76887296 </v>
   <v>       0.80127594       0.05129450       0.76887296 </v>
   <v>       0.80127598       0.55129450       0.76887296 </v>
   <v>       0.07877100       0.17118050       0.74344197 </v>
   <v>       0.07877101       0.67118045       0.74344197 </v>
   <v>       0.57877100       0.17118050       0.74344197 </v>
   <v>       0.57877099       0.67118045       0.74344197 </v>
   <v>       0.17119950       0.42117448       0.74342103 </v>
   <v>       0.17119950       0.92117451       0.74342103 </v>
   <v>       0.67119951       0.42117448       0.74342103 </v>
   <v>       0.67119950       0.92117451       0.74342103 </v>
   <v>       0.05125600       0.19871499       0.76888902 </v>
   <v>       0.05125600       0.69871493       0.76888902 </v>
   <v>       0.55125603       0.19871499       0.76888902 </v>
   <v>       0.55125602       0.69871493       0.76888902 </v>
   <v>       0.19872349       0.44870397       0.76887205 </v>
   <v>       0.19872349       0.94870397       0.76887205 </v>
   <v>       0.69872352       0.44870397       0.76887205 </v>
   <v>       0.69872351       0.94870397       0.76887205 </v>
   <v>       0.42123152       0.32881747       0.74344197 </v>
   <v>       0.42123151       0.82881744       0.74344197 </v>
   <v>       0.92123147       0.32881747       0.74344197 </v>
   <v>       0.92123151       0.82881744       0.74344197 </v>
   <v>       0.32880050       0.07882500       0.74342103 </v>
   <v>       0.32880049       0.57882496       0.74342103 </v>
   <v>       0.82880048       0.07882500       0.74342103 </v>
   <v>       0.82880052       0.57882496       0.74342103 </v>
   <v>       0.00000350       0.25000148       0.72582199 </v>
   <v>       0.00000350       0.75000145       0.72582199 </v>
   <v>       0.50000351       0.25000148       0.72582199 </v>
   <v>       0.50000350       0.75000145       0.72582199 </v>
   <v>       0.25000050       0.00000000       0.72580398 </v>
   <v>       0.25000052       0.50000000       0.72580398 </v>
   <v>       0.75000050       0.00000000       0.72580398 </v>
   <v>       0.75000049       0.50000000       0.72580398 </v>
   <v>       0.72041704       0.44280269       0.54033958 </v>
   <v>       0.73811066       0.49399014       0.51688360 </v>
   <v>       0.66059450       0.55164846       0.55745189 </v>
   <v>       0.70786851       0.63735053       0.55600031 </v>
   <v>       0.85097842       0.50802467       0.56789319 </v>
   <v>       0.78992853       0.57659057       0.57779751 </v>
   <v>       0.87521304       0.56195541       0.53119304 </v>
   <v>       0.80416764       0.62351368       0.52234520 </v>
   <v>       0.87246542       0.46215730       0.51846179 </v>
   <v>       0.86232594       0.42244648       0.54393710 </v>
   <v>       0.87277083       0.32622447       0.51850959 </v>
   <v>       0.78396660       0.32304937       0.53008057 </v>
   <v>       0.63688446       0.55057935       0.51846045 </v>
   <v>       0.69088010       0.63297128       0.51489486 </v>
   <v>       0.60947678       0.63511381       0.53026390 </v>
   <v>       0.75703524       0.46642943       0.59608834 </v>
   <v>       0.75410931       0.41145432       0.57275390 </v>
   <v>       0.68527734       0.47946117       0.57797418 </v>
   <v>       0.81778123       0.69097985       0.55834532 </v>
   <v>       0.89757649       0.69044686       0.54244761 </v>
   <v>       0.89236813       0.62908975       0.56455084 </v>
   <v>       0.82084729       0.38160904       0.48468105 </v>
   <v>       0.78647735       0.29317242       0.49147635 </v>
   <v>       0.66305900       0.30385382       0.51787128 </v>
   <v>       0.73284020       0.46303485       0.47092042 </v>
   <v>       0.53640912       0.35545721       0.51690777 </v>
   <v>       0.60486882       0.51409794       0.46957585 </v>
   <v>       0.50671994       0.46204030       0.49306822 </v>
   <v>       0.99355906       0.24290074       0.55434415 </v>
   <v>       0.03392088       0.76814237       0.56352500 </v>
   <v>       0.46562624       0.22868467       0.55780126 </v>
   <v>       0.50432397       0.75748590       0.55577205 </v>
   <v>       0.23589973       0.53570482       0.55995129 </v>
   <v>       0.25987661       0.99368208       0.55617997 </v>
   <v>       0.77570576       0.98474284       0.56200285 </v>
   <v>       0.00668040       0.24534327       0.64911463 </v>
   <v>       0.01249233       0.76686335       0.65321000 </v>
   <v>       0.50012473       0.24684719       0.64804795 </v>
   <v>       0.49641014       0.75185439       0.64824178 </v>
   <v>       0.25678856       0.49751978       0.64884987 </v>
   <v>       0.24973921       0.00194861       0.64708719 </v>
   <v>       0.74491452       0.51846367       0.65326457 </v>
   <v>       0.75303957       0.00025984       0.64961846 </v>
   <v>       0.49998898       0.24999498       0.74327702 </v>
   <v>       0.49998903       0.74999496       0.74327702 </v>
   <v>       0.99998898       0.24999498       0.74327702 </v>
   <v>       0.99998903       0.74999496       0.74327702 </v>
   <v>       0.25000050       0.00000100       0.74325596 </v>
   <v>       0.25000052       0.50000100       0.74325596 </v>
   <v>       0.75000050       0.00000100       0.74325596 </v>
   <v>       0.75000049       0.50000100       0.74325596 </v>
   <v>       0.70713506       0.38022039       0.49455702 </v>
   <v>       0.65072539       0.34992018       0.50710942 </v>
   <v>       0.68930674       0.43918357       0.48092722 </v>
   <v>       0.57905446       0.37925342       0.50668930 </v>
   <v>       0.61801457       0.46811700       0.48015671 </v>
   <v>       0.56207784       0.43850438       0.49330469 </v>
   <v>       0.76232239       0.47665132       0.53218512 </v>
   <v>       0.69647625       0.58577795       0.54731925 </v>
   <v>       0.79285146       0.52519300       0.56858418 </v>
   <v>       0.82925638       0.59708996       0.53634275 </v>
   <v>       0.83333520       0.43172769       0.52868460 </v>
   <v>       0.81899196       0.35492936       0.51899467 </v>
   <v>       0.65752412       0.60085734       0.52626242 </v>
   <v>       0.74448154       0.46730222       0.57895583 </v>
   <v>       0.86018622       0.65448428       0.55159116 </v>
   <v>       0.78555749       0.35181873       0.49634830 </v>
   <v>       0.05621772       0.25127768       0.56450988 </v>
   <v>       0.03199088       0.70871249       0.57552460 </v>
   <v>       0.53334392       0.20693815       0.56215187 </v>
   <v>       0.48408397       0.69436439       0.56436459 </v>
   <v>       0.44054337       0.29646818       0.55970948 </v>
   <v>       0.47817124       0.82252564       0.56176055 </v>
   <v>       0.92819160       0.24929058       0.56337861 </v>
   <v>       0.98048458       0.81754988       0.56226016 </v>
   <v>       0.22989209       0.46659748       0.56625871 </v>
   <v>       0.19339331       0.01406287       0.56237585 </v>
   <v>       0.70538171       0.98603358       0.56721062 </v>
   <v>       0.31991819       0.03183836       0.56025134 </v>
   <v>       0.29919071       0.57083335       0.55745964 </v>
   <v>       0.82102570       0.04128888       0.56357573 </v>
   <v>       0.05243079       0.19844768       0.65812828 </v>
   <v>       0.06112729       0.71512735       0.65780918 </v>
   <v>       0.54736202       0.20449637       0.65822235 </v>
   <v>       0.53718110       0.70306788       0.65849059 </v>
   <v>       0.21272800       0.44854399       0.65773080 </v>
   <v>       0.20209019       0.95941262       0.65690977 </v>
   <v>       0.69749166       0.46710487       0.65885492 </v>
   <v>       0.70838077       0.95473102       0.65951210 </v>
   <v>       0.45443508       0.29430720       0.65702540 </v>
   <v>       0.45337685       0.80193924       0.65695476 </v>
   <v>       0.95425053       0.28264089       0.65878154 </v>
   <v>       0.94445071       0.76899009       0.66054417 </v>
   <v>       0.29892518       0.04567027       0.65623324 </v>
   <v>       0.29540311       0.54891221       0.65891811 </v>
   <v>       0.79787583       0.04823604       0.65880248 </v>
   <v>       0.81688573       0.51450675       0.65614796 </v>
   <v>       0.04586250       0.20411950       0.75272599 </v>
   <v>       0.04586250       0.70411946       0.75272599 </v>
   <v>       0.54586251       0.20411950       0.75272599 </v>
   <v>       0.54586250       0.70411946       0.75272599 </v>
   <v>       0.20411900       0.45410100       0.75270499 </v>
   <v>       0.20411899       0.95410095       0.75270499 </v>
   <v>       0.70411898       0.45410100       0.75270499 </v>
   <v>       0.70411896       0.95410095       0.75270499 </v>
   <v>       0.45414002       0.29588849       0.75272697 </v>
   <v>       0.45414001       0.79588852       0.75272697 </v>
   <v>       0.95414002       0.29588849       0.75272697 </v>
[...]
   <v>       0.54532620       0.15165633       0.56101553 </v>
   <v>       0.50298540       0.64464401       0.55861570 </v>
   <v>       0.37214041       0.01426147       0.55546559 </v>
   <v>       0.29838325       0.62634374       0.55370322 </v>
   <v>       0.87544697       0.03480939       0.55872802 </v>
   <v>       0.05796100       0.26571334       0.58031547 </v>
   <v>       0.98943027       0.69706146       0.58597401 </v>
   <v>       0.57294839       0.24169107       0.56831973 </v>
   <v>       0.44995408       0.69086792       0.57761321 </v>
   <v>       0.27315911       0.43740853       0.57262277 </v>
   <v>       0.18430154       0.05953389       0.57197390 </v>
   <v>       0.68071161       0.03094624       0.57403467 </v>
   <v>       0.38512253       0.30489675       0.55718975 </v>
   <v>       0.49961668       0.87050888       0.55559074 </v>
   <v>       0.87891414       0.24028105       0.55562309 </v>
   <v>       0.98964398       0.86677350       0.55447424 </v>
   <v>       0.17727091       0.44498606       0.56835110 </v>
   <v>       0.14703188       0.98366353       0.55881685 </v>
   <v>       0.67639458       0.93661194       0.56635553 </v>
   <v>       0.42762956       0.18646648       0.55179805 </v>
   <v>       0.54500041       0.75720596       0.54286163 </v>
   <v>       0.99519551       0.22915750       0.53722897 </v>
   <v>       0.08323434       0.77675283       0.55363826 </v>
   <v>       0.18465731       0.56498204       0.55611782 </v>
   <v>       0.26507551       0.94188855       0.54721358 </v>
   <v>       0.79738557       0.93219244       0.55607564 </v>
   <v>       0.45109636       0.30301631       0.67312267 </v>
   <v>       0.44719178       0.80861076       0.67305454 </v>
   <v>       0.94201274       0.27840891       0.67465093 </v>
   <v>       0.92321040       0.72944382       0.67044043 </v>
   <v>       0.30455688       0.05146176       0.67236819 </v>
   <v>       0.29519521       0.55545802       0.67505140 </v>
   <v>       0.80347439       0.05371909       0.67497814 </v>
   <v>       0.84171327       0.47048762       0.66334538 </v>
   <v>       0.09109872       0.17290615       0.64895255 </v>
   <v>       0.11415893       0.71907346       0.65201566 </v>
   <v>       0.58007397       0.16936869       0.64968170 </v>
   <v>       0.56949909       0.66800604       0.64966882 </v>
   <v>       0.18512419       0.41234116       0.64800894 </v>
   <v>       0.16685387       0.92776533       0.64773710 </v>
   <v>       0.64152302       0.47488746       0.65659843 </v>
   <v>       0.67526479       0.92070189       0.65041531 </v>
   <v>       0.05254681       0.18730840       0.67419564 </v>
   <v>       0.05087478       0.67266786       0.66811703 </v>
   <v>       0.55325631       0.20251668       0.67446999 </v>
   <v>       0.54023815       0.69915975       0.67454593 </v>
   <v>       0.20157185       0.44621028       0.67365763 </v>
   <v>       0.19742831       0.95426683       0.67301919 </v>
   <v>       0.71427217       0.41849278       0.66556751 </v>
   <v>       0.70264206       0.95192863       0.67562268 </v>
   <v>       0.41939856       0.32401523       0.64756220 </v>
   <v>       0.42422295       0.83642358       0.64711942 </v>
   <v>       0.92187491       0.31741559       0.64978316 </v>
   <v>       0.90923536       0.80948561       0.65568571 </v>
   <v>       0.33300232       0.07679696       0.64674319 </v>
   <v>       0.32648005       0.58430230       0.65018302 </v>
   <v>       0.83057010       0.08043908       0.64917623 </v>
   <v>       0.85018385       0.55656614       0.65090265 </v>
   <v>       0.01275634       0.25519833       0.63193590 </v>
   <v>       0.03048025       0.81084072       0.64232867 </v>
   <v>       0.49922070       0.24130984       0.63059280 </v>
   <v>       0.49861282       0.75044126       0.63066233 </v>
   <v>       0.24823219       0.00107836       0.62961849 </v>
   <v>       0.26312504       0.49540628       0.63143934 </v>
   <v>       0.75312345       0.99859271       0.63211624 </v>
   <v>       0.72284361       0.56936578       0.64580080 </v>
   <v>       0.44874502       0.30128397       0.76888902 </v>
   <v>       0.44874501       0.80128391       0.76888902 </v>
   <v>       0.94874497       0.30128397       0.76888902 </v>
   <v>       0.94874501       0.80128391       0.76888902 </v>
   <v>       0.30127600       0.05129450       0.76887296 </v>
   <v>       0.30127601       0.55129450       0.76887296 </v>
   <v>       0.80127594       0.05129450       0.76887296 </v>
   <v>       0.80127598       0.55129450       0.76887296 </v>
   <v>       0.07877100       0.17118050       0.74344197 </v>
   <v>       0.07877101       0.67118045       0.74344197 </v>
   <v>       0.57877100       0.17118050       0.74344197 </v>
   <v>       0.57877099       0.67118045       0.74344197 </v>
   <v>       0.17119950       0.42117448       0.74342103 </v>
   <v>       0.17119950       0.92117451       0.74342103 </v>
   <v>       0.67119951       0.42117448       0.74342103 </v>
   <v>       0.67119950       0.92117451       0.74342103 </v>
   <v>       0.05125600       0.19871499       0.76888902 </v>
   <v>       0.05125600       0.69871493       0.76888902 </v>
   <v>       0.55125603       0.19871499       0.76888902 </v>
   <v>       0.55125602       0.69871493       0.76888902 </v>
   <v>       0.19872349       0.44870397       0.76887205 </v>
   <v>       0.19872349       0.94870397       0.76887205 </v>
   <v>       0.69872352       0.44870397       0.76887205 </v>
   <v>       0.69872351       0.94870397       0.76887205 </v>
   <v>       0.42123152       0.32881747       0.74344197 </v>
   <v>       0.42123151       0.82881744       0.74344197 </v>
   <v>       0.92123147       0.32881747       0.74344197 </v>
   <v>       0.92123151       0.82881744       0.74344197 </v>
   <v>       0.32880050       0.07882500       0.74342103 </v>
   <v>       0.32880049       0.57882496       0.74342103 </v>
   <v>       0.82880048       0.07882500       0.74342103 </v>
   <v>       0.82880052       0.57882496       0.74342103 </v>
   <v>       0.00000350       0.25000148       0.72582199 </v>
   <v>       0.00000350       0.75000145       0.72582199 </v>
   <v>       0.50000351       0.25000148       0.72582199 </v>
   <v>       0.50000350       0.75000145       0.72582199 </v>
   <v>       0.25000050       0.00000000       0.72580398 </v>
   <v>       0.25000052       0.50000000       0.72580398 </v>
   <v>       0.75000050       0.00000000       0.72580398 </v>
   <v>       0.75000049       0.50000000       0.72580398 </v>
   <v>       0.72041704       0.44280269       0.54033958 </v>
   <v>       0.73811066       0.49399014       0.51688360 </v>
   <v>       0.66059450       0.55164846       0.55745189 </v>
   <v>       0.70786851       0.63735053       0.55600031 </v>
   <v>       0.85097842       0.50802467       0.56789319 </v>
   <v>       0.78992853       0.57659057       0.57779751 </v>
   <v>       0.87521304       0.56195541       0.53119304 </v>
   <v>       0.80416764       0.62351368       0.52234520 </v>
   <v>       0.87246542       0.46215730       0.51846179 </v>
   <v>       0.86232594       0.42244648       0.54393710 </v>
   <v>       0.87277083       0.32622447       0.51850959 </v>
   <v>       0.78396660       0.32304937       0.53008057 </v>
   <v>       0.63688446       0.55057935       0.51846045 </v>
   <v>       0.69088010       0.63297128       0.51489486 </v>
   <v>       0.60947678       0.63511381       0.53026390 </v>
   <v>       0.75703524       0.46642943       0.59608834 </v>
   <v>       0.75410931       0.41145432       0.57275390 </v>
   <v>       0.68527734       0.47946117       0.57797418 </v>
   <v>       0.81778123       0.69097985       0.55834532 </v>
   <v>       0.89757649       0.69044686       0.54244761 </v>
   <v>       0.89236813       0.62908975       0.56455084 </v>
   <v>       0.82084729       0.38160904       0.48468105 </v>
   <v>       0.78647735       0.29317242       0.49147635 </v>
   <v>       0.66305900       0.30385382       0.51787128 </v>
   <v>       0.73284020       0.46303485       0.47092042 </v>
   <v>       0.53640912       0.35545721       0.51690777 </v>
   <v>       0.60486882       0.51409794       0.46957585 </v>
   <v>       0.50671994       0.46204030       0.49306822 </v>
   <v>       0.99355906       0.24290074       0.55434415 </v>
   <v>       0.03392088       0.76814237       0.56352500 </v>
   <v>       0.46562624       0.22868467       0.55780126 </v>
   <v>       0.50432397       0.75748590       0.55577205 </v>
   <v>       0.23589973       0.53570482       0.55995129 </v>
   <v>       0.25987661       0.99368208       0.55617997 </v>
   <v>       0.77570576       0.98474284       0.56200285 </v>
   <v>       0.00668040       0.24534327       0.64911463 </v>
   <v>       0.01249233       0.76686335       0.65321000 </v>
   <v>       0.50012473       0.24684719       0.64804795 </v>
   <v>       0.49641014       0.75185439       0.64824178 </v>
   <v>       0.25678856       0.49751978       0.64884987 </v>
   <v>       0.24973921       0.00194861       0.64708719 </v>
   <v>       0.74491452       0.51846367       0.65326457 </v>
   <v>       0.75303957       0.00025984       0.64961846 </v>
   <v>       0.49998898       0.24999498       0.74327702 </v>
   <v>       0.49998903       0.74999496       0.74327702 </v>
   <v>       0.99998898       0.24999498       0.74327702 </v>
   <v>       0.99998903       0.74999496       0.74327702 </v>
   <v>       0.25000050       0.00000100       0.74325596 </v>
   <v>       0.25000052       0.50000100       0.74325596 </v>
   <v>       0.75000050       0.00000100       0.74325596 </v>
   <v>       0.75000049       0.50000100       0.74325596 </v>
   <v>       0.70713506       0.38022039       0.49455702 </v>
   <v>       0.65072539       0.34992018       0.50710942 </v>
   <v>       0.68930674       0.43918357       0.48092722 </v>
   <v>       0.57905446       0.37925342       0.50668930 </v>
   <v>       0.61801457       0.46811700       0.48015671 </v>
   <v>       0.56207784       0.43850438       0.49330469 </v>
   <v>       0.76232239       0.47665132       0.53218512 </v>
   <v>       0.69647625       0.58577795       0.54731925 </v>
   <v>       0.79285146       0.52519300       0.56858418 </v>
   <v>       0.82925638       0.59708996       0.53634275 </v>
   <v>       0.83333520       0.43172769       0.52868460 </v>
   <v>       0.81899196       0.35492936       0.51899467 </v>
   <v>       0.65752412       0.60085734       0.52626242 </v>
   <v>       0.74448154       0.46730222       0.57895583 </v>
   <v>       0.86018622       0.65448428       0.55159116 </v>
   <v>       0.78555749       0.35181873       0.49634830 </v>
   <v>       0.05621772       0.25127768       0.56450988 </v>
   <v>       0.03199088       0.70871249       0.57552460 </v>
   <v>       0.53334392       0.20693815       0.56215187 </v>
   <v>       0.48408397       0.69436439       0.56436459 </v>
   <v>       0.44054337       0.29646818       0.55970948 </v>
   <v>       0.47817124       0.82252564       0.56176055 </v>
   <v>       0.92819160       0.24929058       0.56337861 </v>
   <v>       0.98048458       0.81754988       0.56226016 </v>
   <v>       0.22989209       0.46659748       0.56625871 </v>
   <v>       0.19339331       0.01406287       0.56237585 </v>
   <v>       0.70538171       0.98603358       0.56721062 </v>
   <v>       0.31991819       0.03183836       0.56025134 </v>
   <v>       0.29919071       0.57083335       0.55745964 </v>
   <v>       0.82102570       0.04128888       0.56357573 </v>
   <v>       0.05243079       0.19844768       0.65812828 </v>
   <v>       0.06112729       0.71512735       0.65780918 </v>
   <v>       0.54736202       0.20449637       0.65822235 </v>
   <v>       0.53718110       0.70306788       0.65849059 </v>
   <v>       0.21272800       0.44854399       0.65773080 </v>
   <v>       0.20209019       0.95941262       0.65690977 </v>
   <v>       0.69749166       0.46710487       0.65885492 </v>
   <v>       0.70838077       0.95473102       0.65951210 </v>
   <v>       0.45443508       0.29430720       0.65702540 </v>
   <v>       0.45337685       0.80193924       0.65695476 </v>
   <v>       0.95425053       0.28264089       0.65878154 </v>
   <v>       0.94445071       0.76899009       0.66054417 </v>
   <v>       0.29892518       0.04567027       0.65623324 </v>
   <v>       0.29540311       0.54891221       0.65891811 </v>
   <v>       0.79787583       0.04823604       0.65880248 </v>
   <v>       0.81688573       0.51450675       0.65614796 </v>
   <v>       0.04586250       0.20411950       0.75272599 </v>
   <v>       0.04586250       0.70411946       0.75272599 </v>
   <v>       0.54586251       0.20411950       0.75272599 </v>
   <v>       0.54586250       0.70411946       0.75272599 </v>
   <v>       0.20411900       0.45410100       0.75270499 </v>
   <v>       0.20411899       0.95410095       0.75270499 </v>
   <v>       0.70411898       0.45410100       0.75270499 </v>
   <v>       0.70411896       0.95410095       0.75270499 </v>
   <v>       0.45414002       0.29588849       0.75272697 </v>
   <v>       0.45414001       0.79588852       0.75272697 </v>
   <v>       0.95414002       0.29588849       0.75272697 </v>
   <v>       0.95414006       0.79588852       0.75272697 </v>
   <v>       0.29588249       0.04590050       0.75270499 </v>
   <v>       0.29588248       0.54590053       0.75270499 </v>
   <v>       0.79588244       0.04590050       0.75270499 </v>
   <v>       0.79588248       0.54590053       0.75270499 </v>
   <v>       0.77076783       0.54604651       0.54582811 </v>
   <v>       0.51296676       0.01318576       0.55250766 </v>
   <v>       0.48582497       0.49995792       0.55385571 </v>
   <v>       0.00563160       0.00882673       0.55064865 </v>
   <v>       0.02744895       0.50214327       0.55472942 </v>
   <v>       0.25118623       0.24352320       0.55274239 </v>
   <v>       0.25193003       0.76474062       0.55284117 </v>
   <v>       0.73475742       0.21128620       0.55583102 </v>
   <v>       0.69915601       0.79625335       0.55515565 </v>
   <v>       0.99577765       0.98539065       0.65405630 </v>
   <v>       0.01517132       0.49560998       0.65531625 </v>
   <v>       0.49766902       0.00359893       0.65483630 </v>
   <v>       0.50186173       0.49592243       0.65455066 </v>
   <v>       0.25480321       0.24628793       0.65444761 </v>
   <v>       0.25449153       0.75493307       0.65423919 </v>
   <v>       0.74719954       0.26582432       0.65520863 </v>
   <v>       0.74603051       0.74160329       0.65469131 </v>
   <v>       0.12904374       0.12314049       0.60738693 </v>
   <v>       0.15375478       0.60503549       0.60795870 </v>
   <v>       0.64021577       0.11349399       0.61110203 </v>
   <v>       0.63116093       0.61960021       0.60807267 </v>
   <v>       0.36296293       0.38801290       0.60623960 </v>
   <v>       0.37135362       0.88368788       0.60641585 </v>
   <v>       0.88794388       0.36986129       0.60847198 </v>
   <v>       0.86714248       0.88184064       0.60597142 </v>
   <v>       0.12284513       0.36393285       0.60825233 </v>
   <v>       0.12305885       0.87512831       0.60675692 </v>
   <v>       0.59653572       0.34767834       0.60075773 </v>
   <v>       0.61576253       0.86725876       0.61356004 </v>
   <v>       0.38706858       0.13289961       0.60646700 </v>
   <v>       0.38594998       0.63435722       0.60965185 </v>
   <v>       0.88353389       0.13682337       0.61202378 </v>
   <v>       0.89971500       0.64145450       0.61424670 </v>
   <v>       0.00000000       0.00000000       0.75492797 </v>
   <v>       0.00000000       0.50000000       0.75492797 </v>
   <v>       0.50000000       0.00000000       0.75492797 </v>
   <v>       0.49999999       0.50000000       0.75492797 </v>
   <v>       0.25000050       0.25000000       0.75493902 </v>
   <v>       0.25000051       0.74999997       0.75493902 </v>
   <v>       0.75000047       0.25000000       0.75493902 </v>
   <v>       0.75000046       0.74999997       0.75493902 </v>
   <v>       0.13579050       0.11421000       0.70478299 </v>
   <v>       0.13579050       0.61420998       0.70478299 </v>
   <v>       0.63579045       0.11421000       0.70478299 </v>
   <v>       0.63579049       0.61420998       0.70478299 </v>
   <v>       0.36420952       0.38578999       0.70478299 </v>
   <v>       0.36420950       0.88578996       0.70478299 </v>
   <v>       0.86420954       0.38578999       0.70478299 </v>
   <v>       0.86420953       0.88578996       0.70478299 </v>
   <v>       0.11421799       0.36421899       0.70478098 </v>
   <v>       0.11421799       0.86421899       0.70478098 </v>
   <v>       0.61421800       0.36421899       0.70478098 </v>
   <v>       0.61421799       0.86421899       0.70478098 </v>
   <v>       0.38578201       0.13578149       0.70478202 </v>
   <v>       0.38578200       0.63578149       0.70478202 </v>
   <v>       0.88578199       0.13578149       0.70478202 </v>
   <v>       0.88578203       0.63578149       0.70478202 </v>
   <v>       0.13466700       0.11533200       0.80125603 </v>
   <v>       0.13466699       0.61533199       0.80125603 </v>
   <v>       0.63466699       0.11533200       0.80125603 </v>
   <v>       0.63466698       0.61533199       0.80125603 </v>
   <v>       0.36533300       0.38466799       0.80125603 </v>
   <v>       0.36533299       0.88466796       0.80125603 </v>
   <v>       0.86533295       0.38466799       0.80125603 </v>
   <v>       0.86533294       0.88466796       0.80125603 </v>
   <v>       0.11532850       0.36533700       0.80126500 </v>
   <v>       0.11532850       0.86533698       0.80126500 </v>
   <v>       0.61532850       0.36533700       0.80126500 </v>
   <v>       0.61532849       0.86533698       0.80126500 </v>
   <v>       0.38467151       0.13466300       0.80126500 </v>
   <v>       0.38467150       0.63466297       0.80126500 </v>
   <v>       0.88467149       0.13466300       0.80126500 </v>
   <v>       0.88467153       0.63466297       0.80126500 </v>
   <v>       0.99745910       0.00423941       0.60427107 </v>
   <v>       0.00807218       0.50304843       0.60454816 </v>
   <v>       0.50431335       0.00149778       0.60484955 </v>
   <v>       0.50142531       0.49902060       0.60413414 </v>
   <v>       0.25358368       0.25025844       0.60399764 </v>
   <v>       0.24997345       0.75214625       0.60301874 </v>
   <v>       0.74641329       0.25264139       0.60522902 </v>
   <v>       0.74307465       0.75664103       0.60415642 </v>
   <v>       0.00000050       0.00000050       0.70482896 </v>
   <v>       0.00000050       0.50000048       0.70482896 </v>
   <v>       0.50000048       0.00000050       0.70482896 </v>
   <v>       0.50000046       0.50000048       0.70482896 </v>
   <v>       0.24999999       0.24999947       0.70482499 </v>
   <v>       0.25000001       0.74999950       0.70482499 </v>
   <v>       0.74999999       0.24999947       0.70482499 </v>
   <v>       0.74999998       0.74999950       0.70482499 </v>
   <v>       0.00000000       0.00000000       0.80731797 </v>
   <v>       0.00000000       0.50000000       0.80731797 </v>
   <v>       0.50000000       0.00000000       0.80731797 </v>
   <v>       0.49999999       0.50000000       0.80731797 </v>
   <v>       0.24999999       0.25000000       0.80731797 </v>
   <v>       0.25000001       0.74999997       0.80731797 </v>
   <v>       0.74999999       0.25000000       0.80731797 </v>
   <v>       0.74999998       0.74999997       0.80731797 </v>
  </varray>
 </structure>
</modeling>
