 vasp.6.2.1 16May21 (build Nov 15 2021 14:57:28) complex                         
 executed on             LinuxPGI date 2022.02.14  09:36:09
 running on    4 total cores
 distrk:  each k-point on    4 cores,    1 groups
 distr:  one band on NCORE=   1 cores,    4 groups


--------------------------------------------------------------------------------------------------------


 INCAR:
   SYSTEM = PSC
   ISTART = 0
   ICHARG = 2
   PREC = Normal
   ENCUT = 500
   GGA_COMPAT = F
   NELM = 600
   EDIFFG = -0.07
   NSW = 2000
   IBRION = 2
   POTIM = 0.3
   ISIF = 2
   ISYM = 0
   LREAL = Auto
   ISMEAR = 0
   SIGMA = 0.05
   AMIN = 0.01
   BMIX = 0.01
   LORBIT = 11
   LVDW = T
   IVDW = 12

 POTCAR:    PAW_PBE N 08Apr2002                   
 POTCAR:    PAW_PBE C 08Apr2002                   
 POTCAR:    PAW_PBE H 15Jun2001                   
 POTCAR:    PAW_PBE N 08Apr2002                   
   SHA256 =  e053789ff3a61a86a1b75d8a110fcc91f86041011e7b0817c7c99e4e8a6349d7 N/POTCAR              
   COPYR  = (c) Copyright 08Apr2002 Georg Kresse                                                    
   COPYR  = This file is part of the software VASP. Any use, copying, and all other rights are regul
   COPYR  = If you do not have a valid VASP license, you may not use, copy or distribute this file. 
   VRHFIN =N: s2p3                                                                                  
   LEXCH  = PE                                                                                      
   EATOM  =   264.5486 eV,   19.4438 Ry                                                             
                                                                                                    
   TITEL  = PAW_PBE N 08Apr2002                                                                     
   LULTRA =        F    use ultrasoft PP ?                                                          
   IUNSCR =        1    unscreen: 0-lin 1-nonlin 2-no                                               
   RPACOR =    1.200    partial core radius                                                         
   POMASS =   14.001; ZVAL   =    5.000    mass and valenz                                          
   RCORE  =    1.500    outmost cutoff radius                                                       
   RWIGS  =    1.400; RWIGS  =    0.741    wigner-seitz radius (au A)                               
   ENMAX  =  400.000; ENMIN  =  300.000 eV                                                          
   ICORE  =        2    local potential                                                             
   LCOR   =        T    correct aug charges                                                         
   LPAW   =        T    paw PP                                                                      
   EAUG   =  627.112                                                                                
   DEXC   =    0.000                                                                                
   RMAX   =    1.529    core radius for proj-oper                                                   
   RAUG   =    1.300    factor for augmentation sphere                                              
   RDEP   =    1.514    radius for radial grids                                                     
   RDEPT  =    1.338    core radius for aug-charge                                                  
                                                                                                    
   Atomic configuration                                                                             
    4 entries                                                                                       
     n  l   j            E        occ.                                                              
     1  0  0.50      -384.7179   2.0000                                                             
     2  0  0.50       -18.5828   2.0000                                                             
     2  1  0.50        -7.0898   3.0000                                                             
     3  2  1.50        -6.8029   0.0000                                                             
   Description                                                                                      
     l       E           TYP  RCUT    TYP  RCUT                                                     
     0    -18.5828119     23  1.200                                                                 
     0    -13.5018863     23  1.200                                                                 
     1     -7.0897853     23  1.500                                                                 
     1      9.5240782     23  1.500                                                                 
     2     -6.8029130      7  1.500                                                                 
  local pseudopotential read in
  partial core-charges read in
  partial kinetic energy density read in
  atomic valenz-charges read in
  non local Contribution for L=            0  read in
    real space projection operators read in
  non local Contribution for L=            0  read in
    real space projection operators read in
  non local Contribution for L=            1  read in
    real space projection operators read in
  non local Contribution for L=            1  read in
    real space projection operators read in
    PAW grid and wavefunctions read in
 
   number of l-projection  operators is LMAX  =            4
   number of lm-projection operators is LMMAX =            8
 
 POTCAR:    PAW_PBE C 08Apr2002                   
   SHA256 =  253f7b50bb8d59471dbedb8285d89021f4a42ed1a2c5d38a03a736e69125dd95 C/POTCAR              
   COPYR  = (c) Copyright 08Apr2002 Georg Kresse                                                    
   COPYR  = This file is part of the software VASP. Any use, copying, and all other rights are regul
   COPYR  = If you do not have a valid VASP license, you may not use, copy or distribute this file. 
   VRHFIN =C: s2p2                                                                                  
   LEXCH  = PE                                                                                      
   EATOM  =   147.1560 eV,   10.8157 Ry                                                             
                                                                                                    
   TITEL  = PAW_PBE C 08Apr2002                                                                     
   LULTRA =        F    use ultrasoft PP ?                                                          
   IUNSCR =        1    unscreen: 0-lin 1-nonlin 2-no                                               
   RPACOR =    1.200    partial core radius                                                         
   POMASS =   12.011; ZVAL   =    4.000    mass and valenz                                          
   RCORE  =    1.500    outmost cutoff radius                                                       
   RWIGS  =    1.630; RWIGS  =    0.863    wigner-seitz radius (au A)                               
   ENMAX  =  400.000; ENMIN  =  300.000 eV                                                          
   ICORE  =        2    local potential                                                             
   LCOR   =        T    correct aug charges                                                         
   LPAW   =        T    paw PP                                                                      
   EAUG   =  644.873                                                                                
   DEXC   =    0.000                                                                                
   RMAX   =    1.529    core radius for proj-oper                                                   
   RAUG   =    1.300    factor for augmentation sphere                                              
   RDEP   =    1.501    radius for radial grids                                                     
   RDEPT  =    1.300    core radius for aug-charge                                                  
                                                                                                    
   Atomic configuration                                                                             
    4 entries                                                                                       
     n  l   j            E        occ.                                                              
     1  0  0.50      -273.3789   2.0000                                                             
     2  0  0.50       -13.7508   2.0000                                                             
     2  1  0.50        -5.2854   2.0000                                                             
     3  2  1.50        -5.4423   0.0000                                                             
   Description                                                                                      
     l       E           TYP  RCUT    TYP  RCUT                                                     
     0    -13.7508458     23  1.200                                                                 
     0     -8.2022199     23  1.200                                                                 
     1     -5.2854383     23  1.500                                                                 
     1     34.0145650     23  1.500                                                                 
     2     -5.4423304      7  1.500                                                                 
  local pseudopotential read in
  partial core-charges read in
  partial kinetic energy density read in
  atomic valenz-charges read in
  non local Contribution for L=            0  read in
    real space projection operators read in
  non local Contribution for L=            0  read in
    real space projection operators read in
  non local Contribution for L=            1  read in
    real space projection operators read in
  non local Contribution for L=            1  read in
    real space projection operators read in
    PAW grid and wavefunctions read in
 
   number of l-projection  operators is LMAX  =            4
   number of lm-projection operators is LMMAX =            8
 
 POTCAR:    PAW_PBE H 15Jun2001                   
   SHA256 =  030f79b5d3ab3cf0e668861823c8fb652ff669f3e15e46930bd03bfd63a607b6 H/POTCAR              
   COPYR  = (c) Copyright 15Jun2001 Georg Kresse                                                    
   COPYR  = This file is part of the software VASP. Any use, copying, and all other rights are regul
   COPYR  = If you do not have a valid VASP license, you may not use, copy or distribute this file. 
   VRHFIN =H: ultrasoft test                                                                        
   LEXCH  = PE                                                                                      
   EATOM  =    12.4884 eV,    0.9179 Ry                                                             
                                                                                                    
   TITEL  = PAW_PBE H 15Jun2001                                                                     
   LULTRA =        F    use ultrasoft PP ?                                                          
   IUNSCR =        0    unscreen: 0-lin 1-nonlin 2-no                                               
   RPACOR =    0.000    partial core radius                                                         
   POMASS =    1.000; ZVAL   =    1.000    mass and valenz                                          
   RCORE  =    1.100    outmost cutoff radius                                                       
   RWIGS  =    0.700; RWIGS  =    0.370    wigner-seitz radius (au A)                               
   ENMAX  =  250.000; ENMIN  =  200.000 eV                                                          
   RCLOC  =    0.701    cutoff for local pot                                                        
   LCOR   =        T    correct aug charges                                                         
   LPAW   =        T    paw PP                                                                      
   EAUG   =  400.000                                                                                
   RMAX   =    1.123    core radius for proj-oper                                                   
   RAUG   =    1.200    factor for augmentation sphere                                              
   RDEP   =    1.112    radius for radial grids                                                     
   RDEPT  =    0.926    core radius for aug-charge                                                  
                                                                                                    
   Atomic configuration                                                                             
    2 entries                                                                                       
     n  l   j            E        occ.                                                              
     1  0  0.50        -6.4927   1.0000                                                             
     2  1  0.50        -3.4015   0.0000                                                             
   Description                                                                                      
     l       E           TYP  RCUT    TYP  RCUT                                                     
     0     -6.4927494     23  1.100                                                                 
     0      6.8029130     23  1.100                                                                 
     1     -4.0817478     23  1.100                                                                 
  local pseudopotential read in
  atomic valenz-charges read in
  non local Contribution for L=            0  read in
    real space projection operators read in
  non local Contribution for L=            0  read in
    real space projection operators read in
  non local Contribution for L=            1  read in
    real space projection operators read in
    PAW grid and wavefunctions read in
 
   number of l-projection  operators is LMAX  =            3
   number of lm-projection operators is LMMAX =            5
 
 Optimization of the real space projectors (new method)

 maximal supplied QI-value         = 25.13
 optimisation between [QCUT,QGAM] = [ 11.31, 22.87] = [ 35.82,146.48] Ry 
 Optimized for a Real-space Cutoff    1.27 Angstroem

   l    n(q)    QCUT    max X(q) W(low)/X(q) W(high)/X(q)  e(spline) 
   0      9    11.310    79.467    0.75E-04    0.16E-03    0.36E-06
   0      9    11.310    66.151    0.74E-04    0.16E-03    0.36E-06
   1      8    11.310    17.416    0.35E-03    0.12E-03    0.95E-06
   1      8    11.310    12.382    0.37E-03    0.13E-03    0.98E-06
 Optimization of the real space projectors (new method)

 maximal supplied QI-value         = 25.13
 optimisation between [QCUT,QGAM] = [ 11.31, 22.87] = [ 35.82,146.48] Ry 
 Optimized for a Real-space Cutoff    1.00 Angstroem

   l    n(q)    QCUT    max X(q) W(low)/X(q) W(high)/X(q)  e(spline) 
   0      7    11.310   115.676    0.43E-03    0.13E-02    0.19E-06
   0      7    11.310    87.132    0.43E-03    0.13E-02    0.18E-06
   1      6    11.310     4.429    0.42E-03    0.74E-03    0.11E-06
   1      6    11.310     2.733    0.34E-03    0.55E-03    0.92E-07
 Optimization of the real space projectors (new method)

 maximal supplied QI-value         = 34.20
 optimisation between [QCUT,QGAM] = [ 11.29, 22.57] = [ 35.68,142.71] Ry 
 Optimized for a Real-space Cutoff    1.16 Angstroem

   l    n(q)    QCUT    max X(q) W(low)/X(q) W(high)/X(q)  e(spline) 
   0      8    11.287    19.460    0.40E-03    0.73E-03    0.16E-06
   0      8    11.287    12.209    0.38E-03    0.70E-03    0.15E-06
   1      7    11.287     4.655    0.22E-03    0.25E-04    0.22E-06
  PAW_PBE N 08Apr2002                   :
 energy of atom  1       EATOM= -264.5486
 kinetic energy error for atom=    0.0138 (will be added to EATOM!!)
  PAW_PBE C 08Apr2002                   :
 energy of atom  2       EATOM= -147.1560
 kinetic energy error for atom=    0.0076 (will be added to EATOM!!)
  PAW_PBE H 15Jun2001                   :
 energy of atom  3       EATOM=  -12.4884
 kinetic energy error for atom=    0.0020 (will be added to EATOM!!)
 
 
 POSCAR: Molecule_12951678
  positions in cartesian coordinates
  No initial velocities read in
 exchange correlation table for  LEXCH =        8
   RHO(1)=    0.500       N(1)  =     2000
   RHO(2)=  100.500       N(2)  =     4000
 


--------------------------------------------------------------------------------------------------------


 ion  position               nearest neighbor table
   1  0.578  0.490  0.502-   4 1.53   3 1.53   2 1.53   5 1.53
   2  0.522  0.538  0.523-  18 1.09  19 1.09   6 1.53   1 1.53
   3  0.589  0.439  0.558-  21 1.09  20 1.09   8 1.53   1 1.53
   4  0.644  0.527  0.489-  22 1.09  23 1.09   9 1.52   1 1.53
   5  0.556  0.455  0.437-  25 1.09  24 1.09  10 1.53   1 1.53
   6  0.509  0.598  0.477-  26 1.10  27 1.10   2 1.53   7 1.55
   7  0.447  0.637  0.501-  29 1.10  28 1.10  11 1.55   6 1.55
   8  0.530  0.393  0.573-  32 1.09  30 1.09  31 1.10   3 1.53
   9  0.671  0.568  0.547-  34 1.09  33 1.09  35 1.09   4 1.52
  10  0.601  0.398  0.413-  36 1.09  38 1.09  37 1.10   5 1.53
  11  0.379  0.613  0.471-  40 1.10  39 1.10  12 1.52   7 1.55
  12  0.361  0.541  0.485-  14 1.40  13 1.40  11 1.52
  13  0.342  0.521  0.550-  41 1.09  15 1.40  12 1.40
  14  0.363  0.493  0.434-  42 1.09  16 1.40  12 1.40
  15  0.327  0.454  0.563-  43 1.09  13 1.40  17 1.40
  16  0.348  0.426  0.447-  44 1.09  17 1.40  14 1.40
  17  0.329  0.406  0.512-  45 1.09  16 1.40  15 1.40
  18  0.478  0.508  0.529-   2 1.09
  19  0.536  0.556  0.573-   2 1.09
  20  0.633  0.410  0.544-   3 1.09
  21  0.601  0.468  0.602-   3 1.09
  22  0.679  0.489  0.474-   4 1.09
  23  0.634  0.559  0.446-   4 1.09
  24  0.505  0.437  0.447-   5 1.09
  25  0.553  0.494  0.400-   5 1.09
  26  0.552  0.632  0.477-   6 1.10
  27  0.501  0.582  0.425-   6 1.10
  28  0.444  0.637  0.556-   7 1.10
  29  0.453  0.690  0.487-   7 1.10
  30  0.517  0.360  0.531-   8 1.09
  31  0.545  0.360  0.614-   8 1.10
  32  0.485  0.419  0.589-   8 1.09
  33  0.637  0.606  0.565-   9 1.09
  34  0.687  0.537  0.589-   9 1.09
  35  0.716  0.593  0.529-   9 1.09
  36  0.604  0.356  0.448-  10 1.09
  37  0.579  0.379  0.367-  10 1.10
  38  0.652  0.414  0.401-  10 1.09
  39  0.340  0.646  0.491-  11 1.10
  40  0.380  0.622  0.417-  11 1.10
  41  0.339  0.557  0.590-  13 1.09
  42  0.376  0.508  0.384-  14 1.09
  43  0.311  0.439  0.613-  15 1.09
  44  0.349  0.390  0.407-  16 1.09
  45  0.316  0.355  0.522-  17 1.09
 

IMPORTANT INFORMATION: All symmetrisations will be switched off!
NOSYMM: (Re-)initialisation of all symmetry stuff for point group C_1.


----------------------------------------------------------------------------------------

                                     Primitive cell                                     

  volume of cell :    8000.0000

  direct lattice vectors                    reciprocal lattice vectors
    20.000000000  0.000000000  0.000000000     0.050000000  0.000000000  0.000000000
     0.000000000 20.000000000  0.000000000     0.000000000  0.050000000  0.000000000
     0.000000000  0.000000000 20.000000000     0.000000000  0.000000000  0.050000000

  length of vectors
    20.000000000 20.000000000 20.000000000     0.050000000  0.050000000  0.050000000

  position of ions in fractional coordinates (direct lattice)
     0.577847808  0.489904472  0.501971258
     0.522463808  0.538416172  0.523319508
     0.588569558  0.438966022  0.558143858
     0.643541658  0.526838022  0.488949308
     0.556193108  0.454659672  0.437424158
     0.508961658  0.598055722  0.477206158
     0.446564608  0.637330022  0.501084058
     0.529843958  0.392641922  0.573036458
     0.671436258  0.567616322  0.546994808
     0.601169108  0.398006972  0.413283658
     0.379306158  0.613453122  0.471328108
     0.361241508  0.541177372  0.485319108
     0.342147908  0.520598722  0.549686408
     0.363459958  0.493020272  0.434412358
     0.326508808  0.453859022  0.562872708
     0.347697908  0.426125822  0.447320558
     0.329438558  0.406299572  0.511708708
     0.477507658  0.508208622  0.528567558
     0.536493808  0.556254922  0.573002558
     0.632722708  0.410102972  0.544008608
     0.601243258  0.468144672  0.602424208
     0.679470858  0.488642272  0.473886258
     0.634186158  0.558910272  0.445790908
     0.505443058  0.436760322  0.446530758
     0.553302408  0.493742122  0.399517858
     0.552146358  0.631744872  0.476881908
     0.500840608  0.581960972  0.425475708
     0.444056858  0.636557072  0.555950608
     0.453183208  0.689899372  0.487226758
     0.516945458  0.360275422  0.530955858
     0.545055258  0.360132572  0.614387358
     0.484876508  0.419210622  0.589026358
     0.636996508  0.606246872  0.564572008
     0.686804858  0.536861622  0.589472858
     0.716305808  0.593077722  0.528702958
     0.603798958  0.356325822  0.448497658
     0.579240108  0.378626372  0.367011758
     0.651919258  0.414282822  0.401160108
     0.339996358  0.646301772  0.490942258
     0.380374158  0.621570222  0.417094958
     0.338591958  0.557333972  0.589668108
     0.376244108  0.508298322  0.383779558
     0.310937808  0.439149822  0.612809908
     0.348531058  0.389869022  0.406842058
     0.316392558  0.354539322  0.521751358

  ion indices of the primitive-cell ions
   primitive index   ion index
                 1           1
                 2           2
                 3           3
                 4           4
                 5           5
                 6           6
                 7           7
                 8           8
                 9           9
                10          10
                11          11
                12          12
                13          13
                14          14
                15          15
                16          16
                17          17
                18          18
                19          19
                20          20
                21          21
                22          22
                23          23
                24          24
                25          25
                26          26
                27          27
                28          28
                29          29
                30          30
                31          31
                32          32
                33          33
                34          34
                35          35
                36          36
                37          37
                38          38
                39          39
                40          40
                41          41
                42          42
                43          43
                44          44
                45          45

----------------------------------------------------------------------------------------

 
 
 KPOINTS: Automatic Mesh                          

Automatic generation of k-mesh.
 Grid dimensions read from file:
 generate k-points for:    3    3    3

 Generating k-lattice:

  Cartesian coordinates                     Fractional coordinates (reciprocal lattice)
     0.016666667  0.000000000  0.000000000     0.333333333  0.000000000  0.000000000
     0.000000000  0.016666667  0.000000000     0.000000000  0.333333333  0.000000000
     0.000000000  0.000000000  0.016666667     0.000000000  0.000000000  0.333333333

  Length of vectors
     0.016666667  0.016666667  0.016666667

  Shift w.r.t. Gamma in fractional coordinates (k-lattice)
     0.000000000  0.000000000  0.000000000

 
 Subroutine IBZKPT returns following result:
 ===========================================
 
 Found     14 irreducible k-points:
 
 Following reciprocal coordinates:
            Coordinates               Weight
  0.000000  0.000000  0.000000      1.000000
  0.333333  0.000000  0.000000      2.000000
  0.000000  0.333333  0.000000      2.000000
  0.000000  0.000000  0.333333      2.000000
  0.333333  0.333333  0.000000      2.000000
  0.000000  0.333333  0.333333      2.000000
  0.333333  0.000000  0.333333      2.000000
 -0.333333  0.333333  0.000000      2.000000
 -0.333333  0.000000  0.333333      2.000000
  0.000000 -0.333333  0.333333      2.000000
  0.333333  0.333333  0.333333      2.000000
 -0.333333  0.333333  0.333333      2.000000
 -0.333333 -0.333333  0.333333      2.000000
  0.333333 -0.333333  0.333333      2.000000
 
 Following cartesian coordinates:
            Coordinates               Weight
  0.000000  0.000000  0.000000      1.000000
  0.016667  0.000000  0.000000      2.000000
  0.000000  0.016667  0.000000      2.000000
  0.000000  0.000000  0.016667      2.000000
  0.016667  0.016667  0.000000      2.000000
  0.000000  0.016667  0.016667      2.000000
  0.016667  0.000000  0.016667      2.000000
 -0.016667  0.016667  0.000000      2.000000
 -0.016667  0.000000  0.016667      2.000000
  0.000000 -0.016667  0.016667      2.000000
  0.016667  0.016667  0.016667      2.000000
 -0.016667  0.016667  0.016667      2.000000
 -0.016667 -0.016667  0.016667      2.000000
  0.016667 -0.016667  0.016667      2.000000
 


--------------------------------------------------------------------------------------------------------




 Dimension of arrays:
   k-points           NKPTS =     14   k-points in BZ     NKDIM =     14   number of bands    NBANDS=     72
   number of dos      NEDOS =    301   number of ions     NIONS =     45
   non local maximal  LDIM  =      4   non local SUM 2l+1 LMDIM =      8
   total plane-waves  NPLWV = ******
   max r-space proj   IRMAX =   1563   max aug-charges    IRDMAX=   2360
   dimension x,y,z NGX =   112 NGY =  112 NGZ =  112
   dimension x,y,z NGXF=   224 NGYF=  224 NGZF=  224
   support grid    NGXF=   224 NGYF=  224 NGZF=  224
   ions per type =               1  16  28
   NGX,Y,Z   is equivalent  to a cutoff of   9.31,  9.31,  9.31 a.u.
   NGXF,Y,Z  is equivalent  to a cutoff of  18.62, 18.62, 18.62 a.u.

 SYSTEM =  PSC                                     
 POSCAR =  Molecule_12951678                       

 Startparameter for this run:
   NWRITE =      2    write-flag & timer
   PREC   = normal    normal or accurate (medium, high low for compatibility)
   ISTART =      0    job   : 0-new  1-cont  2-samecut
   ICHARG =      2    charge: 1-file 2-atom 10-const
   ISPIN  =      1    spin polarized calculation?
   LNONCOLLINEAR =      F non collinear calculations
   LSORBIT =      F    spin-orbit coupling
   INIWAV =      1    electr: 0-lowe 1-rand  2-diag
   LASPH  =      F    aspherical Exc in radial PAW
 Electronic Relaxation 1
   ENCUT  =  500.0 eV  36.75 Ry    6.06 a.u.  36.46 36.46 36.46*2*pi/ulx,y,z
   ENINI  =  500.0     initial cutoff
   ENAUG  =  644.9 eV  augmentation charge cutoff
   NELM   =    600;   NELMIN=  2; NELMDL= -5     # of ELM steps 
   EDIFF  = 0.1E-03   stopping-criterion for ELM
   LREAL  =      T    real-space projection
   NLSPLINE    = F    spline interpolate recip. space projectors
   LCOMPAT=      F    compatible to vasp.4.4
   GGA_COMPAT  = F    GGA compatible to vasp.4.4-vasp.4.6
   LMAXPAW     = -100 max onsite density
   LMAXMIX     =    2 max onsite mixed and CHGCAR
   VOSKOWN=      0    Vosko Wilk Nusair interpolation
   ROPT   =   -0.00050  -0.00050  -0.00050
 Ionic relaxation
   EDIFFG = -.7E-01   stopping-criterion for IOM
   NSW    =   2000    number of steps for IOM
   NBLOCK =      1;   KBLOCK =   2000    inner block; outer block 
   IBRION =      2    ionic relax: 0-MD 1-quasi-New 2-CG
   NFREE  =      1    steps in history (QN), initial steepest desc. (CG)
   ISIF   =      2    stress and relaxation
   IWAVPR =     11    prediction:  0-non 1-charg 2-wave 3-comb
   ISYM   =      0    0-nonsym 1-usesym 2-fastsym
   LCORR  =      T    Harris-Foulkes like correction to forces

   POTIM  = 0.3000    time-step for ionic-motion
   TEIN   =    0.0    initial temperature
   TEBEG  =    0.0;   TEEND  =   0.0 temperature during run
   SMASS  =  -3.00    Nose mass-parameter (am)
   estimated Nose-frequenzy (Omega)   =  0.10E-29 period in steps = 0.21E+47 mass=  -0.914E-26a.u.
   SCALEE = 1.0000    scale energy and forces
   NPACO  =    256;   APACO  = 16.0  distance and # of slots for P.C.
   PSTRESS=    0.0 pullay stress

  Mass of Ions in am
   POMASS =  14.00 12.01  1.00
  Ionic Valenz
   ZVAL   =   5.00  4.00  1.00
  Atomic Wigner-Seitz radii
   RWIGS  =  -1.00 -1.00 -1.00
  virtual crystal weights 
   VCA    =   1.00  1.00  1.00
   NELECT =      97.0000    total number of electrons
   NUPDOWN=      -1.0000    fix difference up-down

 DOS related values:
   EMIN   =  10.00;   EMAX   =-10.00  energy-range for DOS
   EFERMI =   0.00
   ISMEAR =     0;   SIGMA  =   0.05  broadening in eV -4-tet -1-fermi 0-gaus

 Electronic relaxation 2 (details)
   IALGO  =     38    algorithm
   LDIAG  =      T    sub-space diagonalisation (order eigenvalues)
   LSUBROT=      F    optimize rotation matrix (better conditioning)
   TURBO    =      0    0=normal 1=particle mesh
   IRESTART =      0    0=no restart 2=restart with 2 vectors
   NREBOOT  =      0    no. of reboots
   NMIN     =      0    reboot dimension
   EREF     =   0.00    reference energy to select bands
   IMIX   =      4    mixing-type and parameters
     AMIX     =   0.40;   BMIX     =  0.01
     AMIX_MAG =   1.60;   BMIX_MAG =  0.01
     AMIN     =   0.01
     WC   =   100.;   INIMIX=   1;  MIXPRE=   1;  MAXMIX= -45

 Intra band minimization:
   WEIMIN = 0.0010     energy-eigenvalue tresh-hold
   EBREAK =  0.35E-06  absolut break condition
   DEPER  =   0.30     relativ break condition  

   TIME   =   0.40     timestep for ELM

  volume/ion in A,a.u.               =     177.78      1199.70
  Fermi-wavevector in a.u.,A,eV,Ry     =   0.376099  0.710724  1.924549  0.141450
  Thomas-Fermi vector in A             =   1.307690
 
 Write flags
   LWAVE        =      T    write WAVECAR
   LDOWNSAMPLE  =      F    k-point downsampling of WAVECAR
   LCHARG       =      T    write CHGCAR
   LVTOT        =      F    write LOCPOT, total local potential
   LVHAR        =      F    write LOCPOT, Hartree potential only
   LELF         =      F    write electronic localiz. function (ELF)
   LORBIT       =     11    0 simple, 1 ext, 2 COOP (PROOUT), +10 PAW based schemes


 Dipole corrections
   LMONO  =      F    monopole corrections only (constant potential shift)
   LDIPOL =      F    correct potential (dipole corrections)
   IDIPOL =      0    1-x, 2-y, 3-z, 4-all directions 
   EPSILON=  1.0000000 bulk dielectric constant

 Exchange correlation treatment:
   GGA     =    --    GGA type
   LEXCH   =     8    internal setting for exchange type
   VOSKOWN=      0    Vosko Wilk Nusair interpolation
   LHFCALC =     F    Hartree Fock is set to
   LHFONE  =     F    Hartree Fock one center treatment
   AEXX    =    0.0000 exact exchange contribution

 Linear response parameters
   LEPSILON=     F    determine dielectric tensor
   LRPA    =     F    only Hartree local field effects (RPA)
   LNABLA  =     F    use nabla operator in PAW spheres
   LVEL    =     F    velocity operator in full k-point grid
   LINTERFAST=   F  fast interpolation
   KINTER  =     0    interpolate to denser k-point grid
   CSHIFT  =0.1000    complex shift for real part using Kramers Kronig
   OMEGAMAX=  -1.0    maximum frequency
   DEG_THRESHOLD= 0.2000000E-02 threshold for treating states as degnerate
   RTIME   =   -0.100 relaxation time in fs
  (WPLASMAI=    0.000 imaginary part of plasma frequency in eV, 0.658/RTIME)
   DFIELD  = 0.0000000 0.0000000 0.0000000 field for delta impulse in time
 
 Orbital magnetization related:
   ORBITALMAG=     F  switch on orbital magnetization
   LCHIMAG   =     F  perturbation theory with respect to B field
   DQ        =  0.001000  dq finite difference perturbation B field
   LLRAUG    =     F  two centre corrections for induced B field



--------------------------------------------------------------------------------------------------------


 conjugate gradient relaxation of ions
 charge density and potential will be updated during run
 non-spin polarized calculation
 Variant of blocked Davidson
 Davidson routine will perform the subspace rotation
 perform sub-space diagonalisation
    after iterative eigenvector-optimisation
 modified Broyden-mixing scheme, WC =      100.0
 initial mixing is a Kerker type mixing with AMIX =  0.4000 and BMIX =      0.0100
 Hartree-type preconditioning will be used
 using additional bands            23
 real space projection scheme for non local part
 use partial core corrections
 calculate Harris-corrections to forces 
   (improved forces if not selfconsistent)
 use gradient corrections 
 use of overlap-Matrix (Vanderbilt PP)
 Gauss-broadening in eV      SIGMA  =   0.05


--------------------------------------------------------------------------------------------------------


  energy-cutoff  :      500.00
  volume of cell :     8000.00
      direct lattice vectors                 reciprocal lattice vectors
    20.000000000  0.000000000  0.000000000     0.050000000  0.000000000  0.000000000
     0.000000000 20.000000000  0.000000000     0.000000000  0.050000000  0.000000000
     0.000000000  0.000000000 20.000000000     0.000000000  0.000000000  0.050000000

  length of vectors
    20.000000000 20.000000000 20.000000000     0.050000000  0.050000000  0.050000000


 
 k-points in units of 2pi/SCALE and weight: Automatic Mesh                          
   0.00000000  0.00000000  0.00000000       0.037
   0.01666667  0.00000000  0.00000000       0.074
   0.00000000  0.01666667  0.00000000       0.074
   0.00000000  0.00000000  0.01666667       0.074
   0.01666667  0.01666667  0.00000000       0.074
   0.00000000  0.01666667  0.01666667       0.074
   0.01666667  0.00000000  0.01666667       0.074
  -0.01666667  0.01666667  0.00000000       0.074
  -0.01666667  0.00000000  0.01666667       0.074
   0.00000000 -0.01666667  0.01666667       0.074
   0.01666667  0.01666667  0.01666667       0.074
  -0.01666667  0.01666667  0.01666667       0.074
  -0.01666667 -0.01666667  0.01666667       0.074
   0.01666667 -0.01666667  0.01666667       0.074
 
 k-points in reciprocal lattice and weights: Automatic Mesh                          
   0.00000000  0.00000000  0.00000000       0.037
   0.33333333  0.00000000  0.00000000       0.074
   0.00000000  0.33333333  0.00000000       0.074
   0.00000000  0.00000000  0.33333333       0.074
   0.33333333  0.33333333  0.00000000       0.074
   0.00000000  0.33333333  0.33333333       0.074
   0.33333333  0.00000000  0.33333333       0.074
  -0.33333333  0.33333333  0.00000000       0.074
  -0.33333333  0.00000000  0.33333333       0.074
   0.00000000 -0.33333333  0.33333333       0.074
   0.33333333  0.33333333  0.33333333       0.074
  -0.33333333  0.33333333  0.33333333       0.074
  -0.33333333 -0.33333333  0.33333333       0.074
   0.33333333 -0.33333333  0.33333333       0.074
 
 position of ions in fractional coordinates (direct lattice) 
   0.57784781  0.48990447  0.50197126
   0.52246381  0.53841617  0.52331951
   0.58856956  0.43896602  0.55814386
   0.64354166  0.52683802  0.48894931
   0.55619311  0.45465967  0.43742416
   0.50896166  0.59805572  0.47720616
   0.44656461  0.63733002  0.50108406
   0.52984396  0.39264192  0.57303646
   0.67143626  0.56761632  0.54699481
   0.60116911  0.39800697  0.41328366
   0.37930616  0.61345312  0.47132811
   0.36124151  0.54117737  0.48531911
   0.34214791  0.52059872  0.54968641
   0.36345996  0.49302027  0.43441236
   0.32650881  0.45385902  0.56287271
   0.34769791  0.42612582  0.44732056
   0.32943856  0.40629957  0.51170871
   0.47750766  0.50820862  0.52856756
   0.53649381  0.55625492  0.57300256
   0.63272271  0.41010297  0.54400861
   0.60124326  0.46814467  0.60242421
   0.67947086  0.48864227  0.47388626
   0.63418616  0.55891027  0.44579091
   0.50544306  0.43676032  0.44653076
   0.55330241  0.49374212  0.39951786
   0.55214636  0.63174487  0.47688191
   0.50084061  0.58196097  0.42547571
   0.44405686  0.63655707  0.55595061
   0.45318321  0.68989937  0.48722676
   0.51694546  0.36027542  0.53095586
   0.54505526  0.36013257  0.61438736
   0.48487651  0.41921062  0.58902636
   0.63699651  0.60624687  0.56457201
   0.68680486  0.53686162  0.58947286
   0.71630581  0.59307772  0.52870296
   0.60379896  0.35632582  0.44849766
   0.57924011  0.37862637  0.36701176
   0.65191926  0.41428282  0.40116011
   0.33999636  0.64630177  0.49094226
   0.38037416  0.62157022  0.41709496
   0.33859196  0.55733397  0.58966811
   0.37624411  0.50829832  0.38377956
   0.31093781  0.43914982  0.61280991
   0.34853106  0.38986902  0.40684206
   0.31639256  0.35453932  0.52175136
 
 position of ions in cartesian coordinates  (Angst):
  11.55695616  9.79808944 10.03942516
  10.44927616 10.76832344 10.46639016
  11.77139116  8.77932044 11.16287716
  12.87083316 10.53676044  9.77898616
  11.12386216  9.09319344  8.74848316
  10.17923316 11.96111444  9.54412316
   8.93129216 12.74660044 10.02168116
  10.59687916  7.85283844 11.46072916
  13.42872516 11.35232644 10.93989616
  12.02338216  7.96013944  8.26567316
   7.58612316 12.26906244  9.42656216
   7.22483016 10.82354744  9.70638216
   6.84295816 10.41197444 10.99372816
   7.26919916  9.86040544  8.68824716
   6.53017616  9.07718044 11.25745416
   6.95395816  8.52251644  8.94641116
   6.58877116  8.12599144 10.23417416
   9.55015316 10.16417244 10.57135116
  10.72987616 11.12509844 11.46005116
  12.65445416  8.20205944 10.88017216
  12.02486516  9.36289344 12.04848416
  13.58941716  9.77284544  9.47772516
  12.68372316 11.17820544  8.91581816
  10.10886116  8.73520644  8.93061516
  11.06604816  9.87484244  7.99035716
  11.04292716 12.63489744  9.53763816
  10.01681216 11.63921944  8.50951416
   8.88113716 12.73114144 11.11901216
   9.06366416 13.79798744  9.74453516
  10.33890916  7.20550844 10.61911716
  10.90110516  7.20265144 12.28774716
   9.69753016  8.38421244 11.78052716
  12.73993016 12.12493744 11.29144016
  13.73609716 10.73723244 11.78945716
  14.32611616 11.86155444 10.57405916
  12.07597916  7.12651644  8.96995316
  11.58480216  7.57252744  7.34023516
  13.03838516  8.28565644  8.02320216
   6.79992716 12.92603544  9.81884516
   7.60748316 12.43140444  8.34189916
   6.77183916 11.14667944 11.79336216
   7.52488216 10.16596644  7.67559116
   6.21875616  8.78299644 12.25619816
   6.97062116  7.79738044  8.13684116
   6.32785116  7.09078644 10.43502716
 


--------------------------------------------------------------------------------------------------------


 k-point   1 :   0.0000 0.0000 0.0000  plane waves:  203269
 k-point   2 :   0.3333 0.0000 0.0000  plane waves:  203129
 k-point   3 :   0.0000 0.3333 0.0000  plane waves:  203129
 k-point   4 :   0.0000 0.0000 0.3333  plane waves:  203129
 k-point   5 :   0.3333 0.3333 0.0000  plane waves:  203106
 k-point   6 :   0.0000 0.3333 0.3333  plane waves:  203106
 k-point   7 :   0.3333 0.0000 0.3333  plane waves:  203106
 k-point   8 :  -0.3333 0.3333 0.0000  plane waves:  203106
 k-point   9 :  -0.3333 0.0000 0.3333  plane waves:  203106
 k-point  10 :   0.0000-0.3333 0.3333  plane waves:  203106
 k-point  11 :   0.3333 0.3333 0.3333  plane waves:  203034
 k-point  12 :  -0.3333 0.3333 0.3333  plane waves:  203034
 k-point  13 :  -0.3333-0.3333 0.3333  plane waves:  203034
 k-point  14 :   0.3333-0.3333 0.3333  plane waves:  203034

 maximum and minimum number of plane-waves per node :    203269   203034

 maximum number of plane-waves:    203269
 maximum index in each direction: 
   IXMAX=   36   IYMAX=   36   IZMAX=   36
   IXMIN=  -36   IYMIN=  -36   IZMIN=  -36


 serial   3D FFT for wavefunctions
 parallel 3D FFT for charge:
    minimum data exchange during FFTs selected (reduces bandwidth)


 total amount of memory used by VASP MPI-rank0  1192464. kBytes
=======================================================================

   base      :      30000. kBytes
   nonlr-proj:       3467. kBytes
   fftplans  :     100722. kBytes
   grid      :     237432. kBytes
   one-center:        138. kBytes
   wavefun   :     820705. kBytes
 
     INWAV:  cpu time    0.0000: real time    0.0000
 Broyden mixing: mesh for mixing (old mesh)
   NGX = 73   NGY = 73   NGZ = 73
  (NGX  =224   NGY  =224   NGZ  =224)
  gives a total of 389017 points

 initial charge density was supplied:
 charge density of overlapping atoms calculated
 number of electron      97.0000000 magnetization 
 keeping initial charge density in first step


--------------------------------------------------------------------------------------------------------


 Maximum index for non-local projection operator          1468
 Maximum index for augmentation-charges           535 (set IRDMAX)


--------------------------------------------------------------------------------------------------------


 First call to EWALD:  gamma=   0.089
 Maximum number of real-space cells 3x 3x 3
 Maximum number of reciprocal cells 3x 3x 3

    FEWALD:  cpu time    0.0053: real time    0.0053


--------------------------------------- Iteration      1(   1)  ---------------------------------------


    POTLOK:  cpu time    0.0792: real time    0.0890
    SETDIJ:  cpu time    0.0154: real time    0.0154
     EDDAV:  cpu time    2.1030: real time    2.1104
       DOS:  cpu time    0.0009: real time    0.0009
    --------------------------------------------
      LOOP:  cpu time    2.1985: real time    2.2156

 eigenvalue-minimisations  :  2464
 total energy-change (2. order) : 0.7958115E+03  (-0.2239811E+04)
 number of electron      97.0000000 magnetization 
 augmentation part       97.0000000 magnetization 

 Free energy of the ion-electron system (eV)
  ---------------------------------------------------
  alpha Z        PSCENC =         5.07247859
  Ewald energy   TEWEN  =     10244.67916894
  -Hartree energ DENC   =    -12142.70119014
  -exchange      EXHF   =         0.00000000
  -V(xc)+E(xc)   XCENC  =       296.79943063
  PAW double counting   =      2001.03824190    -2011.58829689
  entropy T*S    EENTRO =        -0.03230763
  eigenvalues    EBANDS =      -565.98567929
  atomic energy  EATOM  =      2968.52963279
  Solvation  Ediel_sol  =         0.00000000
  ---------------------------------------------------
  free energy    TOTEN  =       795.81147890 eV

  energy without entropy =      795.84378654  energy(sigma->0) =      795.82763272


--------------------------------------------------------------------------------------------------------




--------------------------------------- Iteration      1(   2)  ---------------------------------------


     EDDAV:  cpu time    2.6696: real time    2.6696
       DOS:  cpu time    0.0007: real time    0.0007
    --------------------------------------------
      LOOP:  cpu time    2.6703: real time    2.6703

 eigenvalue-minimisations  :  3328
 total energy-change (2. order) :-0.6359733E+03  (-0.5740293E+03)
 number of electron      97.0000000 magnetization 
 augmentation part       97.0000000 magnetization 

 Free energy of the ion-electron system (eV)
  ---------------------------------------------------
  alpha Z        PSCENC =         5.07247859
  Ewald energy   TEWEN  =     10244.67916894
  -Hartree energ DENC   =    -12142.70119014
  -exchange      EXHF   =         0.00000000
  -V(xc)+E(xc)   XCENC  =       296.79943063
  PAW double counting   =      2001.03824190    -2011.58829689
  entropy T*S    EENTRO =        -0.01466247
  eigenvalues    EBANDS =     -1201.97666907
  atomic energy  EATOM  =      2968.52963279
  Solvation  Ediel_sol  =         0.00000000
  ---------------------------------------------------
  free energy    TOTEN  =       159.83813429 eV

  energy without entropy =      159.85279675  energy(sigma->0) =      159.84546552


--------------------------------------------------------------------------------------------------------




--------------------------------------- Iteration      1(   3)  ---------------------------------------


     EDDAV:  cpu time    2.3601: real time    2.3598
       DOS:  cpu time    0.0007: real time    0.0007
    --------------------------------------------
      LOOP:  cpu time    2.3607: real time    2.3604

 eigenvalue-minimisations  :  2880
 total energy-change (2. order) :-0.3887233E+03  (-0.3859176E+03)
 number of electron      97.0000000 magnetization 
 augmentation part       97.0000000 magnetization 

 Free energy of the ion-electron system (eV)
  ---------------------------------------------------
  alpha Z        PSCENC =         5.07247859
  Ewald energy   TEWEN  =     10244.67916894
  -Hartree energ DENC   =    -12142.70119014
  -exchange      EXHF   =         0.00000000
  -V(xc)+E(xc)   XCENC  =       296.79943063
  PAW double counting   =      2001.03824190    -2011.58829689
  entropy T*S    EENTRO =        -0.00342897
  eigenvalues    EBANDS =     -1590.71122949
  atomic energy  EATOM  =      2968.52963279
  Solvation  Ediel_sol  =         0.00000000
  ---------------------------------------------------
  free energy    TOTEN  =      -228.88519263 eV

  energy without entropy =     -228.88176366  energy(sigma->0) =     -228.88347815


--------------------------------------------------------------------------------------------------------




--------------------------------------- Iteration      1(   4)  ---------------------------------------


     EDDAV:  cpu time    2.2403: real time    2.2400
       DOS:  cpu time    0.0007: real time    0.0007
    --------------------------------------------
      LOOP:  cpu time    2.2410: real time    2.2407

 eigenvalue-minimisations  :  2704
 total energy-change (2. order) :-0.5014944E+02  (-0.5000741E+02)
 number of electron      97.0000000 magnetization 
 augmentation part       97.0000000 magnetization 

 Free energy of the ion-electron system (eV)
  ---------------------------------------------------
  alpha Z        PSCENC =         5.07247859
  Ewald energy   TEWEN  =     10244.67916894
  -Hartree energ DENC   =    -12142.70119014
  -exchange      EXHF   =         0.00000000
  -V(xc)+E(xc)   XCENC  =       296.79943063
  PAW double counting   =      2001.03824190    -2011.58829689
  entropy T*S    EENTRO =        -0.00846124
  eigenvalues    EBANDS =     -1640.85563736
  atomic energy  EATOM  =      2968.52963279
  Solvation  Ediel_sol  =         0.00000000
  ---------------------------------------------------
  free energy    TOTEN  =      -279.03463277 eV

  energy without entropy =     -279.02617153  energy(sigma->0) =     -279.03040215


--------------------------------------------------------------------------------------------------------




--------------------------------------- Iteration      1(   5)  ---------------------------------------


     EDDAV:  cpu time    2.1788: real time    2.1785
       DOS:  cpu time    0.0007: real time    0.0007
    CHARGE:  cpu time    0.3038: real time    0.3038
    MIXING:  cpu time    0.0520: real time    0.0520
    --------------------------------------------
      LOOP:  cpu time    2.5353: real time    2.5350

 eigenvalue-minimisations  :  2624
 total energy-change (2. order) :-0.1388979E+01  (-0.1365917E+01)
 number of electron      96.9999984 magnetization 
 augmentation part        2.7070806 magnetization 

 Broyden mixing:
  rms(total) = 0.25912E+01    rms(broyden)= 0.25908E+01
  rms(prec ) = 0.28692E+01
  weight for this iteration     100.00

 Free energy of the ion-electron system (eV)
  ---------------------------------------------------
  alpha Z        PSCENC =         5.07247859
  Ewald energy   TEWEN  =     10244.67916894
  -Hartree energ DENC   =    -12142.70119014
  -exchange      EXHF   =         0.00000000
  -V(xc)+E(xc)   XCENC  =       296.79943063
  PAW double counting   =      2001.03824190    -2011.58829689
  entropy T*S    EENTRO =        -0.03188436
  eigenvalues    EBANDS =     -1642.22119367
  atomic energy  EATOM  =      2968.52963279
  Solvation  Ediel_sol  =         0.00000000
  ---------------------------------------------------
  free energy    TOTEN  =      -280.42361221 eV

  energy without entropy =     -280.39172785  energy(sigma->0) =     -280.40767003


--------------------------------------------------------------------------------------------------------




--------------------------------------- Iteration      1(   6)  ---------------------------------------


    POTLOK:  cpu time    0.0574: real time    0.0574
    SETDIJ:  cpu time    0.0155: real time    0.0155
     EDDAV:  cpu time    2.0721: real time    2.0719
       DOS:  cpu time    0.0009: real time    0.0009
    CHARGE:  cpu time    0.2978: real time    0.2978
    MIXING:  cpu time    0.0537: real time    0.0537
    --------------------------------------------
      LOOP:  cpu time    2.4975: real time    2.4971

 eigenvalue-minimisations  :  2464
 total energy-change (2. order) : 0.2541718E+02  (-0.7244980E+01)
 number of electron      96.9999989 magnetization 
 augmentation part        2.3981958 magnetization 

 Broyden mixing:
  rms(total) = 0.12969E+01    rms(broyden)= 0.12967E+01
  rms(prec ) = 0.13643E+01
  weight for this iteration     100.00

 eigenvalues of (default mixing * dielectric matrix)
  average eigenvalue GAMMA=   1.2957
  1.2957

 Free energy of the ion-electron system (eV)
  ---------------------------------------------------
  alpha Z        PSCENC =         5.07247859
  Ewald energy   TEWEN  =     10244.67916894
  -Hartree energ DENC   =    -12501.82342768
  -exchange      EXHF   =         0.00000000
  -V(xc)+E(xc)   XCENC  =       310.36813618
  PAW double counting   =      3687.89345849    -3700.36549741
  entropy T*S    EENTRO =        -0.02811919
  eigenvalues    EBANDS =     -1269.33225882
  atomic energy  EATOM  =      2968.52963279
  Solvation  Ediel_sol  =         0.00000000
  ---------------------------------------------------
  free energy    TOTEN  =      -255.00642811 eV

  energy without entropy =     -254.97830891  energy(sigma->0) =     -254.99236851


--------------------------------------------------------------------------------------------------------




--------------------------------------- Iteration      1(   7)  ---------------------------------------


    POTLOK:  cpu time    0.0577: real time    0.0577
    SETDIJ:  cpu time    0.0154: real time    0.0154
     EDDAV:  cpu time    2.2303: real time    2.2300
       DOS:  cpu time    0.0008: real time    0.0008
    CHARGE:  cpu time    0.2930: real time    0.2929
    MIXING:  cpu time    0.0556: real time    0.0556
    --------------------------------------------
      LOOP:  cpu time    2.6527: real time    2.6524

 eigenvalue-minimisations  :  2688
 total energy-change (2. order) : 0.1411477E+01  (-0.1905494E+01)
 number of electron      96.9999988 magnetization 
 augmentation part        2.4104371 magnetization 

 Broyden mixing:
  rms(total) = 0.72831E+00    rms(broyden)= 0.72822E+00
  rms(prec ) = 0.77483E+00
  weight for this iteration     100.00

 eigenvalues of (default mixing * dielectric matrix)
  average eigenvalue GAMMA=   1.3749
  0.9687  1.7810

 Free energy of the ion-electron system (eV)
  ---------------------------------------------------
  alpha Z        PSCENC =         5.07247859
  Ewald energy   TEWEN  =     10244.67916894
  -Hartree energ DENC   =    -12553.39565690
  -exchange      EXHF   =         0.00000000
  -V(xc)+E(xc)   XCENC  =       315.23811325
  PAW double counting   =      5192.20670482    -5205.17520372
  entropy T*S    EENTRO =        -0.02826592
  eigenvalues    EBANDS =     -1220.72192308
  atomic energy  EATOM  =      2968.52963279
  Solvation  Ediel_sol  =         0.00000000
  ---------------------------------------------------
  free energy    TOTEN  =      -253.59495124 eV

  energy without entropy =     -253.56668532  energy(sigma->0) =     -253.58081828


--------------------------------------------------------------------------------------------------------




--------------------------------------- Iteration      1(   8)  ---------------------------------------


    POTLOK:  cpu time    0.0574: real time    0.0574
    SETDIJ:  cpu time    0.0155: real time    0.0155
     EDDAV:  cpu time    2.3028: real time    2.3025
       DOS:  cpu time    0.0008: real time    0.0008
    CHARGE:  cpu time    0.2922: real time    0.2922
    MIXING:  cpu time    0.0568: real time    0.0568
    --------------------------------------------
      LOOP:  cpu time    2.7255: real time    2.7252

 eigenvalue-minimisations  :  2800
 total energy-change (2. order) :-0.9235071E-01  (-0.1717951E+01)
 number of electron      96.9999989 magnetization 
 augmentation part        2.3329888 magnetization 

 Broyden mixing:
  rms(total) = 0.36326E+00    rms(broyden)= 0.36315E+00
  rms(prec ) = 0.41089E+00
  weight for this iteration     100.00

 eigenvalues of (default mixing * dielectric matrix)
  average eigenvalue GAMMA=   1.4357
  2.3354  1.3326  0.6392

 Free energy of the ion-electron system (eV)
  ---------------------------------------------------
  alpha Z        PSCENC =         5.07247859
  Ewald energy   TEWEN  =     10244.67916894
  -Hartree energ DENC   =    -12614.80598104
  -exchange      EXHF   =         0.00000000
  -V(xc)+E(xc)   XCENC  =       318.29345170
  PAW double counting   =      6371.26164782    -6384.38685630
  entropy T*S    EENTRO =        -0.02820220
  eigenvalues    EBANDS =     -1162.30264227
  atomic energy  EATOM  =      2968.52963279
  Solvation  Ediel_sol  =         0.00000000
  ---------------------------------------------------
  free energy    TOTEN  =      -253.68730195 eV

  energy without entropy =     -253.65909976  energy(sigma->0) =     -253.67320086


--------------------------------------------------------------------------------------------------------




--------------------------------------- Iteration      1(   9)  ---------------------------------------


    POTLOK:  cpu time    0.0576: real time    0.0576
    SETDIJ:  cpu time    0.0154: real time    0.0154
     EDDAV:  cpu time    2.0775: real time    2.0773
       DOS:  cpu time    0.0009: real time    0.0009
    CHARGE:  cpu time    0.2982: real time    0.2982
    MIXING:  cpu time    0.0585: real time    0.0585
    --------------------------------------------
      LOOP:  cpu time    2.5081: real time    2.5078

 eigenvalue-minimisations  :  2464
 total energy-change (2. order) : 0.5586183E+00  (-0.1887567E+00)
 number of electron      96.9999989 magnetization 
 augmentation part        2.3526040 magnetization 

 Broyden mixing:
  rms(total) = 0.12562E+00    rms(broyden)= 0.12559E+00
  rms(prec ) = 0.15975E+00
  weight for this iteration     100.00

 eigenvalues of (default mixing * dielectric matrix)
  average eigenvalue GAMMA=   1.3648
  2.3003  1.2413  1.2413  0.6762

 Free energy of the ion-electron system (eV)
  ---------------------------------------------------
  alpha Z        PSCENC =         5.07247859
  Ewald energy   TEWEN  =     10244.67916894
  -Hartree energ DENC   =    -12575.25430579
  -exchange      EXHF   =         0.00000000
  -V(xc)+E(xc)   XCENC  =       318.37035236
  PAW double counting   =      7175.67493613    -7188.70797578
  entropy T*S    EENTRO =        -0.02819389
  eigenvalues    EBANDS =     -1201.46477704
  atomic energy  EATOM  =      2968.52963279
  Solvation  Ediel_sol  =         0.00000000
  ---------------------------------------------------
  free energy    TOTEN  =      -253.12868369 eV

  energy without entropy =     -253.10048980  energy(sigma->0) =     -253.11458674


--------------------------------------------------------------------------------------------------------




--------------------------------------- Iteration      1(  10)  ---------------------------------------


    POTLOK:  cpu time    0.0576: real time    0.0576
    SETDIJ:  cpu time    0.0153: real time    0.0153
     EDDAV:  cpu time    2.1993: real time    2.1990
       DOS:  cpu time    0.0007: real time    0.0007
    CHARGE:  cpu time    0.2980: real time    0.2980
    MIXING:  cpu time    0.0611: real time    0.0611
    --------------------------------------------
      LOOP:  cpu time    2.6319: real time    2.6316

 eigenvalue-minimisations  :  2656
 total energy-change (2. order) :-0.5374546E-02  (-0.2190544E+00)
 number of electron      96.9999988 magnetization 
 augmentation part        2.3967311 magnetization 

 Broyden mixing:
  rms(total) = 0.19097E+00    rms(broyden)= 0.19075E+00
  rms(prec ) = 0.27380E+00
  weight for this iteration     100.00

 eigenvalues of (default mixing * dielectric matrix)
  average eigenvalue GAMMA=   1.1740
  2.2534  1.2728  1.2728  0.5355  0.5355

 Free energy of the ion-electron system (eV)
  ---------------------------------------------------
  alpha Z        PSCENC =         5.07247859
  Ewald energy   TEWEN  =     10244.67916894
  -Hartree energ DENC   =    -12569.20612989
  -exchange      EXHF   =         0.00000000
  -V(xc)+E(xc)   XCENC  =       318.23878951
  PAW double counting   =      7232.18676193    -7245.24168614
  entropy T*S    EENTRO =        -0.02879316
  eigenvalues    EBANDS =     -1207.36428080
  atomic energy  EATOM  =      2968.52963279
  Solvation  Ediel_sol  =         0.00000000
  ---------------------------------------------------
  free energy    TOTEN  =      -253.13405823 eV

  energy without entropy =     -253.10526507  energy(sigma->0) =     -253.11966165


--------------------------------------------------------------------------------------------------------




--------------------------------------- Iteration      1(  11)  ---------------------------------------


    POTLOK:  cpu time    0.0573: real time    0.0573
    SETDIJ:  cpu time    0.0154: real time    0.0154
     EDDAV:  cpu time    2.1321: real time    2.1318
       DOS:  cpu time    0.0008: real time    0.0008
    CHARGE:  cpu time    0.2995: real time    0.2994
    MIXING:  cpu time    0.0632: real time    0.0632
    --------------------------------------------
      LOOP:  cpu time    2.5683: real time    2.5680

 eigenvalue-minimisations  :  2552
 total energy-change (2. order) : 0.3204897E-01  (-0.3558279E+00)
 number of electron      96.9999989 magnetization 
 augmentation part        2.3447398 magnetization 

 Broyden mixing:
  rms(total) = 0.79380E-01    rms(broyden)= 0.79023E-01
  rms(prec ) = 0.11065E+00
  weight for this iteration     100.00

 eigenvalues of (default mixing * dielectric matrix)
  average eigenvalue GAMMA=   1.1465
  2.1719  1.4433  1.4433  0.8491  0.4857  0.4857

 Free energy of the ion-electron system (eV)
  ---------------------------------------------------
  alpha Z        PSCENC =         5.07247859
  Ewald energy   TEWEN  =     10244.67916894
  -Hartree energ DENC   =    -12580.95097238
  -exchange      EXHF   =         0.00000000
  -V(xc)+E(xc)   XCENC  =       318.41968064
  PAW double counting   =      7238.84571536    -7251.91347249
  entropy T*S    EENTRO =        -0.02818850
  eigenvalues    EBANDS =     -1195.75605223
  atomic energy  EATOM  =      2968.52963279
  Solvation  Ediel_sol  =         0.00000000
  ---------------------------------------------------
  free energy    TOTEN  =      -253.10200926 eV

  energy without entropy =     -253.07382077  energy(sigma->0) =     -253.08791501


--------------------------------------------------------------------------------------------------------




--------------------------------------- Iteration      1(  12)  ---------------------------------------


    POTLOK:  cpu time    0.0584: real time    0.0584
    SETDIJ:  cpu time    0.0154: real time    0.0154
     EDDAV:  cpu time    2.1536: real time    2.1533
       DOS:  cpu time    0.0008: real time    0.0008
    CHARGE:  cpu time    0.2966: real time    0.2966
    MIXING:  cpu time    0.0659: real time    0.0659
    --------------------------------------------
      LOOP:  cpu time    2.5907: real time    2.5904

 eigenvalue-minimisations  :  2584
 total energy-change (2. order) : 0.6915248E-01  (-0.9787311E-02)
 number of electron      96.9999989 magnetization 
 augmentation part        2.3556826 magnetization 

 Broyden mixing:
  rms(total) = 0.29211E-01    rms(broyden)= 0.29207E-01
  rms(prec ) = 0.35135E-01
  weight for this iteration     100.00

 eigenvalues of (default mixing * dielectric matrix)
  average eigenvalue GAMMA=   1.1471
  2.2342  1.4184  1.4184  0.9720  0.9720  0.5073  0.5073

 Free energy of the ion-electron system (eV)
  ---------------------------------------------------
  alpha Z        PSCENC =         5.07247859
  Ewald energy   TEWEN  =     10244.67916894
  -Hartree energ DENC   =    -12570.00767358
  -exchange      EXHF   =         0.00000000
  -V(xc)+E(xc)   XCENC  =       318.16080209
  PAW double counting   =      7251.00020298    -7264.05583210
  entropy T*S    EENTRO =        -0.03797543
  eigenvalues    EBANDS =     -1206.37366106
  atomic energy  EATOM  =      2968.52963279
  Solvation  Ediel_sol  =         0.00000000
  ---------------------------------------------------
  free energy    TOTEN  =      -253.03285678 eV

  energy without entropy =     -252.99488135  energy(sigma->0) =     -253.01386907


--------------------------------------------------------------------------------------------------------




--------------------------------------- Iteration      1(  13)  ---------------------------------------


    POTLOK:  cpu time    0.0579: real time    0.0579
    SETDIJ:  cpu time    0.0155: real time    0.0154
     EDDAV:  cpu time    2.0912: real time    2.0910
       DOS:  cpu time    0.0009: real time    0.0009
    CHARGE:  cpu time    0.2973: real time    0.2973
    MIXING:  cpu time    0.0688: real time    0.0688
    --------------------------------------------
      LOOP:  cpu time    2.5315: real time    2.5312

 eigenvalue-minimisations  :  2496
 total energy-change (2. order) :-0.8176488E-02  (-0.9687465E-02)
 number of electron      96.9999988 magnetization 
 augmentation part        2.3750730 magnetization 

 Broyden mixing:
  rms(total) = 0.81436E-01    rms(broyden)= 0.81354E-01
  rms(prec ) = 0.11674E+00
  weight for this iteration     100.00

 eigenvalues of (default mixing * dielectric matrix)
  average eigenvalue GAMMA=   1.1283
  2.2931  1.3525  1.3525  1.2742  1.2742  0.6573  0.4113  0.4113

 Free energy of the ion-electron system (eV)
  ---------------------------------------------------
  alpha Z        PSCENC =         5.07247859
  Ewald energy   TEWEN  =     10244.67916894
  -Hartree energ DENC   =    -12565.83925855
  -exchange      EXHF   =         0.00000000
  -V(xc)+E(xc)   XCENC  =       318.07558147
  PAW double counting   =      7268.66323547    -7281.71159612
  entropy T*S    EENTRO =        -0.04450376
  eigenvalues    EBANDS =     -1210.46577212
  atomic energy  EATOM  =      2968.52963279
  Solvation  Ediel_sol  =         0.00000000
  ---------------------------------------------------
  free energy    TOTEN  =      -253.04103327 eV

  energy without entropy =     -252.99652952  energy(sigma->0) =     -253.01878139


--------------------------------------------------------------------------------------------------------




--------------------------------------- Iteration      1(  14)  ---------------------------------------


    POTLOK:  cpu time    0.0582: real time    0.0582
    SETDIJ:  cpu time    0.0154: real time    0.0154
     EDDAV:  cpu time    2.1021: real time    2.1019
       DOS:  cpu time    0.0008: real time    0.0008
    CHARGE:  cpu time    0.2980: real time    0.2979
    MIXING:  cpu time    0.0718: real time    0.0718
    --------------------------------------------
      LOOP:  cpu time    2.5462: real time    2.5458

 eigenvalue-minimisations  :  2512
 total energy-change (2. order) : 0.2173481E-02  (-0.1760875E-01)
 number of electron      96.9999989 magnetization 
 augmentation part        2.3498597 magnetization 

 Broyden mixing:
  rms(total) = 0.44200E-01    rms(broyden)= 0.44011E-01
  rms(prec ) = 0.65707E-01
  weight for this iteration     100.00

 eigenvalues of (default mixing * dielectric matrix)
  average eigenvalue GAMMA=   1.1468
  2.2853  1.7868  1.7868  1.1217  1.1217  0.6930  0.6930  0.4162  0.4162

 Free energy of the ion-electron system (eV)
  ---------------------------------------------------
  alpha Z        PSCENC =         5.07247859
  Ewald energy   TEWEN  =     10244.67916894
  -Hartree energ DENC   =    -12567.81499003
  -exchange      EXHF   =         0.00000000
  -V(xc)+E(xc)   XCENC  =       318.12758842
  PAW double counting   =      7271.58473682    -7284.63500147
  entropy T*S    EENTRO =        -0.03051751
  eigenvalues    EBANDS =     -1208.55195635
  atomic energy  EATOM  =      2968.52963279
  Solvation  Ediel_sol  =         0.00000000
  ---------------------------------------------------
  free energy    TOTEN  =      -253.03885979 eV

  energy without entropy =     -253.00834228  energy(sigma->0) =     -253.02360104


--------------------------------------------------------------------------------------------------------




--------------------------------------- Iteration      1(  15)  ---------------------------------------


    POTLOK:  cpu time    0.0583: real time    0.0582
    SETDIJ:  cpu time    0.0153: real time    0.0153
     EDDAV:  cpu time    2.1015: real time    2.1013
       DOS:  cpu time    0.0008: real time    0.0008
    CHARGE:  cpu time    0.2971: real time    0.2970
    MIXING:  cpu time    0.0759: real time    0.0758
    --------------------------------------------
      LOOP:  cpu time    2.5488: real time    2.5485

 eigenvalue-minimisations  :  2512
 total energy-change (2. order) :-0.9542140E-03  (-0.1055595E-01)
 number of electron      96.9999988 magnetization 
 augmentation part        2.3733239 magnetization 

 Broyden mixing:
  rms(total) = 0.70783E-01    rms(broyden)= 0.70688E-01
  rms(prec ) = 0.10385E+00
  weight for this iteration     100.00

 eigenvalues of (default mixing * dielectric matrix)
  average eigenvalue GAMMA=   1.1076
  2.2173  1.9258  1.9258  1.1125  1.1125  0.7959  0.5993  0.5993  0.3936  0.3936

 Free energy of the ion-electron system (eV)
  ---------------------------------------------------
  alpha Z        PSCENC =         5.07247859
  Ewald energy   TEWEN  =     10244.67916894
  -Hartree energ DENC   =    -12564.62024655
  -exchange      EXHF   =         0.00000000
  -V(xc)+E(xc)   XCENC  =       318.07078879
  PAW double counting   =      7270.87340847    -7283.92403797
  entropy T*S    EENTRO =        -0.04417706
  eigenvalues    EBANDS =     -1211.67683000
  atomic energy  EATOM  =      2968.52963279
  Solvation  Ediel_sol  =         0.00000000
  ---------------------------------------------------
  free energy    TOTEN  =      -253.03981400 eV

  energy without entropy =     -252.99563694  energy(sigma->0) =     -253.01772547


--------------------------------------------------------------------------------------------------------




--------------------------------------- Iteration      1(  16)  ---------------------------------------


    POTLOK:  cpu time    0.0592: real time    0.0592
    SETDIJ:  cpu time    0.0153: real time    0.0153
     EDDAV:  cpu time    2.0713: real time    2.0711
       DOS:  cpu time    0.0026: real time    0.0026
    CHARGE:  cpu time    0.2921: real time    0.2920
    MIXING:  cpu time    0.0787: real time    0.0787
    --------------------------------------------
      LOOP:  cpu time    2.5192: real time    2.5188

 eigenvalue-minimisations  :  2472
 total energy-change (2. order) : 0.7201767E-02  (-0.5442028E-02)
 number of electron      96.9999989 magnetization 
 augmentation part        2.3585516 magnetization 

 Broyden mixing:
  rms(total) = 0.50643E-02    rms(broyden)= 0.46117E-02
  rms(prec ) = 0.50870E-02
  weight for this iteration     100.00

 eigenvalues of (default mixing * dielectric matrix)
  average eigenvalue GAMMA=   1.1367
  2.3360  1.9273  1.9273  1.2749  1.0999  1.0999  0.8824  0.5819  0.5819  0.3964
  0.3964

 Free energy of the ion-electron system (eV)
  ---------------------------------------------------
  alpha Z        PSCENC =         5.07247859
  Ewald energy   TEWEN  =     10244.67916894
  -Hartree energ DENC   =    -12565.31219333
  -exchange      EXHF   =         0.00000000
  -V(xc)+E(xc)   XCENC  =       318.08121823
  PAW double counting   =      7269.48794300    -7282.53937078
  entropy T*S    EENTRO =        -0.04006586
  eigenvalues    EBANDS =     -1210.99142381
  atomic energy  EATOM  =      2968.52963279
  Solvation  Ediel_sol  =         0.00000000
  ---------------------------------------------------
  free energy    TOTEN  =      -253.03261224 eV

  energy without entropy =     -252.99254637  energy(sigma->0) =     -253.01257931


--------------------------------------------------------------------------------------------------------




--------------------------------------- Iteration      1(  17)  ---------------------------------------


    POTLOK:  cpu time    0.0602: real time    0.0602
    SETDIJ:  cpu time    0.0153: real time    0.0153
     EDDAV:  cpu time    2.1593: real time    2.1591
       DOS:  cpu time    0.0029: real time    0.0029
    CHARGE:  cpu time    0.2928: real time    0.2927
    MIXING:  cpu time    0.0834: real time    0.0834
    --------------------------------------------
      LOOP:  cpu time    2.6139: real time    2.6136

 eigenvalue-minimisations  :  2600
 total energy-change (2. order) :-0.1379575E-02  (-0.3078605E-03)
 number of electron      96.9999989 magnetization 
 augmentation part        2.3549859 magnetization 

 Broyden mixing:
  rms(total) = 0.20053E-01    rms(broyden)= 0.20020E-01
  rms(prec ) = 0.29368E-01
  weight for this iteration     100.00

 eigenvalues of (default mixing * dielectric matrix)
  average eigenvalue GAMMA=   1.0953
  2.1403  1.7769  1.7769  1.7012  1.1733  1.1733  0.7118  0.7118  0.5981  0.5981
  0.3910  0.3910

 Free energy of the ion-electron system (eV)
  ---------------------------------------------------
  alpha Z        PSCENC =         5.07247859
  Ewald energy   TEWEN  =     10244.67916894
  -Hartree energ DENC   =    -12565.28751377
  -exchange      EXHF   =         0.00000000
  -V(xc)+E(xc)   XCENC  =       318.08007628
  PAW double counting   =      7270.50726200    -7283.55918312
  entropy T*S    EENTRO =        -0.03686664
  eigenvalues    EBANDS =     -1211.01904689
  atomic energy  EATOM  =      2968.52963279
  Solvation  Ediel_sol  =         0.00000000
  ---------------------------------------------------
  free energy    TOTEN  =      -253.03399181 eV

  energy without entropy =     -252.99712517  energy(sigma->0) =     -253.01555849


--------------------------------------------------------------------------------------------------------




--------------------------------------- Iteration      1(  18)  ---------------------------------------


    POTLOK:  cpu time    0.0598: real time    0.0598
    SETDIJ:  cpu time    0.0154: real time    0.0154
     EDDAV:  cpu time    1.7870: real time    1.7867
       DOS:  cpu time    0.0028: real time    0.0027
    CHARGE:  cpu time    0.2982: real time    0.2981
    MIXING:  cpu time    0.0868: real time    0.0868
    --------------------------------------------
      LOOP:  cpu time    2.2500: real time    2.2496

 eigenvalue-minimisations  :  2024
 total energy-change (2. order) : 0.3838744E-03  (-0.5917850E-04)
 number of electron      96.9999989 magnetization 
 augmentation part        2.3559371 magnetization 

 Broyden mixing:
  rms(total) = 0.15404E-01    rms(broyden)= 0.15403E-01
  rms(prec ) = 0.22416E-01
  weight for this iteration     100.00

 eigenvalues of (default mixing * dielectric matrix)
  average eigenvalue GAMMA=   1.1137
  2.0872  2.0872  2.1000  1.5124  1.0451  1.0451  0.8709  0.8709  0.8011  0.6338
  0.6338  0.3950  0.3950

 Free energy of the ion-electron system (eV)
  ---------------------------------------------------
  alpha Z        PSCENC =         5.07247859
  Ewald energy   TEWEN  =     10244.67916894
  -Hartree energ DENC   =    -12565.32304190
  -exchange      EXHF   =         0.00000000
  -V(xc)+E(xc)   XCENC  =       318.08063304
  PAW double counting   =      7270.33274148    -7283.38484050
  entropy T*S    EENTRO =        -0.03770876
  eigenvalues    EBANDS =     -1210.98267162
  atomic energy  EATOM  =      2968.52963279
  Solvation  Ediel_sol  =         0.00000000
  ---------------------------------------------------
  free energy    TOTEN  =      -253.03360794 eV

  energy without entropy =     -252.99589918  energy(sigma->0) =     -253.01475356


--------------------------------------------------------------------------------------------------------




--------------------------------------- Iteration      1(  19)  ---------------------------------------


    POTLOK:  cpu time    0.0600: real time    0.0600
    SETDIJ:  cpu time    0.0153: real time    0.0153
     EDDAV:  cpu time    1.7073: real time    1.7071
       DOS:  cpu time    0.0027: real time    0.0027
    CHARGE:  cpu time    0.2921: real time    0.2921
    MIXING:  cpu time    0.0915: real time    0.0915
    --------------------------------------------
      LOOP:  cpu time    2.1690: real time    2.1687

 eigenvalue-minimisations  :  1856
 total energy-change (2. order) :-0.4806139E-03  (-0.2011811E-04)
 number of electron      96.9999989 magnetization 
 augmentation part        2.3545539 magnetization 

 Broyden mixing:
  rms(total) = 0.21438E-01    rms(broyden)= 0.21436E-01
  rms(prec ) = 0.31591E-01
  weight for this iteration     100.00

 eigenvalues of (default mixing * dielectric matrix)
  average eigenvalue GAMMA=   1.1320
  2.1769  2.1769  1.7170  1.7170  1.2317  1.2317  0.9402  0.9402  0.8681  0.8681
  0.5966  0.5966  0.3934  0.3934

 Free energy of the ion-electron system (eV)
  ---------------------------------------------------
  alpha Z        PSCENC =         5.07247859
  Ewald energy   TEWEN  =     10244.67916894
  -Hartree energ DENC   =    -12565.60739590
  -exchange      EXHF   =         0.00000000
  -V(xc)+E(xc)   XCENC  =       318.08785926
  PAW double counting   =      7269.94374455    -7282.99638694
  entropy T*S    EENTRO =        -0.03639128
  eigenvalues    EBANDS =     -1210.70679857
  atomic energy  EATOM  =      2968.52963279
  Solvation  Ediel_sol  =         0.00000000
  ---------------------------------------------------
  free energy    TOTEN  =      -253.03408855 eV

  energy without entropy =     -252.99769727  energy(sigma->0) =     -253.01589291


--------------------------------------------------------------------------------------------------------




--------------------------------------- Iteration      1(  20)  ---------------------------------------


    POTLOK:  cpu time    0.0599: real time    0.0599
    SETDIJ:  cpu time    0.0153: real time    0.0153
     EDDAV:  cpu time    1.9083: real time    1.9081
       DOS:  cpu time    0.0030: real time    0.0030
    CHARGE:  cpu time    0.2973: real time    0.2973
    MIXING:  cpu time    0.0974: real time    0.0973
    --------------------------------------------
      LOOP:  cpu time    2.3813: real time    2.3810

 eigenvalue-minimisations  :  2176
 total energy-change (2. order) : 0.9498942E-03  (-0.1327470E-03)
 number of electron      96.9999989 magnetization 
 augmentation part        2.3585731 magnetization 

 Broyden mixing:
  rms(total) = 0.21172E-02    rms(broyden)= 0.19931E-02
  rms(prec ) = 0.27495E-02
  weight for this iteration     100.00

 eigenvalues of (default mixing * dielectric matrix)
  average eigenvalue GAMMA=   1.1381
  2.3779  2.0783  2.0783  1.2621  1.2621  1.3646  1.3646  0.8885  0.8885  0.7733
  0.7733  0.5864  0.5864  0.3934  0.3934

 Free energy of the ion-electron system (eV)
  ---------------------------------------------------
  alpha Z        PSCENC =         5.07247859
  Ewald energy   TEWEN  =     10244.67916894
  -Hartree energ DENC   =    -12565.13138827
  -exchange      EXHF   =         0.00000000
  -V(xc)+E(xc)   XCENC  =       318.08064694
  PAW double counting   =      7270.30155122    -7283.35380397
  entropy T*S    EENTRO =        -0.03993498
  eigenvalues    EBANDS =     -1211.17148992
  atomic energy  EATOM  =      2968.52963279
  Solvation  Ediel_sol  =         0.00000000
  ---------------------------------------------------
  free energy    TOTEN  =      -253.03313866 eV

  energy without entropy =     -252.99320368  energy(sigma->0) =     -253.01317117


--------------------------------------------------------------------------------------------------------




--------------------------------------- Iteration      1(  21)  ---------------------------------------


    POTLOK:  cpu time    0.0602: real time    0.0601
    SETDIJ:  cpu time    0.0153: real time    0.0153
     EDDAV:  cpu time    1.5068: real time    1.5066
       DOS:  cpu time    0.0007: real time    0.0007
    CHARGE:  cpu time    0.3042: real time    0.3042
    MIXING:  cpu time    0.0985: real time    0.0984
    --------------------------------------------
      LOOP:  cpu time    1.9857: real time    1.9854

 eigenvalue-minimisations  :  1568
 total energy-change (2. order) :-0.1406275E-03  (-0.1328612E-04)
 number of electron      96.9999989 magnetization 
 augmentation part        2.3586269 magnetization 

 Broyden mixing:
  rms(total) = 0.13506E-02    rms(broyden)= 0.13394E-02
  rms(prec ) = 0.17082E-02
  weight for this iteration     100.00

 eigenvalues of (default mixing * dielectric matrix)
  average eigenvalue GAMMA=   1.1120
  2.4214  2.1385  2.1385  1.0767  1.0767  1.1827  1.1827  1.2269  1.2269  0.7328
  0.7075  0.7075  0.5935  0.5935  0.3934  0.3934

 Free energy of the ion-electron system (eV)
  ---------------------------------------------------
  alpha Z        PSCENC =         5.07247859
  Ewald energy   TEWEN  =     10244.67916894
  -Hartree energ DENC   =    -12565.06730398
  -exchange      EXHF   =         0.00000000
  -V(xc)+E(xc)   XCENC  =       318.07960181
  PAW double counting   =      7270.50114369    -7283.55324160
  entropy T*S    EENTRO =        -0.04005143
  eigenvalues    EBANDS =     -1211.23470809
  atomic energy  EATOM  =      2968.52963279
  Solvation  Ediel_sol  =         0.00000000
  ---------------------------------------------------
  free energy    TOTEN  =      -253.03327928 eV

  energy without entropy =     -252.99322785  energy(sigma->0) =     -253.01325357


--------------------------------------------------------------------------------------------------------




--------------------------------------- Iteration      1(  22)  ---------------------------------------


    POTLOK:  cpu time    0.0641: real time    0.0640
    SETDIJ:  cpu time    0.0154: real time    0.0154
     EDDAV:  cpu time    1.5067: real time    1.5065
       DOS:  cpu time    0.0008: real time    0.0008
    --------------------------------------------
      LOOP:  cpu time    1.5869: real time    1.5867

 eigenvalue-minimisations  :  1568
 total energy-change (2. order) :-0.1431532E-04  (-0.2170578E-05)
 number of electron      96.9999989 magnetization 
 augmentation part        2.3586269 magnetization 

 Free energy of the ion-electron system (eV)
  ---------------------------------------------------
  alpha Z        PSCENC =         5.07247859
[...]


------------------------ aborting loop because EDIFF is reached ----------------------------------------





 total charge

# of ion       s       p       d       tot
------------------------------------------
    1        1.207   2.607   0.000   3.813
    2        0.844   1.729   0.000   2.573
    3        0.842   1.727   0.000   2.569
    4        0.840   1.730   0.000   2.570
    5        0.840   1.730   0.000   2.570
    6        0.834   1.767   0.000   2.602
    7        0.834   1.750   0.000   2.584
    8        0.839   1.799   0.000   2.638
    9        0.841   1.793   0.000   2.635
   10        0.842   1.794   0.000   2.635
   11        0.835   1.769   0.000   2.604
   12        0.859   1.755   0.000   2.614
   13        0.863   1.768   0.000   2.631
   14        0.868   1.764   0.000   2.632
   15        0.868   1.763   0.000   2.631
   16        0.863   1.766   0.000   2.629
   17        0.864   1.768   0.000   2.632
   18        0.644   0.048   0.000   0.692
   19        0.649   0.045   0.000   0.694
   20        0.645   0.046   0.000   0.690
   21        0.646   0.046   0.000   0.691
   22        0.644   0.046   0.000   0.690
   23        0.646   0.046   0.000   0.692
   24        0.645   0.046   0.000   0.691
   25        0.646   0.045   0.000   0.692
   26        0.645   0.044   0.000   0.689
   27        0.644   0.044   0.000   0.688
   28        0.646   0.043   0.000   0.689
   29        0.646   0.043   0.000   0.689
   30        0.641   0.044   0.000   0.685
   31        0.635   0.044   0.000   0.678
   32        0.639   0.045   0.000   0.684
   33        0.640   0.044   0.000   0.684
   34        0.639   0.044   0.000   0.683
   35        0.632   0.044   0.000   0.676
   36        0.641   0.044   0.000   0.685
   37        0.634   0.044   0.000   0.677
   38        0.638   0.044   0.000   0.682
   39        0.642   0.042   0.000   0.684
   40        0.647   0.043   0.000   0.690
   41        0.646   0.045   0.000   0.691
   42        0.646   0.045   0.000   0.690
   43        0.646   0.045   0.000   0.691
   44        0.646   0.046   0.000   0.692
   45        0.645   0.045   0.000   0.690
--------------------------------------------------
tot         32.786  32.027   0.000  64.813
 
    CHARGE:  cpu time    0.5031: real time    0.5031
    FORLOC:  cpu time    0.0178: real time    0.0178
    FORNL :  cpu time    0.4014: real time    0.4014
    STRESS:  cpu time    1.2169: real time    1.2167
    FORCOR:  cpu time    0.0440: real time    0.0439
    FORHAR:  cpu time    0.0151: real time    0.0151
    MIXING:  cpu time    0.0564: real time    0.0564
    OFIELD:  cpu time    0.0000: real time    0.0000

 ---------------------------------------------------------------------------------------------

         DFTD3 V3.0 Rev 1        
 Edisp (eV)   -1.53261

 E6    (eV) :    -1.1108
 E8    (eV) :    -0.4218
 % E8        : 27.52
    FORVDW:  cpu time    0.0234: real time    0.0233

  FORCE on cell =-STRESS in cart. coord.  units (eV):
  Direction    XX          YY          ZZ          XY          YZ          ZX
  --------------------------------------------------------------------------------------
  Alpha Z     5.07248     5.07248     5.07248
  Ewald    4860.17002  3790.26381  1591.58387   217.54602    46.62254  -107.02820
  Hartree  5836.07363  4338.53730  2391.11235   105.45673    15.86498    -8.67641
  E(xc)    -348.37171  -345.56234  -345.98518     0.57626     0.17450    -0.62870
  Local  -11610.52963 -8992.33871 -4838.02853  -313.77586   -60.18427   103.08763
  n-local  -150.29244  -152.61006  -154.19940    -0.47823     0.05781     0.76813
  augment    -1.09536    -1.30992    -1.40777    -0.03613    -0.00815     0.05891
  Kinetic  1407.93944  1356.84647  1351.21553    -9.15577    -2.61735    12.39474
  Fock        0.00000     0.00000     0.00000     0.00000     0.00000     0.00000
  vdW        -1.11256    -0.87946    -0.58155    -0.02823    -0.00052    -0.03008
  -------------------------------------------------------------------------------------
  Total      -2.14613    -1.98044    -1.21820     0.10480    -0.09045    -0.05398
  in kB      -0.42981    -0.39663    -0.24397     0.02099    -0.01811    -0.01081
  external pressure =       -0.36 kB  Pullay stress =        0.00 kB


 VOLUME and BASIS-vectors are now :
 -----------------------------------------------------------------------------
  energy-cutoff  :      500.00
  volume of cell :     8000.00
      direct lattice vectors                 reciprocal lattice vectors
    20.000000000  0.000000000  0.000000000     0.050000000  0.000000000  0.000000000
     0.000000000 20.000000000  0.000000000     0.000000000  0.050000000  0.000000000
     0.000000000  0.000000000 20.000000000     0.000000000  0.000000000  0.050000000

  length of vectors
    20.000000000 20.000000000 20.000000000     0.050000000  0.050000000  0.050000000


 FORCES acting on ions
    electron-ion (+dipol)            ewald-force                    non-local-force                 convergence-correction
 -----------------------------------------------------------------------------------------------
   -.103E+03 0.168E+02 -.439E+01   0.103E+03 -.165E+02 0.449E+01   0.195E+00 -.266E+00 -.107E+00   -.485E-02 -.103E-01 0.127E-02
   0.313E+02 -.858E+02 -.117E+03   -.361E+02 0.893E+02 0.118E+03   0.473E+01 -.349E+01 -.146E+01   -.114E-01 -.373E-02 0.177E-02
   -.133E+03 0.136E+03 -.183E+03   0.134E+03 -.140E+03 0.187E+03   -.132E+01 0.365E+01 -.418E+01   -.397E-02 -.936E-02 0.310E-02
   -.237E+03 -.746E+02 0.790E+02   0.242E+03 0.772E+02 -.805E+02   -.502E+01 -.257E+01 0.149E+01   0.273E-02 -.476E-02 0.369E-02
   0.829E+01 0.850E+02 0.203E+03   -.104E+02 -.875E+02 -.208E+03   0.214E+01 0.248E+01 0.470E+01   -.534E-02 -.102E-01 -.144E-02
   -.551E+02 -.183E+03 0.909E+02   0.545E+02 0.185E+03 -.920E+02   0.597E+00 -.173E+01 0.103E+01   -.110E-01 -.481E-02 0.229E-02
   0.214E+02 -.236E+03 -.437E+02   -.225E+02 0.236E+03 0.437E+02   0.115E+01 -.518E+00 -.331E-02   -.733E-02 -.788E-02 0.147E-02
   0.360E+02 0.197E+03 -.146E+03   -.377E+02 -.198E+03 0.146E+03   0.174E+01 0.106E+01 -.322E+00   -.267E-02 -.207E-02 -.162E-02
   -.195E+03 -.130E+03 -.110E+03   0.196E+03 0.131E+03 0.112E+03   -.855E+00 -.103E+01 -.168E+01   0.162E-03 -.602E-02 0.236E-02
   -.115E+03 0.178E+03 0.161E+03   0.117E+03 -.180E+03 -.162E+03   -.139E+01 0.142E+01 0.530E+00   -.326E-02 -.486E-02 0.252E-02
   0.139E+03 -.193E+03 0.748E+02   -.140E+03 0.193E+03 -.751E+02   0.263E+00 -.894E-01 0.265E+00   -.325E-02 -.863E-02 0.236E-02
   0.134E+03 -.864E+02 0.330E+02   -.135E+03 0.868E+02 -.331E+02   0.247E+00 -.456E+00 0.124E+00   -.216E-02 -.722E-02 0.355E-02
   0.145E+03 -.833E+02 -.178E+03   -.145E+03 0.838E+02 0.178E+03   0.209E+00 -.511E+00 -.469E+00   0.240E-03 -.327E-02 -.150E-02
   0.910E+02 0.772E+01 0.217E+03   -.911E+02 -.750E+01 -.217E+03   0.175E+00 -.237E+00 0.505E+00   -.189E-02 -.667E-02 0.558E-02
   0.154E+03 0.849E+02 -.195E+03   -.155E+03 -.851E+02 0.195E+03   0.368E+00 0.191E+00 -.489E+00   0.282E-02 0.125E-02 -.521E-02
   0.103E+03 0.173E+03 0.160E+03   -.103E+03 -.173E+03 -.160E+03   0.203E+00 0.633E+00 0.518E+00   0.860E-03 -.113E-02 0.257E-02
   0.139E+03 0.219E+03 -.357E+02   -.139E+03 -.220E+03 0.358E+02   0.332E+00 0.821E+00 -.854E-01   0.274E-02 0.268E-02 -.356E-02
   0.487E+02 0.240E+02 -.316E+02   -.537E+02 -.271E+02 0.322E+02   0.496E+01 0.311E+01 -.594E+00   -.232E-02 -.104E-02 -.541E-05
   -.117E+02 -.435E+02 -.945E+02   0.130E+02 0.454E+02 0.997E+02   -.136E+01 -.194E+01 -.523E+01   -.170E-02 -.960E-03 0.458E-03
   -.824E+02 0.656E+02 -.165E+02   0.871E+02 -.687E+02 0.152E+02   -.467E+01 0.307E+01 0.133E+01   -.950E-03 -.161E-02 0.117E-03
   -.380E+02 -.979E+01 -.966E+02   0.394E+02 0.127E+02 0.101E+03   -.140E+01 -.293E+01 -.473E+01   -.884E-03 -.172E-02 0.241E-03
   -.939E+02 0.334E+02 0.300E+02   0.978E+02 -.373E+02 -.316E+02   -.391E+01 0.388E+01 0.161E+01   0.734E-04 -.144E-02 0.543E-03
   -.388E+02 -.583E+02 0.741E+02   0.380E+02 0.617E+02 -.787E+02   0.809E+00 -.342E+01 0.457E+01   0.742E-04 -.951E-03 0.143E-03
   0.547E+02 0.482E+02 0.310E+02   -.602E+02 -.501E+02 -.302E+02   0.545E+01 0.191E+01 -.818E+00   -.183E-02 -.165E-02 0.311E-03
   -.351E+01 -.322E+02 0.953E+02   0.315E+01 0.362E+02 -.994E+02   0.368E+00 -.401E+01 0.409E+01   -.145E-02 -.208E-02 -.207E-04
   -.552E+02 -.836E+02 0.164E+02   0.595E+02 0.871E+02 -.165E+02   -.429E+01 -.348E+01 0.104E+00   -.172E-02 -.609E-03 0.345E-03
   -.596E+00 -.207E+02 0.916E+02   -.248E+00 0.192E+02 -.968E+02   0.855E+00 0.150E+01 0.523E+01   -.226E-02 -.118E-02 0.717E-03
   0.984E+01 -.487E+02 -.822E+02   -.102E+02 0.487E+02 0.876E+02   0.316E+00 -.937E-02 -.546E+01   -.164E-02 -.156E-02 -.653E-03
   -.341E+01 -.102E+03 0.124E+02   0.409E+01 0.108E+03 -.138E+02   -.637E+00 -.532E+01 0.135E+01   -.180E-02 -.116E-02 0.320E-03
   0.182E+02 0.840E+02 0.205E+02   -.196E+02 -.874E+02 -.247E+02   0.140E+01 0.338E+01 0.420E+01   -.394E-03 0.346E-03 0.150E-03
   -.155E+02 0.680E+02 -.721E+02   0.170E+02 -.713E+02 0.763E+02   -.146E+01 0.334E+01 -.419E+01   -.451E-03 0.429E-04 -.761E-03
   0.494E+02 0.115E+02 -.576E+02   -.541E+02 -.893E+01 0.592E+02   0.469E+01 -.260E+01 -.168E+01   -.550E-03 -.602E-03 -.657E-03
   -.502E+01 -.744E+02 -.446E+02   0.167E+01 0.784E+02 0.464E+02   0.337E+01 -.401E+01 -.184E+01   0.188E-03 -.138E-02 0.583E-03
   -.577E+02 0.124E+02 -.714E+02   0.594E+02 -.155E+02 0.758E+02   -.167E+01 0.303E+01 -.435E+01   -.855E-04 -.690E-03 -.201E-03
   -.818E+02 -.486E+02 0.706E+01   0.863E+02 0.512E+02 -.883E+01   -.455E+01 -.261E+01 0.176E+01   0.254E-03 -.101E-02 0.671E-03
   -.269E+02 0.876E+02 -.821E+01   0.272E+02 -.919E+02 0.117E+02   -.337E+00 0.433E+01 -.348E+01   -.949E-03 0.185E-03 -.146E-03
   0.611E+01 0.502E+02 0.808E+02   -.825E+01 -.522E+02 -.855E+02   0.214E+01 0.202E+01 0.470E+01   -.625E-03 -.677E-03 0.102E-02
   -.812E+02 0.140E+02 0.472E+02   0.863E+02 -.125E+02 -.485E+02   -.517E+01 -.153E+01 0.131E+01   -.140E-02 -.162E-02 0.472E-03
   0.712E+02 -.730E+02 -.137E+02   -.752E+02 0.763E+02 0.156E+02   0.394E+01 -.323E+01 -.190E+01   -.433E-03 -.172E-02 0.235E-03
   0.250E+02 -.468E+02 0.851E+02   -.250E+02 0.476E+02 -.905E+02   -.281E-01 -.846E+00 0.542E+01   -.108E-02 -.161E-02 0.108E-02
   0.345E+02 -.513E+02 -.777E+02   -.349E+02 0.551E+02 0.819E+02   0.414E+00 -.381E+01 -.418E+01   -.118E-04 -.218E-02 -.181E-02
   0.887E+01 -.124E+02 0.970E+02   -.754E+01 0.140E+02 -.102E+03   -.131E+01 -.157E+01 0.526E+01   -.812E-03 -.148E-02 0.180E-02
   0.425E+02 0.286E+02 -.833E+02   -.441E+02 -.301E+02 0.885E+02   0.163E+01 0.155E+01 -.524E+01   0.667E-03 0.273E-03 -.156E-02
   0.200E+02 0.658E+02 0.690E+02   -.199E+02 -.697E+02 -.733E+02   -.540E-01 0.382E+01 0.426E+01   0.161E-03 0.153E-02 0.227E-02
   0.377E+02 0.876E+02 -.159E+02   -.390E+02 -.930E+02 0.170E+02   0.138E+01 0.543E+01 -.104E+01   0.752E-03 0.197E-02 -.800E-03
 -----------------------------------------------------------------------------------------------
   -.451E+01 0.168E+01 -.972E+00   -.163E-12 0.327E-12 -.711E-14   0.464E+01 -.159E+01 0.848E+00   -.688E-01 -.112E+00 0.241E-01
 
 
 POSITION                                       TOTAL-FORCE (eV/Angst)
 -----------------------------------------------------------------------------------
     11.55433      9.79734     10.03962        -0.004976     -0.000563     -0.002814
     10.44601     10.76562     10.46575        -0.031296     -0.027371     -0.023044
     11.76813      8.78065     11.16088        -0.002862      0.018967      0.006656
     12.86506     10.53452      9.77932        -0.006350     -0.009304      0.021128
     11.12389      9.09515      8.75201         0.008898      0.002632     -0.006228
     10.17811     11.95613      9.54751        -0.023631      0.002380      0.003753
      8.93443     12.74343     10.01989         0.008918     -0.030963      0.007838
     10.59710      7.85745     11.45765        -0.011457      0.024924     -0.030737
     13.42297     11.34807     10.93814        -0.042352     -0.022247     -0.008759
     12.02154      7.96396      8.26990        -0.000121      0.025940      0.037873
      7.59092     12.26677      9.42645         0.028255     -0.020005     -0.010389
      7.23420     10.82890      9.70036        -0.009003     -0.035075      0.028108
      6.84550     10.41728     11.00033         0.024862     -0.025879     -0.057833
      7.26926      9.86328      8.68519         0.029383     -0.008207      0.015323
      6.52716      9.07727     11.25704         0.011032      0.014848      0.015816
      6.95824      8.51989      8.94016         0.005039      0.015397      0.026660
      6.58841      8.12247     10.24021         0.007423     -0.023609     -0.019082
      9.54038     10.15762     10.56971        -0.002808      0.003414     -0.005919
     10.73222     11.12375     11.46347        -0.015350     -0.022126      0.013717
     12.66040      8.20321     10.87844        -0.004626      0.030122      0.006106
     12.02677      9.36842     12.05291        -0.006925      0.001758     -0.022330
     13.59246      9.76709      9.47698        -0.031678      0.002219      0.005752
     12.68043     11.17924      8.90995        -0.015178     -0.017385     -0.015395
     10.10282      8.73693      8.93365        -0.023878      0.021827     -0.000385
     11.06712      9.88185      7.98684         0.001158     -0.002740      0.024260
     11.04610     12.63524      9.53975         0.008032     -0.034486      0.013466
     10.01575     11.63519      8.50645         0.004144     -0.020021      0.020737
      8.88043     12.72794     11.12183         0.003296     -0.014666     -0.019352
      9.06699     13.80091      9.74307         0.035456      0.020364     -0.000891
     10.33776      7.20503     10.61301         0.003573      0.034338      0.005683
     10.90515      7.20527     12.28788         0.006272      0.016952     -0.006467
      9.69246      8.38966     11.77983         0.016730      0.004336     -0.023707
     12.73444     12.12885     11.29125         0.000397     -0.023712     -0.017439
     13.73437     10.73020     11.79275        -0.034671     -0.007243     -0.028079
     14.32574     11.85954     10.56875        -0.020806     -0.025727     -0.016106
     12.07735      7.12383      8.97585         0.000559      0.030276      0.000384
     11.58026      7.57622      7.33935        -0.009114      0.023260      0.015627
     13.04340      8.28956      8.02543        -0.027660      0.010345      0.028342
      6.79870     12.92665      9.82426         0.018480     -0.007673      0.008144
      7.61154     12.42963      8.33670         0.022345      0.001979      0.000028
      6.77275     11.15488     11.80223         0.015784      0.015989      0.011126
      7.53096     10.17079      7.66808         0.016810      0.006704      0.020520
      6.21779      8.78083     12.26235         0.004061      0.007873     -0.023558
      6.97295      7.79241      8.12802         0.017229     -0.007320     -0.018783
      6.32725      7.08104     10.44081         0.026609      0.049477      0.020249
 -----------------------------------------------------------------------------------
    total drift:                                0.053880     -0.026838     -0.099925


--------------------------------------------------------------------------------------------------------



  FREE ENERGIE OF THE ION-ELECTRON SYSTEM (eV)
  ---------------------------------------------------
  free  energy   TOTEN  =      -254.59392164 eV

  energy  without entropy=     -254.55292892  energy(sigma->0) =     -254.57342528
 
 d Force = 0.1410927E-02[ 0.666E-03, 0.216E-02]  d Energy = 0.1401303E-02 0.962E-05
 d Force =-0.7816951E+00[-0.783E+00,-0.781E+00]  d Ewald  =-0.7816947E+00-0.339E-06


--------------------------------------------------------------------------------------------------------


    POTLOK:  cpu time    0.1127: real time    0.1127


--------------------------------------------------------------------------------------------------------


 Conjugate gradient step on ions:
 trial-energy change:   -0.001401  1 .order   -0.001411   -0.002156   -0.000666
  (g-gl).g = 0.189E-02      g.g   = 0.249E-02  gl.gl    = 0.764E-02
 g(Force)  = 0.249E-02   g(Stress)= 0.000E+00 ortho     = 0.663E-04
 gamma     =   0.24784
 trial     =   0.86106
 opt step  =   1.24621  (harmonic =   1.24621) maximal distance =0.00269803
 next E    =  -254.594080   (d E  =  -0.00156)


--------------------------------------------------------------------------------------------------------


  
 reached required accuracy - stopping structural energy minimisation
 writing wavefunctions
     LOOP+:  cpu time   16.8825: real time   25.1680
    4ORBIT:  cpu time    0.0000: real time    0.0000



 total charge

# of ion       s       p       d       tot
------------------------------------------
    1        1.207   2.607   0.000   3.813
    2        0.844   1.729   0.000   2.573
    3        0.842   1.727   0.000   2.569
    4        0.840   1.730   0.000   2.570
    5        0.840   1.730   0.000   2.570
    6        0.834   1.767   0.000   2.602
    7        0.834   1.750   0.000   2.584
    8        0.839   1.799   0.000   2.638
    9        0.841   1.793   0.000   2.635
   10        0.842   1.794   0.000   2.635
   11        0.835   1.769   0.000   2.604
   12        0.859   1.755   0.000   2.614
   13        0.863   1.768   0.000   2.631
   14        0.868   1.764   0.000   2.632
   15        0.868   1.763   0.000   2.631
   16        0.863   1.766   0.000   2.629
   17        0.864   1.768   0.000   2.632
   18        0.644   0.048   0.000   0.692
   19        0.649   0.045   0.000   0.694
   20        0.645   0.046   0.000   0.690
   21        0.646   0.046   0.000   0.691
   22        0.644   0.046   0.000   0.690
   23        0.646   0.046   0.000   0.692
   24        0.645   0.046   0.000   0.691
   25        0.646   0.045   0.000   0.692
   26        0.645   0.044   0.000   0.689
   27        0.644   0.044   0.000   0.688
   28        0.646   0.043   0.000   0.689
   29        0.646   0.043   0.000   0.689
   30        0.641   0.044   0.000   0.685
   31        0.635   0.044   0.000   0.678
   32        0.639   0.045   0.000   0.684
   33        0.640   0.044   0.000   0.684
   34        0.639   0.044   0.000   0.683
   35        0.632   0.044   0.000   0.676
   36        0.641   0.044   0.000   0.685
   37        0.634   0.044   0.000   0.677
   38        0.638   0.044   0.000   0.682
   39        0.642   0.042   0.000   0.684
   40        0.647   0.043   0.000   0.690
   41        0.646   0.045   0.000   0.691
   42        0.646   0.045   0.000   0.690
   43        0.646   0.045   0.000   0.691
   44        0.646   0.046   0.000   0.692
   45        0.645   0.045   0.000   0.690
--------------------------------------------------
tot         32.786  32.027   0.000  64.813
 

 total amount of memory used by VASP MPI-rank0  1192464. kBytes
=======================================================================

   base      :      30000. kBytes
   nonlr-proj:       3467. kBytes
   fftplans  :     100722. kBytes
   grid      :     237432. kBytes
   one-center:        138. kBytes
   wavefun   :     820705. kBytes
 
  
  
 General timing and accounting informations for this job:
 ========================================================
  
                  Total CPU time used (sec):      232.905
                            User time (sec):      187.952
                          System time (sec):       44.952
                         Elapsed time (sec):      242.181
  
                   Maximum memory used (kb):     2775480.
                   Average memory used (kb):          N/A
  
                          Minor page faults:      1610874
                          Major page faults:           10
                 Voluntary context switches:        24276
