 vasp.6.2.1 16May21 (build Nov 15 2021 14:57:28) complex                         
 executed on             LinuxPGI date 2023.07.30  11:13:50
 running on    4 total cores
 distrk:  each k-point on    4 cores,    1 groups
 distr:  one band on NCORE=   1 cores,    4 groups


--------------------------------------------------------------------------------------------------------


 INCAR:
   SYSTEM = PSC
   ISTART = 1
   ICHARG = 1
   PREC = Normal
   ENCUT = 500
   GGA_COMPAT = F
   NELM = 600
   ISYM = 0
   LREAL = Auto
   ISMEAR = 0
   SIGMA = 0.05
   AMIN = 0.01
   BMIX = 0.01
   LVTOT = T
   LWAVE = F
   LDIPOL = T
   IDIPOL = 3
   LVDW = T
   IVDW = 12

 POTCAR:    PAW_PBE H 15Jun2001                   
 POTCAR:    PAW_PBE C 08Apr2002                   
 POTCAR:    PAW_PBE N 08Apr2002                   
 POTCAR:    PAW_PBE I 08Apr2002                   
 POTCAR:    PAW_PBE Pb 08Apr2002                  
 WARNING: For LVTOT=.TRUE., VASP.5.x writes the TOTAL local potential to the
     file LOCPOT. If you want only the Hartree contributions, use LVHAR=.TRUE.
     instead. 

 POTCAR:    PAW_PBE H 15Jun2001                   
   SHA256 =  030f79b5d3ab3cf0e668861823c8fb652ff669f3e15e46930bd03bfd63a607b6 H/POTCAR              
   COPYR  = (c) Copyright 15Jun2001 Georg Kresse                                                    
   COPYR  = This file is part of the software VASP. Any use, copying, and all other rights are regul
   COPYR  = If you do not have a valid VASP license, you may not use, copy or distribute this file. 
   VRHFIN =H: ultrasoft test                                                                        
   LEXCH  = PE                                                                                      
   EATOM  =    12.4884 eV,    0.9179 Ry                                                             
                                                                                                    
   TITEL  = PAW_PBE H 15Jun2001                                                                     
   LULTRA =        F    use ultrasoft PP ?                                                          
   IUNSCR =        0    unscreen: 0-lin 1-nonlin 2-no                                               
   RPACOR =    0.000    partial core radius                                                         
   POMASS =    1.000; ZVAL   =    1.000    mass and valenz                                          
   RCORE  =    1.100    outmost cutoff radius                                                       
   RWIGS  =    0.700; RWIGS  =    0.370    wigner-seitz radius (au A)                               
   ENMAX  =  250.000; ENMIN  =  200.000 eV                                                          
   RCLOC  =    0.701    cutoff for local pot                                                        
   LCOR   =        T    correct aug charges                                                         
   LPAW   =        T    paw PP                                                                      
   EAUG   =  400.000                                                                                
   RMAX   =    1.123    core radius for proj-oper                                                   
   RAUG   =    1.200    factor for augmentation sphere                                              
   RDEP   =    1.112    radius for radial grids                                                     
   RDEPT  =    0.926    core radius for aug-charge                                                  
                                                                                                    
   Atomic configuration                                                                             
    2 entries                                                                                       
     n  l   j            E        occ.                                                              
     1  0  0.50        -6.4927   1.0000                                                             
     2  1  0.50        -3.4015   0.0000                                                             
   Description                                                                                      
     l       E           TYP  RCUT    TYP  RCUT                                                     
     0     -6.4927494     23  1.100                                                                 
     0      6.8029130     23  1.100                                                                 
     1     -4.0817478     23  1.100                                                                 
  local pseudopotential read in
  atomic valenz-charges read in
  non local Contribution for L=            0  read in
    real space projection operators read in
  non local Contribution for L=            0  read in
    real space projection operators read in
  non local Contribution for L=            1  read in
    real space projection operators read in
    PAW grid and wavefunctions read in
 
   number of l-projection  operators is LMAX  =            3
   number of lm-projection operators is LMMAX =            5
 
 POTCAR:    PAW_PBE C 08Apr2002                   
   SHA256 =  253f7b50bb8d59471dbedb8285d89021f4a42ed1a2c5d38a03a736e69125dd95 C/POTCAR              
   COPYR  = (c) Copyright 08Apr2002 Georg Kresse                                                    
   COPYR  = This file is part of the software VASP. Any use, copying, and all other rights are regul
   COPYR  = If you do not have a valid VASP license, you may not use, copy or distribute this file. 
   VRHFIN =C: s2p2                                                                                  
   LEXCH  = PE                                                                                      
   EATOM  =   147.1560 eV,   10.8157 Ry                                                             
                                                                                                    
   TITEL  = PAW_PBE C 08Apr2002                                                                     
   LULTRA =        F    use ultrasoft PP ?                                                          
   IUNSCR =        1    unscreen: 0-lin 1-nonlin 2-no                                               
   RPACOR =    1.200    partial core radius                                                         
   POMASS =   12.011; ZVAL   =    4.000    mass and valenz                                          
   RCORE  =    1.500    outmost cutoff radius                                                       
   RWIGS  =    1.630; RWIGS  =    0.863    wigner-seitz radius (au A)                               
   ENMAX  =  400.000; ENMIN  =  300.000 eV                                                          
   ICORE  =        2    local potential                                                             
   LCOR   =        T    correct aug charges                                                         
   LPAW   =        T    paw PP                                                                      
   EAUG   =  644.873                                                                                
   DEXC   =    0.000                                                                                
   RMAX   =    1.529    core radius for proj-oper                                                   
   RAUG   =    1.300    factor for augmentation sphere                                              
   RDEP   =    1.501    radius for radial grids                                                     
   RDEPT  =    1.300    core radius for aug-charge                                                  
                                                                                                    
   Atomic configuration                                                                             
    4 entries                                                                                       
     n  l   j            E        occ.                                                              
     1  0  0.50      -273.3789   2.0000                                                             
     2  0  0.50       -13.7508   2.0000                                                             
     2  1  0.50        -5.2854   2.0000                                                             
     3  2  1.50        -5.4423   0.0000                                                             
   Description                                                                                      
     l       E           TYP  RCUT    TYP  RCUT                                                     
     0    -13.7508458     23  1.200                                                                 
     0     -8.2022199     23  1.200                                                                 
     1     -5.2854383     23  1.500                                                                 
     1     34.0145650     23  1.500                                                                 
     2     -5.4423304      7  1.500                                                                 
  local pseudopotential read in
  partial core-charges read in
  partial kinetic energy density read in
  atomic valenz-charges read in
  non local Contribution for L=            0  read in
    real space projection operators read in
  non local Contribution for L=            0  read in
    real space projection operators read in
  non local Contribution for L=            1  read in
    real space projection operators read in
  non local Contribution for L=            1  read in
    real space projection operators read in
    PAW grid and wavefunctions read in
 
   number of l-projection  operators is LMAX  =            4
   number of lm-projection operators is LMMAX =            8
 
 POTCAR:    PAW_PBE N 08Apr2002                   
   SHA256 =  e053789ff3a61a86a1b75d8a110fcc91f86041011e7b0817c7c99e4e8a6349d7 N/POTCAR              
   COPYR  = (c) Copyright 08Apr2002 Georg Kresse                                                    
   COPYR  = This file is part of the software VASP. Any use, copying, and all other rights are regul
   COPYR  = If you do not have a valid VASP license, you may not use, copy or distribute this file. 
   VRHFIN =N: s2p3                                                                                  
   LEXCH  = PE                                                                                      
   EATOM  =   264.5486 eV,   19.4438 Ry                                                             
                                                                                                    
   TITEL  = PAW_PBE N 08Apr2002                                                                     
   LULTRA =        F    use ultrasoft PP ?                                                          
   IUNSCR =        1    unscreen: 0-lin 1-nonlin 2-no                                               
   RPACOR =    1.200    partial core radius                                                         
   POMASS =   14.001; ZVAL   =    5.000    mass and valenz                                          
   RCORE  =    1.500    outmost cutoff radius                                                       
   RWIGS  =    1.400; RWIGS  =    0.741    wigner-seitz radius (au A)                               
   ENMAX  =  400.000; ENMIN  =  300.000 eV                                                          
   ICORE  =        2    local potential                                                             
   LCOR   =        T    correct aug charges                                                         
   LPAW   =        T    paw PP                                                                      
   EAUG   =  627.112                                                                                
   DEXC   =    0.000                                                                                
   RMAX   =    1.529    core radius for proj-oper                                                   
   RAUG   =    1.300    factor for augmentation sphere                                              
   RDEP   =    1.514    radius for radial grids                                                     
   RDEPT  =    1.338    core radius for aug-charge                                                  
                                                                                                    
   Atomic configuration                                                                             
    4 entries                                                                                       
     n  l   j            E        occ.                                                              
     1  0  0.50      -384.7179   2.0000                                                             
     2  0  0.50       -18.5828   2.0000                                                             
     2  1  0.50        -7.0898   3.0000                                                             
     3  2  1.50        -6.8029   0.0000                                                             
   Description                                                                                      
     l       E           TYP  RCUT    TYP  RCUT                                                     
     0    -18.5828119     23  1.200                                                                 
     0    -13.5018863     23  1.200                                                                 
     1     -7.0897853     23  1.500                                                                 
     1      9.5240782     23  1.500                                                                 
     2     -6.8029130      7  1.500                                                                 
  local pseudopotential read in
  partial core-charges read in
  partial kinetic energy density read in
  atomic valenz-charges read in
  non local Contribution for L=            0  read in
    real space projection operators read in
  non local Contribution for L=            0  read in
    real space projection operators read in
  non local Contribution for L=            1  read in
    real space projection operators read in
  non local Contribution for L=            1  read in
    real space projection operators read in
    PAW grid and wavefunctions read in
 
   number of l-projection  operators is LMAX  =            4
   number of lm-projection operators is LMMAX =            8
 
 POTCAR:    PAW_PBE I 08Apr2002                   
   SHA256 =  e40f3f59b681c1fc3e3091736183c4589116986673d2b852a5012aec72758799 I/POTCAR              
   COPYR  = (c) Copyright 08Apr2002 Georg Kresse                                                    
   COPYR  = This file is part of the software VASP. Any use, copying, and all other rights are regul
   COPYR  = If you do not have a valid VASP license, you may not use, copy or distribute this file. 
   VRHFIN =I : s2p5                                                                                 
   LEXCH  = PE                                                                                      
   EATOM  =   315.8678 eV,   23.2156 Ry                                                             
                                                                                                    
   TITEL  = PAW_PBE I 08Apr2002                                                                     
   LULTRA =        F    use ultrasoft PP ?                                                          
   IUNSCR =        1    unscreen: 0-lin 1-nonlin 2-no                                               
   RPACOR =    2.200    partial core radius                                                         
   POMASS =  126.904; ZVAL   =    7.000    mass and valenz                                          
   RCORE  =    2.300    outmost cutoff radius                                                       
   RWIGS  =    2.810; RWIGS  =    1.487    wigner-seitz radius (au A)                               
   ENMAX  =  175.647; ENMIN  =  131.735 eV                                                          
   ICORE  =        3    local potential                                                             
   LCOR   =        T    correct aug charges                                                         
   LPAW   =        T    paw PP                                                                      
   EAUG   =  370.139                                                                                
   DEXC   =    0.000                                                                                
   RMAX   =    2.359    core radius for proj-oper                                                   
   RAUG   =    1.300    factor for augmentation sphere                                              
   RDEP   =    2.392    radius for radial grids                                                     
   RDEPT  =    2.170    core radius for aug-charge                                                  
                                                                                                    
   Atomic configuration                                                                             
   13 entries                                                                                       
     n  l   j            E        occ.                                                              
     1  0  0.50    -32976.3739   2.0000                                                             
     2  0  0.50     -5094.5933   2.0000                                                             
     2  1  1.50     -4572.0131   6.0000                                                             
     3  0  0.50     -1028.2813   2.0000                                                             
     3  1  1.50      -859.0250   6.0000                                                             
     3  2  2.50      -605.7620  10.0000                                                             
     4  0  0.50      -180.5540   2.0000                                                             
     4  1  1.50      -127.5306   6.0000                                                             
     4  2  2.50       -50.2720  10.0000                                                             
     5  0  0.50       -17.4058   2.0000                                                             
     5  1  0.50        -7.0851   5.0000                                                             
     5  2  1.50        -7.0750   0.0000                                                             
     4  3  2.50        -7.0750   0.0000                                                             
   Description                                                                                      
     l       E           TYP  RCUT    TYP  RCUT                                                     
     0    -17.4058016     23  2.300                                                                 
     0    -18.7663842     23  2.300                                                                 
     1     -7.0850686     23  2.300                                                                 
     1     -4.2150896     23  2.300                                                                 
     2     -7.0750295     23  2.300                                                                 
     3     -1.3605826     23  2.300                                                                 
  local pseudopotential read in
  partial core-charges read in
  partial kinetic energy density read in
  atomic valenz-charges read in
  non local Contribution for L=            0  read in
    real space projection operators read in
  non local Contribution for L=            0  read in
    real space projection operators read in
  non local Contribution for L=            1  read in
    real space projection operators read in
  non local Contribution for L=            1  read in
    real space projection operators read in
  non local Contribution for L=            2  read in
    real space projection operators read in
    PAW grid and wavefunctions read in
 
   number of l-projection  operators is LMAX  =            5
   number of lm-projection operators is LMMAX =           13
 
 POTCAR:    PAW_PBE Pb 08Apr2002                  
   SHA256 =  797118a27cf1bcd06b9881c67a26cdde129e3cd1a551dd4a281f9681ce847303 Pb/POTCAR             
   COPYR  = (c) Copyright 08Apr2002 Georg Kresse                                                    
   COPYR  = This file is part of the software VASP. Any use, copying, and all other rights are regul
   COPYR  = If you do not have a valid VASP license, you may not use, copy or distribute this file. 
   VRHFIN =Pb:                                                                                      
   LEXCH  = PE                                                                                      
   EATOM  =    96.9868 eV,    7.1283 Ry                                                             
                                                                                                    
   TITEL  = PAW_PBE Pb 08Apr2002                                                                    
   LULTRA =        F    use ultrasoft PP ?                                                          
   IUNSCR =        1    unscreen: 0-lin 1-nonlin 2-no                                               
   RPACOR =    2.200    partial core radius                                                         
   POMASS =  207.200; ZVAL   =    4.000    mass and valenz                                          
   RCORE  =    3.100    outmost cutoff radius                                                       
   RWIGS  =    3.260; RWIGS  =    1.725    wigner-seitz radius (au A)                               
   ENMAX  =   97.973; ENMIN  =   73.480 eV                                                          
   ICORE  =        3    local potential                                                             
   LCOR   =        T    correct aug charges                                                         
   LPAW   =        T    paw PP                                                                      
   EAUG   =  234.873                                                                                
   DEXC   =    0.000                                                                                
   RMAX   =    3.158    core radius for proj-oper                                                   
   RAUG   =    1.300    factor for augmentation sphere                                              
   RDEP   =    3.202    radius for radial grids                                                     
   RDEPT  =    2.659    core radius for aug-charge                                                  
                                                                                                    
   Atomic configuration                                                                             
   17 entries                                                                                       
     n  l   j            E        occ.                                                              
     1  0  0.50    -88091.8466   2.0000                                                             
     2  0  0.50    -15753.4197   2.0000                                                             
     2  1  1.50    -13508.1797   6.0000                                                             
     3  0  0.50     -3781.7194   2.0000                                                             
     3  1  1.50     -3138.2529   6.0000                                                             
     3  2  2.50     -2483.2977  10.0000                                                             
     4  0  0.50      -856.2895   2.0000                                                             
     4  1  1.50      -645.4943   6.0000                                                             
     4  2  2.50      -401.8768  10.0000                                                             
     4  3  3.50      -132.9059  14.0000                                                             
     5  0  0.50      -144.0950   2.0000                                                             
     5  1  1.50       -85.7879   6.0000                                                             
     5  2  2.50       -21.1769  10.0000                                                             
     6  0  0.50       -12.0372   2.0000                                                             
     6  1  1.50        -3.4971   2.0000                                                             
     6  2  2.50        -1.3606   0.0000                                                             
     5  3  2.50        -2.7212   0.0000                                                             
   Description                                                                                      
     l       E           TYP  RCUT    TYP  RCUT                                                     
     0    -12.0371566     23  3.100                                                                 
     0    -13.3977392     23  3.100                                                                 
     1     -3.4971341     23  3.100                                                                 
     1     -5.4423304     23  3.100                                                                 
     2     -1.3605826     23  3.100                                                                 
     3     -1.3605826     23  3.100                                                                 
  local pseudopotential read in
  partial core-charges read in
  partial kinetic energy density read in
  atomic valenz-charges read in
  non local Contribution for L=            0  read in
    real space projection operators read in
  non local Contribution for L=            0  read in
    real space projection operators read in
  non local Contribution for L=            1  read in
    real space projection operators read in
  non local Contribution for L=            1  read in
    real space projection operators read in
  non local Contribution for L=            2  read in
    real space projection operators read in
    PAW grid and wavefunctions read in
 
   number of l-projection  operators is LMAX  =            5
   number of lm-projection operators is LMMAX =           13
 
 Optimization of the real space projectors (new method)

 maximal supplied QI-value         = 34.20
 optimisation between [QCUT,QGAM] = [ 11.29, 22.57] = [ 35.68,142.71] Ry 
 Optimized for a Real-space Cutoff    1.16 Angstroem

   l    n(q)    QCUT    max X(q) W(low)/X(q) W(high)/X(q)  e(spline) 
   0      8    11.287    19.460    0.40E-03    0.73E-03    0.16E-06
   0      8    11.287    12.209    0.38E-03    0.70E-03    0.15E-06
   1      7    11.287     4.655    0.22E-03    0.25E-04    0.22E-06
 Optimization of the real space projectors (new method)

 maximal supplied QI-value         = 25.13
 optimisation between [QCUT,QGAM] = [ 11.31, 22.87] = [ 35.82,146.48] Ry 
 Optimized for a Real-space Cutoff    1.00 Angstroem

   l    n(q)    QCUT    max X(q) W(low)/X(q) W(high)/X(q)  e(spline) 
   0      7    11.310   115.676    0.43E-03    0.13E-02    0.19E-06
   0      7    11.310    87.132    0.43E-03    0.13E-02    0.18E-06
   1      6    11.310     4.429    0.42E-03    0.74E-03    0.11E-06
   1      6    11.310     2.733    0.34E-03    0.55E-03    0.92E-07
 Optimization of the real space projectors (new method)

 maximal supplied QI-value         = 25.13
 optimisation between [QCUT,QGAM] = [ 11.31, 22.87] = [ 35.82,146.48] Ry 
 Optimized for a Real-space Cutoff    1.27 Angstroem

   l    n(q)    QCUT    max X(q) W(low)/X(q) W(high)/X(q)  e(spline) 
   0      9    11.310    79.467    0.75E-04    0.16E-03    0.36E-06
   0      9    11.310    66.151    0.74E-04    0.16E-03    0.36E-06
   1      8    11.310    17.416    0.35E-03    0.12E-03    0.95E-06
   1      8    11.310    12.382    0.37E-03    0.13E-03    0.98E-06
 Optimization of the real space projectors (new method)

 maximal supplied QI-value         = 16.25
 optimisation between [QCUT,QGAM] = [ 11.38, 22.75] = [ 36.24,144.96] Ry 
 Optimized for a Real-space Cutoff    1.31 Angstroem

   l    n(q)    QCUT    max X(q) W(low)/X(q) W(high)/X(q)  e(spline) 
   0      9    11.376   194.483    0.24E-03    0.23E-03    0.67E-07
   0      9    11.376   190.334    0.23E-03    0.22E-03    0.65E-07
   1      8    11.376   116.687    0.25E-03    0.63E-04    0.16E-06
   1      8    11.376    88.696    0.25E-03    0.61E-04    0.16E-06
   2      8    11.376     4.877    0.17E-03    0.14E-03    0.29E-07
 Optimization of the real space projectors (new method)

 maximal supplied QI-value         = 12.09
 optimisation between [QCUT,QGAM] = [ 11.37, 22.86] = [ 36.19,146.31] Ry 
 Optimized for a Real-space Cutoff    1.66 Angstroem

   l    n(q)    QCUT    max X(q) W(low)/X(q) W(high)/X(q)  e(spline) 
   0     11    11.369   135.111    0.12E-03    0.69E-04    0.19E-05
   0     11    11.369   146.850    0.11E-03    0.65E-04    0.18E-05
   1     11    11.369   148.016    0.17E-03    0.32E-03    0.89E-06
   1     11    11.369   122.989    0.17E-03    0.32E-03    0.91E-06
   2     10    11.369     8.916    0.12E-03    0.45E-04    0.33E-06
  PAW_PBE H 15Jun2001                   :
 energy of atom  1       EATOM=  -12.4884
 kinetic energy error for atom=    0.0020 (will be added to EATOM!!)
  PAW_PBE C 08Apr2002                   :
 energy of atom  2       EATOM= -147.1560
 kinetic energy error for atom=    0.0076 (will be added to EATOM!!)
  PAW_PBE N 08Apr2002                   :
 energy of atom  3       EATOM= -264.5486
 kinetic energy error for atom=    0.0138 (will be added to EATOM!!)
  PAW_PBE I 08Apr2002                   :
 energy of atom  4       EATOM= -315.8678
 kinetic energy error for atom=    0.0009 (will be added to EATOM!!)
  PAW_PBE Pb 08Apr2002                  :
 energy of atom  5       EATOM=  -96.9868
 kinetic energy error for atom=    0.0000 (will be added to EATOM!!)
 
 
 POSCAR:  H  C  N  I Pb
  positions in cartesian coordinates
  No initial velocities read in
 exchange correlation table for  LEXCH =        8
   RHO(1)=    0.500       N(1)  =     2000
   RHO(2)=  100.500       N(2)  =     4000
 


--------------------------------------------------------------------------------------------------------


 ion  position               nearest neighbor table
   1  0.422  0.259  0.580- 187 1.03
   2  0.412  0.732  0.576- 188 1.02
   3  0.932  0.286  0.581- 189 1.03
   4  0.942  0.813  0.578- 190 1.03
   5  0.314  0.065  0.577- 194 1.01
   6  0.305  0.581  0.574- 195 1.01
   7  0.792  0.076  0.580- 196 1.00
   8  0.107  0.208  0.565- 183 1.02
   9  0.083  0.674  0.567- 184 1.02
  10  0.605  0.198  0.564- 185 1.04
  11  0.606  0.745  0.563- 186 1.05
  12  0.372  0.014  0.560- 194 1.04
  13  0.264  0.617  0.552- 195 1.05
  14  0.864  0.048  0.564- 196 1.04
  15  0.066  0.262  0.585- 183 1.04
  16  0.005  0.690  0.583- 184 1.04
  17  0.532  0.177  0.582- 185 1.02
  18  0.542  0.694  0.580- 186 1.03
  19  0.278  0.448  0.583- 191 1.01
  20  0.178  0.034  0.575- 192 1.02
  21  0.675  0.004  0.579- 193 1.01
  22  0.425  0.331  0.561- 187 1.02
  23  0.392  0.801  0.557- 188 1.02
  24  0.886  0.245  0.559- 189 1.02
  25  0.981  0.872  0.559- 190 1.04
  26  0.217  0.402  0.566- 191 1.03
  27  0.152  0.967  0.556- 192 1.04
  28  0.676  0.926  0.562- 193 1.04
  29  0.540  0.295  0.548- 146 1.09
  30  0.518  0.811  0.547- 147 1.10
  31  0.995  0.196  0.546- 144 1.09
  32  0.072  0.787  0.550- 145 1.07
  33  0.201  0.507  0.544- 148 1.09
  34  0.274  0.947  0.545- 149 1.09
  35  0.795  0.949  0.550- 150 1.09
  36  0.437  0.282  0.676- 205 1.03
  37  0.431  0.821  0.672- 206 1.03
  38  0.974  0.273  0.683- 207 1.03
  39  0.933  0.779  0.675- 208 1.01
  40  0.295  0.046  0.677- 209 1.01
  41  0.299  0.551  0.675- 210 1.02
  42  0.794  0.056  0.675- 211 1.02
  43  0.809  0.550  0.677- 212 1.03
  44  0.084  0.166  0.644- 197 1.01
  45  0.100  0.690  0.654- 198 1.01
  46  0.582  0.175  0.649- 199 1.01
  47  0.562  0.676  0.655- 200 1.03
  48  0.182  0.408  0.650- 201 1.03
  49  0.172  0.922  0.646- 202 1.04
  50  0.670  0.429  0.651- 203 1.03
  51  0.668  0.924  0.649- 204 1.03
  52  0.073  0.176  0.672- 197 1.02
  53  0.037  0.683  0.675- 198 1.02
  54  0.536  0.181  0.673- 199 1.01
  55  0.524  0.717  0.678- 200 1.00
  56  0.213  0.435  0.675- 201 1.01
  57  0.186  0.947  0.672- 202 1.02
  58  0.711  0.444  0.676- 203 1.01
  59  0.687  0.959  0.674- 204 1.01
  60  0.426  0.333  0.652- 205 1.01
  61  0.416  0.840  0.645- 206 1.02
  62  0.932  0.317  0.661- 207 1.03
  63  0.936  0.839  0.653- 208 1.02
  64  0.338  0.070  0.654- 209 1.04
  65  0.312  0.589  0.650- 210 1.01
  66  0.834  0.073  0.651- 211 1.01
  67  0.820  0.596  0.652- 212 1.02
  68  0.998  0.254  0.635- 151 1.09
  69  0.040  0.787  0.638- 152 1.09
  70  0.517  0.270  0.634- 153 1.07
  71  0.497  0.752  0.633- 154 1.09
  72  0.264  0.996  0.632- 156 1.09
  73  0.241  0.502  0.632- 155 1.08
  74  0.759  0.992  0.633- 158 1.08
  75  0.733  0.522  0.634- 157 1.09
  76  0.449  0.301  0.769- 221 1.02
  77  0.449  0.801  0.769- 222 1.02
  78  0.949  0.301  0.769- 223 1.02
  79  0.949  0.801  0.769- 224 1.02
  80  0.301  0.051  0.769- 225 1.02
  81  0.301  0.551  0.769- 226 1.02
  82  0.801  0.051  0.769- 227 1.02
  83  0.801  0.551  0.769- 228 1.02
  84  0.079  0.171  0.743- 213 1.02
  85  0.079  0.671  0.743- 214 1.02
  86  0.579  0.171  0.743- 215 1.02
  87  0.579  0.671  0.743- 216 1.02
  88  0.171  0.421  0.743- 217 1.02
  89  0.171  0.921  0.743- 218 1.02
  90  0.671  0.421  0.743- 219 1.02
  91  0.671  0.921  0.743- 220 1.02
  92  0.051  0.199  0.769- 213 1.02
  93  0.051  0.699  0.769- 214 1.02
  94  0.551  0.199  0.769- 215 1.02
  95  0.551  0.699  0.769- 216 1.02
  96  0.199  0.449  0.769- 217 1.02
  97  0.199  0.949  0.769- 218 1.02
  98  0.699  0.449  0.769- 219 1.02
  99  0.699  0.949  0.769- 220 1.02
 100  0.421  0.329  0.743- 221 1.02
 101  0.421  0.829  0.743- 222 1.02
 102  0.921  0.329  0.743- 223 1.02
 103  0.921  0.829  0.743- 224 1.02
 104  0.329  0.079  0.743- 225 1.02
 105  0.329  0.579  0.743- 226 1.02
 106  0.829  0.079  0.743- 227 1.02
 107  0.829  0.579  0.743- 228 1.02
 108  0.000  0.250  0.726- 161 1.09
 109  0.000  0.750  0.726- 162 1.09
 110  0.500  0.250  0.726- 159 1.09
 111  0.500  0.750  0.726- 160 1.09
 112  0.250  0.000  0.726- 163 1.09
 113  0.250  0.500  0.726- 164 1.09
 114  0.750  0.000  0.726- 165 1.09
 115  0.750  0.500  0.726- 166 1.09
 116  0.788  0.509  0.518- 173 1.11
 117  0.872  0.505  0.532- 173 1.11
 118  0.752  0.627  0.538- 174 1.10
 119  0.768  0.626  0.566- 174 1.10
 120  0.680  0.453  0.557- 175 1.11
 121  0.669  0.549  0.563- 175 1.10
 122  0.799  0.429  0.570- 176 1.11
 123  0.864  0.501  0.571- 176 1.09
 124  0.862  0.379  0.541- 177 1.10
 125  0.766  0.375  0.537- 177 1.10
 126  0.778  0.379  0.499- 178 1.09
 127  0.867  0.419  0.499- 178 1.13
 128  0.892  0.610  0.533- 179 1.10
 129  0.904  0.610  0.561- 179 1.10
 130  0.867  0.689  0.548- 179 1.10
 131  0.597  0.522  0.532- 180 1.09
 132  0.670  0.484  0.517- 180 1.09
 133  0.668  0.581  0.523- 180 1.10
 134  0.720  0.483  0.596- 181 1.09
 135  0.753  0.575  0.593- 181 1.11
 136  0.811  0.507  0.605- 181 1.11
 137  0.834  0.262  0.517- 182 1.11
 138  0.847  0.278  0.490- 182 1.10
 139  0.938  0.173  0.502- 168 1.08
 140  0.973  0.404  0.515- 169 1.10
 141  0.072  0.149  0.504- 170 1.09
 142  0.108  0.380  0.517- 171 1.09
 143  0.158  0.255  0.512- 172 1.09
 144  0.997  0.227  0.561-  31 1.09 183 1.30 189 1.31
 145  0.032  0.772  0.561-  32 1.07 184 1.31 190 1.31
 146  0.514  0.264  0.561-  29 1.09 187 1.30 185 1.32
 147  0.500  0.771  0.559-  30 1.10 188 1.31 186 1.32
 148  0.238  0.509  0.558-  33 1.09 195 1.30 191 1.31
 149  0.263  0.989  0.557-  34 1.09 194 1.30 192 1.31
 150  0.770  0.986  0.562-  35 1.09 196 1.30 193 1.31
 151  0.007  0.242  0.652-  68 1.09 207 1.29 197 1.33
 152  0.017  0.765  0.653-  69 1.09 208 1.31 198 1.32
 153  0.504  0.255  0.650-  70 1.07 205 1.30 199 1.32
 154  0.489  0.759  0.650-  71 1.09 206 1.30 200 1.32
 155  0.247  0.499  0.649-  73 1.08 210 1.30 201 1.31
 156  0.255  0.996  0.650-  72 1.09 202 1.30 209 1.30
 157  0.745  0.512  0.651-  75 1.09 203 1.30 212 1.33
 158  0.752  0.999  0.650-  74 1.08 211 1.30 204 1.31
 159  0.500  0.250  0.743- 110 1.09 221 1.31 215 1.31
 160  0.500  0.750  0.743- 111 1.09 222 1.31 216 1.31
 161  1.000  0.250  0.743- 108 1.09 223 1.31 213 1.31
 162  1.000  0.750  0.743- 109 1.09 224 1.31 214 1.31
 163  0.250  0.000  0.743- 112 1.09 225 1.31 218 1.31
 164  0.250  0.500  0.743- 113 1.09 226 1.31 217 1.31
 165  0.750  0.000  0.743- 114 1.09 227 1.31 220 1.31
 166  0.750  0.500  0.743- 115 1.09 228 1.31 219 1.31
 167  0.944  0.290  0.508- 169 1.40 168 1.42 182 1.50
 168  0.975  0.218  0.505- 139 1.08 170 1.40 167 1.42
 169  0.994  0.347  0.513- 140 1.10 167 1.40 171 1.41
 170  0.051  0.205  0.506- 141 1.09 172 1.39 168 1.40
 171  0.070  0.335  0.514- 142 1.09 172 1.38 169 1.41
 172  0.099  0.264  0.510- 143 1.09 171 1.38 170 1.39
 173  0.814  0.485  0.532- 117 1.11 116 1.11 177 1.50 229 1.53
 174  0.789  0.604  0.551- 119 1.10 118 1.10 179 1.51 229 1.51
 175  0.691  0.510  0.551- 121 1.10 120 1.11 180 1.52 229 1.52
 176  0.805  0.489  0.572- 123 1.09 122 1.11 229 1.51 181 1.53
 177  0.817  0.402  0.531- 124 1.10 125 1.10 173 1.50 178 1.55
 178  0.831  0.378  0.508- 126 1.09 127 1.13 182 1.53 177 1.55
 179  0.868  0.628  0.548- 128 1.10 130 1.10 129 1.10 174 1.51
 180  0.656  0.525  0.529- 131 1.09 132 1.09 133 1.10 175 1.52
 181  0.770  0.516  0.592- 134 1.09 135 1.11 136 1.11 176 1.53
 182  0.862  0.300  0.505- 138 1.10 137 1.11 167 1.50 178 1.53
 183  0.060  0.229  0.571-   8 1.02  15 1.04 144 1.30
 184  0.040  0.708  0.571-   9 1.02  16 1.04 145 1.31
 185  0.551  0.207  0.569-  17 1.02  10 1.04 146 1.32
 186  0.552  0.728  0.567-  18 1.03  11 1.05 147 1.32
 187  0.450  0.285  0.568-  22 1.02   1 1.03 146 1.30
 188  0.430  0.769  0.565-  23 1.02   2 1.02 147 1.31
 189  0.934  0.256  0.567-  24 1.02   3 1.03 144 1.31
 190  0.980  0.820  0.566-   4 1.03  25 1.04 145 1.31
 191  0.244  0.450  0.570-  19 1.01  26 1.03 148 1.31
 192  0.194  0.997  0.564-  20 1.02  27 1.04 149 1.31
 193  0.701  0.974  0.567-  21 1.01  28 1.04 150 1.31
 194  0.318  0.027  0.565-   5 1.01  12 1.04 149 1.30
 195  0.271  0.572  0.562-   6 1.01  13 1.05 148 1.30
 196  0.810  0.040  0.569-   7 1.00  14 1.04 150 1.30
 197  0.058  0.191  0.657-  44 1.01  52 1.02 151 1.33
 198  0.054  0.709  0.661-  45 1.01  53 1.02 152 1.32
 199  0.543  0.200  0.658-  54 1.01  46 1.01 153 1.32
 200  0.528  0.715  0.662-  55 1.00  47 1.03 154 1.32
 201  0.212  0.445  0.659-  56 1.01  48 1.03 155 1.31
 202  0.202  0.954  0.657-  57 1.02  49 1.04 156 1.30
 203  0.707  0.459  0.660-  58 1.01  50 1.03 157 1.30
 204  0.700  0.959  0.659-  59 1.01  51 1.03 158 1.31
 205  0.453  0.292  0.660-  60 1.01  36 1.03 153 1.30
 206  0.443  0.810  0.656-  61 1.02  37 1.03 154 1.30
 207  0.970  0.279  0.666-  62 1.03  38 1.03 151 1.29
 208  0.957  0.795  0.661-  39 1.01  63 1.02 152 1.31
 209  0.297  0.039  0.661-  40 1.01  64 1.04 156 1.30
 210  0.288  0.548  0.659-  65 1.01  41 1.02 155 1.30
 211  0.796  0.045  0.660-  66 1.01  42 1.02 158 1.30
 212  0.795  0.555  0.661-  67 1.02  43 1.03 157 1.33
 213  0.046  0.204  0.753-  92 1.02  84 1.02 161 1.31
 214  0.046  0.704  0.753-  93 1.02  85 1.02 162 1.31
 215  0.546  0.204  0.753-  94 1.02  86 1.02 159 1.31
 216  0.546  0.704  0.753-  95 1.02  87 1.02 160 1.31
 217  0.204  0.454  0.753-  96 1.02  88 1.02 164 1.31
 218  0.204  0.954  0.753-  97 1.02  89 1.02 163 1.31
 219  0.704  0.454  0.753-  98 1.02  90 1.02 166 1.31
 220  0.704  0.954  0.753-  99 1.02  91 1.02 165 1.31
 221  0.454  0.296  0.753-  76 1.02 100 1.02 159 1.31
 222  0.454  0.796  0.753-  77 1.02 101 1.02 160 1.31
 223  0.954  0.296  0.753-  78 1.02 102 1.02 161 1.31
 224  0.954  0.796  0.753-  79 1.02 103 1.02 162 1.31
 225  0.296  0.046  0.753-  80 1.02 104 1.02 163 1.31
 226  0.296  0.546  0.753-  81 1.02 105 1.02 164 1.31
 227  0.796  0.046  0.753-  82 1.02 106 1.02 165 1.31
 228  0.796  0.546  0.753-  83 1.02 107 1.02 166 1.31
 229  0.775  0.522  0.551- 174 1.51 176 1.51 175 1.52 173 1.53
 230  0.506  0.984  0.554- 304 3.13
 231  0.455  0.478  0.554- 305 3.14
 232  0.998  0.011  0.552- 302 3.32
 233  0.036  0.491  0.557- 303 3.09
 234  0.245  0.246  0.556- 306 3.12
 235  0.235  0.772  0.551- 307 3.28
 236  0.744  0.226  0.555- 308 3.27
 237  0.715  0.791  0.545- 309 3.84
 238  0.002  0.996  0.655- 302 3.13 310 3.13
 239  0.002  0.505  0.656- 311 3.05 303 3.12
 240  0.496  0.005  0.655- 312 3.13 304 3.18
 241  0.497  0.501  0.655- 313 3.11 305 3.26
 242  0.255  0.239  0.656- 314 3.07 306 3.13
 243  0.250  0.753  0.654- 307 3.16 315 3.16
 244  0.743  0.253  0.656- 316 3.07 308 3.11
 245  0.756  0.755  0.654- 309 3.04 317 3.20
 246  0.146  0.105  0.610- 306 3.25 302 3.27
 247  0.148  0.607  0.610- 303 3.13 307 3.24
 248  0.647  0.106  0.610- 308 3.31 304 3.31
 249  0.610  0.640  0.615- 309 3.32 305 3.35
 250  0.362  0.388  0.613- 305 3.20 306 3.23
 251  0.361  0.888  0.608- 307 3.19 304 3.22
 252  0.890  0.361  0.616- 308 3.21 303 3.42
 253  0.863  0.889  0.609- 309 3.18 302 3.20
 254  0.118  0.362  0.613- 306 3.21 303 3.27
 255  0.118  0.873  0.609- 307 3.10 302 3.27
 256  0.617  0.370  0.606- 308 3.19 305 3.23
 257  0.620  0.866  0.613- 309 3.12 304 3.20
 258  0.397  0.141  0.608- 306 3.26 304 3.27
 259  0.382  0.638  0.607- 305 3.23 307 3.32
 260  0.887  0.137  0.613- 302 3.11 308 3.29
 261  0.915  0.664  0.614- 303 3.39 309 3.46
 262  0.000  0.000  0.755- 310 3.13 318 3.27
 263  0.000  0.500  0.755- 311 3.13 319 3.27
 264  0.500  0.000  0.755- 312 3.13 320 3.27
 265  0.500  0.500  0.755- 313 3.13 321 3.27
 266  0.250  0.250  0.755- 314 3.13 322 3.27
 267  0.250  0.750  0.755- 315 3.13 323 3.27
 268  0.750  0.250  0.755- 316 3.13 324 3.27
 269  0.750  0.750  0.755- 317 3.13 325 3.27
 270  0.136  0.114  0.705- 310 3.20 314 3.20
 271  0.136  0.614  0.705- 311 3.20 315 3.20
 272  0.636  0.114  0.705- 312 3.20 316 3.20
 273  0.636  0.614  0.705- 313 3.20 317 3.20
 274  0.364  0.386  0.705- 313 3.20 314 3.20
 275  0.364  0.886  0.705- 312 3.20 315 3.20
 276  0.864  0.386  0.705- 311 3.20 316 3.20
 277  0.864  0.886  0.705- 310 3.20 317 3.20
 278  0.114  0.364  0.705- 314 3.21 311 3.21
 279  0.114  0.864  0.705- 315 3.21 310 3.21
 280  0.614  0.364  0.705- 316 3.21 313 3.21
 281  0.614  0.864  0.705- 317 3.21 312 3.21
 282  0.386  0.136  0.705- 314 3.21 312 3.21
 283  0.386  0.636  0.705- 315 3.21 313 3.21
 284  0.886  0.136  0.705- 316 3.21 310 3.21
 285  0.886  0.636  0.705- 317 3.21 311 3.21
 286  0.135  0.115  0.801- 318 3.22 322 3.22
 287  0.135  0.615  0.801- 319 3.22 323 3.22
 288  0.635  0.115  0.801- 320 3.22 324 3.22
 289  0.635  0.615  0.801- 321 3.22 325 3.22
 290  0.365  0.385  0.801- 321 3.22 322 3.22
 291  0.365  0.885  0.801- 320 3.22 323 3.22
 292  0.865  0.385  0.801- 319 3.22 324 3.22
 293  0.865  0.885  0.801- 318 3.22 325 3.22
 294  0.115  0.365  0.801- 319 3.23 322 3.23
 295  0.115  0.865  0.801- 318 3.23 323 3.23
 296  0.615  0.365  0.801- 321 3.23 324 3.23
 297  0.615  0.865  0.801- 320 3.23 325 3.23
 298  0.385  0.135  0.801- 320 3.23 322 3.23
 299  0.385  0.635  0.801- 321 3.23 323 3.23
 300  0.885  0.135  0.801- 318 3.23 324 3.23
 301  0.885  0.635  0.801- 319 3.23 325 3.23
 302  0.995  0.006  0.605- 260 3.11 238 3.13 253 3.20 246 3.27 255 3.27 232 3.32
 303  0.009  0.504  0.606- 233 3.09 239 3.12 247 3.13 254 3.27 261 3.39 252 3.42
 304  0.503  0.995  0.604- 230 3.13 240 3.18 257 3.20 251 3.22 258 3.27 248 3.31
 305  0.495  0.500  0.603- 231 3.14 250 3.20 256 3.23 259 3.23 241 3.26 249 3.35
 306  0.252  0.249  0.606- 234 3.12 242 3.13 254 3.21 250 3.23 246 3.25 258 3.26
 307  0.243  0.758  0.604- 255 3.10 243 3.16 251 3.19 247 3.24 235 3.28 259 3.32
 308  0.752  0.256  0.606- 244 3.11 256 3.19 252 3.21 236 3.27 260 3.29 248 3.31
 309  0.749  0.755  0.605- 245 3.04 257 3.12 253 3.18 249 3.32 261 3.46 237 3.84
 310  0.000  0.000  0.705- 262 3.13 238 3.13 270 3.20 277 3.20 279 3.21 284 3.21
 311  0.000  0.500  0.705- 239 3.05 263 3.13 271 3.20 276 3.20 278 3.21 285 3.21
 312  0.500  0.000  0.705- 240 3.13 264 3.13 272 3.20 275 3.20 281 3.21 282 3.21
 313  0.500  0.500  0.705- 241 3.11 265 3.13 273 3.20 274 3.20 280 3.21 283 3.21
 314  0.250  0.250  0.705- 242 3.07 266 3.13 270 3.20 274 3.20 282 3.21 278 3.21
 315  0.250  0.750  0.705- 267 3.13 243 3.16 271 3.20 275 3.20 283 3.21 279 3.21
 316  0.750  0.250  0.705- 244 3.07 268 3.13 272 3.20 276 3.20 284 3.21 280 3.21
 317  0.750  0.750  0.705- 269 3.13 245 3.20 273 3.20 277 3.20 285 3.21 281 3.21
 318  0.000  0.000  0.807- 286 3.22 293 3.22 300 3.23 295 3.23 262 3.27
 319  0.000  0.500  0.807- 287 3.22 292 3.22 301 3.23 294 3.23 263 3.27
 320  0.500  0.000  0.807- 288 3.22 291 3.22 298 3.23 297 3.23 264 3.27
 321  0.500  0.500  0.807- 289 3.22 290 3.22 299 3.23 296 3.23 265 3.27
 322  0.250  0.250  0.807- 290 3.22 286 3.22 294 3.23 298 3.23 266 3.27
 323  0.250  0.750  0.807- 291 3.22 287 3.22 299 3.23 295 3.23 267 3.27
 324  0.750  0.250  0.807- 292 3.22 288 3.22 296 3.23 300 3.23 268 3.27
 325  0.750  0.750  0.807- 293 3.22 289 3.22 297 3.23 301 3.23 269 3.27
 

IMPORTANT INFORMATION: All symmetrisations will be switched off!
NOSYMM: (Re-)initialisation of all symmetry stuff for point group C_1.


----------------------------------------------------------------------------------------

                                     Primitive cell                                     

  volume of cell :   20385.2105

  direct lattice vectors                    reciprocal lattice vectors
    18.060800552  0.000000000  0.000000000     0.055368531  0.000015077 -0.000000000
    -0.004918649 18.062799454  0.000000000     0.000000000  0.055362404  0.000000000
     0.000000000  0.000000000 62.487499237     0.000000000 -0.000000000  0.016003201

  length of vectors
    18.060800552 18.062800123 62.487499237     0.055368533  0.055362404  0.016003201

  position of ions in fractional coordinates (direct lattice)
     0.422444033  0.258578676  0.580027084
     0.411928482  0.732292786  0.576268581
     0.931619908  0.285690798  0.581448633
     0.942315290  0.813158011  0.578438632
     0.314393598  0.064820122  0.577089119
     0.305397962  0.581254081  0.574495582
     0.791531095  0.076479994  0.580205282
     0.106612391  0.207938407  0.564849915
     0.082979541  0.674089126  0.566726878
     0.605407156  0.198267544  0.564078216
     0.605987875  0.744787996  0.562968191
     0.372068665  0.014303535  0.560427827
     0.263847468  0.617254247  0.551831992
     0.863638425  0.047861570  0.563713824
     0.065752641  0.262049941  0.584933217
     0.004668341  0.690172785  0.582873967
     0.532460875  0.176829380  0.581545821
     0.542138357  0.693996078  0.579979406
     0.277508567  0.447708891  0.582777268
     0.178372582  0.034214766  0.575027610
     0.674824429  0.003946833  0.578500045
     0.424665955  0.331193680  0.561401838
     0.391508450  0.800722410  0.557360563
     0.886383750  0.244997946  0.559363955
     0.980909846  0.872179507  0.559234473
     0.216999593  0.401839488  0.565794806
     0.152021209  0.967466498  0.556393817
     0.676329383  0.926005029  0.561713302
     0.539960857  0.295407265  0.548117260
     0.518022678  0.811168752  0.546935627
     0.995375792  0.196251490  0.546120156
     0.072470806  0.786989780  0.549588867
     0.201011179  0.506920828  0.544201132
     0.274167295  0.947102364  0.545349189
     0.795272603  0.948538835  0.550149343
     0.437035112  0.281968111  0.675850449
     0.430691682  0.821145617  0.671776698
     0.974472002  0.272955728  0.682818457
     0.932606044  0.778956821  0.674506125
     0.294718406  0.045975632  0.677157779
     0.298985879  0.551237108  0.674849700
     0.793978798  0.056294283  0.675494421
     0.808614907  0.550016584  0.676671964
     0.083910261  0.166310190  0.644003625
     0.099682099  0.690174157  0.653991402
     0.581805930  0.174633114  0.649112557
     0.561836549  0.676306841  0.655351659
     0.181644036  0.408219087  0.649957026
     0.171942138  0.921898642  0.645821433
     0.670372788  0.429008262  0.651423811
     0.668268464  0.924131701  0.649100409
     0.072918333  0.175865228  0.671616509
     0.037398383  0.682833270  0.675252796
     0.536156269  0.180671851  0.673304774
     0.524028746  0.717260857  0.678261271
     0.212694332  0.434739162  0.674998289
     0.185883856  0.947289578  0.672201526
     0.710616503  0.444401696  0.675942020
     0.686897346  0.959038783  0.674353507
     0.426475530  0.333221561  0.652452886
     0.416182567  0.840265355  0.644815555
     0.931857478  0.317466937  0.660982607
     0.935705817  0.838727041  0.652516986
     0.337858329  0.069945327  0.653708325
     0.312443780  0.588635411  0.649887676
     0.833879519  0.072721747  0.650933539
     0.819796828  0.595500960  0.651814697
     0.997656943  0.253514611  0.635499605
     0.039961482  0.787128691  0.638147168
     0.516955373  0.270071627  0.634044846
     0.497056084  0.751664632  0.632508284
     0.264063279  0.995657279  0.632437347
     0.241180312  0.502305623  0.632226062
     0.758675879  0.991925505  0.632534229
     0.733426450  0.522453015  0.634287266
     0.448745018  0.301283966  0.768889017
     0.448745007  0.801283913  0.768889017
     0.948744965  0.301283966  0.768889017
     0.948745007  0.801283913  0.768889017
     0.301275995  0.051294496  0.768872961
     0.301276011  0.551294499  0.768872961
     0.801275943  0.051294496  0.768872961
     0.801275984  0.551294499  0.768872961
     0.078771004  0.171180501  0.743441971
     0.078771006  0.671180448  0.743441971
     0.578771004  0.171180501  0.743441971
     0.578770992  0.671180448  0.743441971
     0.171199499  0.421174482  0.743421032
     0.171199501  0.921174508  0.743421032
     0.671199512  0.421174482  0.743421032
     0.671199501  0.921174508  0.743421032
     0.051256000  0.198714991  0.768889017
     0.051256002  0.698714925  0.768889017
     0.551256027  0.198714991  0.768889017
     0.551256016  0.698714925  0.768889017
     0.198723491  0.448703970  0.768872046
     0.198723493  0.948703970  0.768872046
     0.698723518  0.448703970  0.768872046
     0.698723507  0.948703970  0.768872046
     0.421231519  0.328817467  0.743441971
     0.421231508  0.828817440  0.743441971
     0.921231466  0.328817467  0.743441971
     0.921231508  0.828817440  0.743441971
     0.328800503  0.078824997  0.743421032
     0.328800492  0.578824964  0.743421032
     0.828800477  0.078824997  0.743421032
     0.828800519  0.578824964  0.743421032
     0.000003500  0.250001478  0.725821992
     0.000003500  0.750001452  0.725821992
     0.500003506  0.250001478  0.725821992
     0.500003495  0.750001452  0.725821992
     0.250000502  0.000000000  0.725803983
     0.250000517  0.500000000  0.725803983
     0.750000502  0.000000000  0.725803983
     0.750000490  0.500000000  0.725803983
     0.788102222  0.508770279  0.517669336
     0.872012125  0.505276497  0.531978595
     0.751861608  0.626621985  0.538120570
     0.767751125  0.625772312  0.565800057
     0.680174030  0.453074986  0.556748808
     0.669237328  0.548547118  0.562836756
     0.798768529  0.428660958  0.570298942
     0.864139580  0.501162025  0.570786283
     0.861672944  0.379312688  0.541428544
     0.765646013  0.375488498  0.536907132
     0.778138655  0.379205984  0.499134989
     0.866880414  0.419001962  0.499110876
     0.892470895  0.610109028  0.532672398
     0.903593582  0.609877563  0.561208257
     0.867465147  0.688848671  0.547979231
     0.596565129  0.521793044  0.531937204
     0.670090266  0.484181333  0.516837749
     0.667654405  0.580617076  0.522844810
     0.720363738  0.483435618  0.596011360
     0.753226709  0.575328594  0.592604124
     0.810600928  0.507461160  0.605486095
     0.833761450  0.262148910  0.516797458
     0.847289622  0.277887588  0.489565296
     0.937976851  0.172567470  0.502011541
     0.973435340  0.403917051  0.514885881
     0.072054190  0.149497197  0.503796047
     0.107588802  0.380383452  0.517071133
     0.158032102  0.255008205  0.511870142
     0.997117025  0.227214095  0.561079508
     0.031912499  0.772221154  0.561413437
     0.514277208  0.263594590  0.560977620
     0.499729478  0.771064990  0.559023616
     0.237990975  0.509467209  0.557956264
     0.262944028  0.989159518  0.557478385
     0.769915360  0.985850730  0.561835030
     0.007435530  0.242422183  0.652425720
     0.016684216  0.764535604  0.652940960
     0.504213242  0.254748282  0.650255181
     0.488911982  0.759032710  0.649740552
     0.247314218  0.498748008  0.649464496
     0.254927913  0.995814207  0.649647455
     0.744591714  0.512202658  0.651247750
     0.751961757  0.998544272  0.649660885
     0.499988984  0.249994984  0.743277021
     0.499989025  0.749994958  0.743277021
     0.999988984  0.249994984  0.743277021
     0.999989025  0.749994958  0.743277021
     0.250000502  0.000001000  0.743255960
     0.250000517  0.500001003  0.743255960
     0.750000502  0.000001000  0.743255960
     0.750000491  0.500001003  0.743255960
     0.944386490  0.289781142  0.507953037
     0.975031066  0.218180329  0.505255476
     0.993635836  0.347196268  0.512614858
     0.051426000  0.205497872  0.506153483
     0.070390167  0.334569380  0.513759680
     0.098838198  0.264436661  0.510398167
     0.814157544  0.485090246  0.532176388
     0.788806297  0.604330953  0.550548288
     0.691432644  0.510079821  0.550736253
     0.805078048  0.489433543  0.571606882
     0.817250378  0.402002976  0.531355240
     0.830655951  0.378226534  0.507825570
     0.868220192  0.628187279  0.547872399
     0.655999120  0.524930442  0.529152529
     0.769539142  0.516164914  0.592431909
     0.862475098  0.300067534  0.505436146
     0.059860157  0.229361880  0.571409699
     0.039689403  0.707844545  0.570749716
     0.550980773  0.206898701  0.568905963
     0.551868567  0.728296950  0.567065874
     0.449756688  0.285410442  0.567705772
     0.430100195  0.768669241  0.564841552
     0.934387054  0.255937524  0.567457248
     0.979501147  0.819809202  0.566006458
     0.243864987  0.449896722  0.569909094
     0.194225196  0.997470218  0.563592645
     0.700991259  0.974209398  0.567152195
     0.318211958  0.027120304  0.565192941
     0.271050922  0.571765700  0.561996684
     0.809674030  0.040242917  0.569254788
     0.058163799  0.191126166  0.656505516
     0.053597724  0.708661854  0.661496993
     0.543184398  0.199588872  0.658296890
     0.528123028  0.715324660  0.662289143
     0.212468247  0.444703118  0.659027016
     0.202027177  0.953579804  0.656685178
     0.707008903  0.459298251  0.660425367
     0.700146636  0.958586122  0.658588208
     0.453002857  0.291683206  0.660233984
     0.443101449  0.809644377  0.656117743
     0.969682453  0.279172394  0.666459411
     0.956522323  0.794792172  0.660672975
     0.297276979  0.038620470  0.661158424
     0.288373167  0.548458893  0.658799004
     0.795711190  0.044709774  0.659516067
     0.794511788  0.555333999  0.660759479
     0.045862501  0.204119496  0.752725994
     0.045862500  0.704119456  0.752725994
     0.545862507  0.204119496  0.752725994
     0.545862496  0.704119456  0.752725994
     0.204119002  0.454101003  0.752704994
     0.204118991  0.954100951  0.752704994
     0.704118976  0.454101003  0.752704994
     0.704118964  0.954100951  0.752704994
     0.454140018  0.295888490  0.752726971
     0.454140007  0.795888516  0.752726971
     0.954140018  0.295888490  0.752726971
     0.954140060  0.795888516  0.752726971
     0.295882492  0.045900498  0.752704994
     0.295882481  0.545900528  0.752704994
     0.795882439  0.045900498  0.752704994
     0.795882481  0.545900528  0.752704994
     0.774810482  0.521839981  0.551073967
     0.505594311  0.984050599  0.553992397
     0.455450626  0.477845239  0.554363138
     0.998427089  0.010970509  0.551689751
     0.036277661  0.491271537  0.557498530
     0.244568092  0.246212293  0.555922287
     0.235260201  0.771559968  0.551415527
     0.744448524  0.225682936  0.554588280
     0.715212418  0.791073946  0.545371349
     0.001728689  0.996307435  0.654686793
     0.001799912  0.504577614  0.656022448
     0.496401707  0.004864591  0.654800402
     0.497432158  0.500601841  0.655028047
     0.255229873  0.238866232  0.655749139
     0.249908306  0.752869529  0.654234798
     0.742640550  0.253479395  0.655725269
     0.755533544  0.754702137  0.653668950
     0.145757623  0.105211870  0.610072583
     0.148419971  0.606636418  0.609807821
     0.646947975  0.106383279  0.610369823
     0.610179713  0.640000606  0.614639476
     0.362403790  0.388104614  0.612776493
     0.360998946  0.888222617  0.608045872
     0.890277435  0.361153842  0.616189957
     0.862581679  0.889384589  0.608542614
     0.117695070  0.361768777  0.613241919
     0.117576032  0.873471678  0.608601403
     0.616956899  0.370140433  0.606355287
     0.620379061  0.866363471  0.613277326
     0.396570465  0.140538997  0.608090986
     0.382042377  0.638120110  0.607134069
     0.886635700  0.136702241  0.613400459
     0.914752709  0.664342512  0.614227101
     0.000000000  0.000000000  0.754927972
     0.000000000  0.500000000  0.754927972
     0.500000000  0.000000000  0.754927972
     0.499999989  0.500000000  0.754927972
     0.250000496  0.250000000  0.754939022
     0.250000511  0.749999974  0.754939022
     0.750000470  0.250000000  0.754939022
     0.750000458  0.749999974  0.754939022
     0.135790500  0.114209997  0.704782994
     0.135790502  0.614209984  0.704782994
     0.635790447  0.114209997  0.704782994
     0.635790488  0.614209984  0.704782994
     0.364209516  0.385789989  0.704782994
     0.364209505  0.885789963  0.704782994
     0.864209542  0.385789989  0.704782994
     0.864209531  0.885789963  0.704782994
     0.114217990  0.364218986  0.704780979
     0.114217992  0.864218986  0.704780979
     0.614218004  0.364218986  0.704780979
     0.614217992  0.864218986  0.704780979
     0.385782012  0.135781489  0.704782017
     0.385782001  0.635781489  0.704782017
     0.885781985  0.135781489  0.704782017
     0.885782027  0.635781489  0.704782017
     0.134667000  0.115332001  0.801256025
     0.134666989  0.615331988  0.801256025
     0.634666987  0.115332001  0.801256025
     0.634666976  0.615331988  0.801256025
     0.365333002  0.384667985  0.801256025
     0.365332990  0.884667959  0.801256025
     0.865332949  0.384667985  0.801256025
     0.865332938  0.884667959  0.801256025
     0.115328503  0.365337004  0.801264999
     0.115328505  0.865336978  0.801264999
     0.615328503  0.365337004  0.801264999
     0.615328492  0.865336978  0.801264999
     0.384671513  0.134662996  0.801264999
     0.384671501  0.634662970  0.801264999
     0.884671486  0.134662996  0.801264999
     0.884671528  0.634662970  0.801264999
     0.995086250  0.006382242  0.604719401
     0.008825249  0.504360351  0.606189910
     0.502990520  0.994927052  0.604033961
     0.495259049  0.500483785  0.602863073
     0.252439189  0.249083062  0.605760014
     0.242655889  0.757590330  0.603735806
     0.751549785  0.255842303  0.606083932
     0.749329367  0.755388613  0.605073170
     0.000000500  0.000000500  0.704828963
     0.000000500  0.500000475  0.704828963
     0.500000475  0.000000500  0.704828963
     0.500000464  0.500000475  0.704828963
     0.249999994  0.249999472  0.704824995
     0.250000010  0.749999498  0.704824995
     0.749999994  0.249999472  0.704824995
     0.749999983  0.749999498  0.704824995
     0.000000000  0.000000000  0.807317968
     0.000000000  0.500000000  0.807317968
     0.500000000  0.000000000  0.807317968
     0.499999989  0.500000000  0.807317968
     0.249999994  0.250000000  0.807317968
     0.250000010  0.749999974  0.807317968
     0.749999994  0.250000000  0.807317968
     0.749999983  0.749999974  0.807317968

  ion indices of the primitive-cell ions
   primitive index   ion index
                 1           1
                 2           2
                 3           3
                 4           4
                 5           5
                 6           6
                 7           7
                 8           8
                 9           9
                10          10
                11          11
                12          12
                13          13
                14          14
                15          15
                16          16
                17          17
                18          18
                19          19
                20          20
                21          21
                22          22
                23          23
                24          24
                25          25
                26          26
                27          27
                28          28
                29          29
                30          30
                31          31
                32          32
                33          33
                34          34
                35          35
                36          36
                37          37
                38          38
                39          39
                40          40
                41          41
                42          42
                43          43
                44          44
                45          45
                46          46
                47          47
                48          48
                49          49
                50          50
                51          51
                52          52
                53          53
                54          54
                55          55
                56          56
                57          57
                58          58
                59          59
                60          60
                61          61
                62          62
                63          63
                64          64
                65          65
                66          66
                67          67
                68          68
                69          69
                70          70
                71          71
                72          72
                73          73
                74          74
                75          75
                76          76
                77          77
                78          78
                79          79
                80          80
                81          81
                82          82
                83          83
                84          84
                85          85
                86          86
                87          87
                88          88
                89          89
                90          90
                91          91
                92          92
                93          93
                94          94
                95          95
                96          96
                97          97
                98          98
                99          99
               100         100
               101         101
               102         102
               103         103
               104         104
               105         105
               106         106
               107         107
               108         108
               109         109
               110         110
               111         111
               112         112
               113         113
               114         114
               115         115
               116         116
               117         117
               118         118
               119         119
               120         120
               121         121
               122         122
               123         123
               124         124
               125         125
               126         126
               127         127
               128         128
               129         129
               130         130
               131         131
               132         132
               133         133
               134         134
               135         135
               136         136
               137         137
               138         138
               139         139
               140         140
               141         141
               142         142
               143         143
               144         144
               145         145
               146         146
               147         147
               148         148
               149         149
               150         150
               151         151
               152         152
               153         153
               154         154
               155         155
               156         156
               157         157
               158         158
               159         159
               160         160
               161         161
               162         162
               163         163
               164         164
               165         165
               166         166
               167         167
               168         168
               169         169
               170         170
               171         171
               172         172
               173         173
               174         174
               175         175
               176         176
               177         177
               178         178
               179         179
               180         180
               181         181
               182         182
               183         183
               184         184
               185         185
               186         186
               187         187
               188         188
               189         189
               190         190
               191         191
               192         192
               193         193
               194         194
               195         195
               196         196
               197         197
               198         198
               199         199
               200         200
               201         201
               202         202
               203         203
               204         204
               205         205
               206         206
               207         207
               208         208
               209         209
               210         210
               211         211
               212         212
               213         213
               214         214
               215         215
               216         216
               217         217
               218         218
               219         219
               220         220
               221         221
               222         222
               223         223
               224         224
               225         225
               226         226
               227         227
               228         228
               229         229
               230         230
               231         231
               232         232
               233         233
               234         234
               235         235
               236         236
               237         237
               238         238
               239         239
               240         240
               241         241
               242         242
               243         243
               244         244
               245         245
               246         246
               247         247
               248         248
               249         249
               250         250
               251         251
               252         252
               253         253
               254         254
               255         255
               256         256
               257         257
               258         258
               259         259
               260         260
               261         261
               262         262
               263         263
               264         264
               265         265
               266         266
               267         267
               268         268
               269         269
               270         270
               271         271
               272         272
               273         273
               274         274
               275         275
               276         276
               277         277
               278         278
               279         279
               280         280
               281         281
               282         282
               283         283
               284         284
               285         285
               286         286
               287         287
               288         288
               289         289
               290         290
               291         291
               292         292
               293         293
               294         294
               295         295
               296         296
               297         297
               298         298
               299         299
               300         300
               301         301
               302         302
               303         303
               304         304
               305         305
               306         306
               307         307
               308         308
               309         309
               310         310
               311         311
               312         312
               313         313
               314         314
               315         315
               316         316
               317         317
               318         318
               319         319
               320         320
               321         321
               322         322
               323         323
               324         324
               325         325

----------------------------------------------------------------------------------------

 
 
 KPOINTS: Automatic Mesh                          

Automatic generation of k-mesh.
 Grid dimensions read from file:
 generate k-points for:    3    3    1

 Generating k-lattice:

  Cartesian coordinates                     Fractional coordinates (reciprocal lattice)
     0.018456177  0.000005026 -0.000000000     0.333333333  0.000000000  0.000000000
     0.000000000  0.018454135  0.000000000     0.000000000  0.333333333  0.000000000
     0.000000000 -0.000000000  0.016003201     0.000000000  0.000000000  1.000000000

  Length of vectors
     0.018456178  0.018454135  0.016003201

  Shift w.r.t. Gamma in fractional coordinates (k-lattice)
     0.000000000  0.000000000  0.000000000

 
 Subroutine IBZKPT returns following result:
 ===========================================
 
 Found      5 irreducible k-points:
 
 Following reciprocal coordinates:
            Coordinates               Weight
  0.000000  0.000000  0.000000      1.000000
  0.333333  0.000000  0.000000      2.000000
  0.000000  0.333333  0.000000      2.000000
  0.333333  0.333333  0.000000      2.000000
 -0.333333  0.333333  0.000000      2.000000
 
 Following cartesian coordinates:
            Coordinates               Weight
  0.000000  0.000000  0.000000      1.000000
  0.018456  0.000005  0.000000      2.000000
  0.000000  0.018454  0.000000      2.000000
  0.018456  0.018459  0.000000      2.000000
 -0.018456  0.018449  0.000000      2.000000
 


--------------------------------------------------------------------------------------------------------




 Dimension of arrays:
   k-points           NKPTS =      5   k-points in BZ     NKDIM =      5   number of bands    NBANDS=    732
   number of dos      NEDOS =    301   number of ions     NIONS =    325
   non local maximal  LDIM  =      5   non local SUM 2l+1 LMDIM =     13
   total plane-waves  NPLWV = ******
   max r-space proj   IRMAX =   3336   max aug-charges    IRDMAX=  19845
   dimension x,y,z NGX =   100 NGY =  100 NGZ =  350
   dimension x,y,z NGXF=   200 NGYF=  200 NGZF=  700
   support grid    NGXF=   200 NGYF=  200 NGZF=  700
   ions per type =             143  39  47  72  24
   NGX,Y,Z   is equivalent  to a cutoff of   9.20,  9.20,  9.31 a.u.
   NGXF,Y,Z  is equivalent  to a cutoff of  18.41, 18.41, 18.62 a.u.

 SYSTEM =  PSC                                     
 POSCAR =   H  C  N  I Pb                          

 Startparameter for this run:
   NWRITE =      2    write-flag & timer
   PREC   = normal    normal or accurate (medium, high low for compatibility)
   ISTART =      0    job   : 0-new  1-cont  2-samecut
   ICHARG =      1    charge: 1-file 2-atom 10-const
   ISPIN  =      1    spin polarized calculation?
   LNONCOLLINEAR =      F non collinear calculations
   LSORBIT =      F    spin-orbit coupling
   INIWAV =      1    electr: 0-lowe 1-rand  2-diag
   LASPH  =      F    aspherical Exc in radial PAW
 Electronic Relaxation 1
   ENCUT  =  500.0 eV  36.75 Ry    6.06 a.u.  32.93 32.93113.93*2*pi/ulx,y,z
   ENINI  =  500.0     initial cutoff
   ENAUG  =  644.9 eV  augmentation charge cutoff
   NELM   =    600;   NELMIN=  2; NELMDL=  0     # of ELM steps 
   EDIFF  = 0.1E-03   stopping-criterion for ELM
   LREAL  =      T    real-space projection
   NLSPLINE    = F    spline interpolate recip. space projectors
   LCOMPAT=      F    compatible to vasp.4.4
   GGA_COMPAT  = F    GGA compatible to vasp.4.4-vasp.4.6
   LMAXPAW     = -100 max onsite density
   LMAXMIX     =    2 max onsite mixed and CHGCAR
   VOSKOWN=      0    Vosko Wilk Nusair interpolation
   ROPT   =   -0.00050  -0.00050  -0.00050  -0.00050
   ROPT   =   -0.00050
 Ionic relaxation
   EDIFFG = 0.1E-02   stopping-criterion for IOM
   NSW    =      0    number of steps for IOM
   NBLOCK =      1;   KBLOCK =      1    inner block; outer block 
   IBRION =     -1    ionic relax: 0-MD 1-quasi-New 2-CG
   NFREE  =      0    steps in history (QN), initial steepest desc. (CG)
   ISIF   =      2    stress and relaxation
   IWAVPR =     10    prediction:  0-non 1-charg 2-wave 3-comb
   ISYM   =      0    0-nonsym 1-usesym 2-fastsym
   LCORR  =      T    Harris-Foulkes like correction to forces

   POTIM  = 0.5000    time-step for ionic-motion
   TEIN   =    0.0    initial temperature
   TEBEG  =    0.0;   TEEND  =   0.0 temperature during run
   SMASS  =  -3.00    Nose mass-parameter (am)
   estimated Nose-frequenzy (Omega)   =  0.10E-29 period in steps = 0.13E+47 mass=  -0.745E-26a.u.
   SCALEE = 1.0000    scale energy and forces
   NPACO  =    256;   APACO  = 16.0  distance and # of slots for P.C.
   PSTRESS=    0.0 pullay stress

  Mass of Ions in am
   POMASS =   1.00 12.01 14.00126.90207.20
  Ionic Valenz
   ZVAL   =   1.00  4.00  5.00  7.00  4.00
  Atomic Wigner-Seitz radii
   RWIGS  =  -1.00 -1.00 -1.00 -1.00 -1.00
  virtual crystal weights 
   VCA    =   1.00  1.00  1.00  1.00  1.00
   NELECT =    1134.0000    total number of electrons
   NUPDOWN=      -1.0000    fix difference up-down

 DOS related values:
   EMIN   =  10.00;   EMAX   =-10.00  energy-range for DOS
   EFERMI =   0.00
   ISMEAR =     0;   SIGMA  =   0.05  broadening in eV -4-tet -1-fermi 0-gaus

 Electronic relaxation 2 (details)
   IALGO  =     38    algorithm
   LDIAG  =      T    sub-space diagonalisation (order eigenvalues)
   LSUBROT=      F    optimize rotation matrix (better conditioning)
   TURBO    =      0    0=normal 1=particle mesh
   IRESTART =      0    0=no restart 2=restart with 2 vectors
   NREBOOT  =      0    no. of reboots
   NMIN     =      0    reboot dimension
   EREF     =   0.00    reference energy to select bands
   IMIX   =      4    mixing-type and parameters
     AMIX     =   0.40;   BMIX     =  0.01
     AMIX_MAG =   1.60;   BMIX_MAG =  0.01
     AMIN     =   0.01
     WC   =   100.;   INIMIX=   1;  MIXPRE=   1;  MAXMIX= -45

 Intra band minimization:
   WEIMIN = 0.0000     energy-eigenvalue tresh-hold
   EBREAK =  0.34E-07  absolut break condition
   DEPER  =   0.30     relativ break condition  

   TIME   =   0.40     timestep for ELM

  volume/ion in A,a.u.               =      62.72       423.28
  Fermi-wavevector in a.u.,A,eV,Ry     =   0.624944  1.180972  5.313816  0.390554
  Thomas-Fermi vector in A             =   1.685677
 
 Write flags
   LWAVE        =      F    write WAVECAR
   LDOWNSAMPLE  =      F    k-point downsampling of WAVECAR
   LCHARG       =      T    write CHGCAR
   LVTOT        =      T    write LOCPOT, total local potential
   LVHAR        =      F    write LOCPOT, Hartree potential only
   LELF         =      F    write electronic localiz. function (ELF)
   LORBIT       =      0    0 simple, 1 ext, 2 COOP (PROOUT), +10 PAW based schemes


 Dipole corrections
   LMONO  =      F    monopole corrections only (constant potential shift)
   LDIPOL =      T    correct potential (dipole corrections)
   IDIPOL =      3    1-x, 2-y, 3-z, 4-all directions 
   EPSILON=  1.0000000 bulk dielectric constant

 Exchange correlation treatment:
   GGA     =    --    GGA type
   LEXCH   =     8    internal setting for exchange type
   VOSKOWN=      0    Vosko Wilk Nusair interpolation
   LHFCALC =     F    Hartree Fock is set to
   LHFONE  =     F    Hartree Fock one center treatment
   AEXX    =    0.0000 exact exchange contribution

 Linear response parameters
   LEPSILON=     F    determine dielectric tensor
   LRPA    =     F    only Hartree local field effects (RPA)
   LNABLA  =     F    use nabla operator in PAW spheres
   LVEL    =     F    velocity operator in full k-point grid
   LINTERFAST=   F  fast interpolation
   KINTER  =     0    interpolate to denser k-point grid
   CSHIFT  =0.1000    complex shift for real part using Kramers Kronig
   OMEGAMAX=  -1.0    maximum frequency
   DEG_THRESHOLD= 0.2000000E-02 threshold for treating states as degnerate
   RTIME   =   -0.100 relaxation time in fs
  (WPLASMAI=    0.000 imaginary part of plasma frequency in eV, 0.658/RTIME)
   DFIELD  = 0.0000000 0.0000000 0.0000000 field for delta impulse in time
 
 Orbital magnetization related:
   ORBITALMAG=     F  switch on orbital magnetization
   LCHIMAG   =     F  perturbation theory with respect to B field
   DQ        =  0.001000  dq finite difference perturbation B field
   LLRAUG    =     F  two centre corrections for induced B field



--------------------------------------------------------------------------------------------------------


 Static calculation
 charge density and potential will be updated during run
 non-spin polarized calculation
 Variant of blocked Davidson
 Davidson routine will perform the subspace rotation
 perform sub-space diagonalisation
    after iterative eigenvector-optimisation
 modified Broyden-mixing scheme, WC =      100.0
 initial mixing is a Kerker type mixing with AMIX =  0.4000 and BMIX =      0.0100
 Hartree-type preconditioning will be used
 using additional bands           165
 real space projection scheme for non local part
[...]
     13.54561      0.00000     45.35368        -0.000388     -0.005169      0.009948
     13.54315      9.03140     45.35368        -0.009904     -0.003223      0.016480
     14.23125      9.18982     32.34786         0.000842     -0.179841      0.279366
     15.74675      9.12671     33.24201        -0.334101      0.016050      0.272165
     13.57614     11.31855     33.62581         0.304167      0.053559      0.032375
     13.86312     11.30320     35.35543        -0.092088     -0.020227     -0.079941
     12.28226      8.18380     34.78984         0.132418      0.408131     -0.299401
     12.08426      9.90830     35.17026         0.053248     -0.100798     -0.077316
     14.42429      7.74282     35.63655         0.011441      0.306707      0.010567
     15.60459      9.05239     35.66701         0.336950      0.025199      0.158518
     15.56064      6.85145     33.83252         0.040616      0.192234      0.066121
     13.82633      6.78237     33.54998         0.094935      0.068255     -0.046116
     14.05194      6.84952     31.18970        -0.279961      0.121306     -0.014713
     15.65449      7.56835     31.18819        -0.286930     -0.394985      0.432190
     16.11574     11.02028     33.28537         0.088037      0.109311      0.051080
     16.31662     11.01610     35.06850        -0.044217     -0.008451     -0.176207
     15.66373     12.44254     34.24185         0.013983      0.121826     -0.020489
     10.77188      9.42504     33.23943        -0.393140     -0.031789     -0.076357
     12.09999      8.74567     32.29590         0.039071     -0.108076      0.036110
     12.05552     10.48757     32.67126         0.001264     -0.071850      0.085846
     13.00797      8.73220     37.24326        -0.194435     -0.072900      0.107740
     13.60105     10.39205     37.03035         0.245263     -0.375546     -0.023183
     14.63761      9.16617     37.83531        -0.357761      0.077019     -0.412447
     15.05711      4.73514     32.29338         0.067816      0.247508     -0.152576
     15.30136      5.01943     30.59171        -0.005271      0.106095     -0.009767
     16.93976      3.11705     31.36945        -0.251620     -0.355930     -0.097373
     17.57903      7.29587     32.17393         0.063379     -0.203929      0.046568
      1.30062      2.70034     31.48096         0.111074     -0.057063     -0.000754
      1.94127      6.87079     32.31048         0.042883      0.146859      0.112344
      2.85293      4.60616     31.98549         0.148193     -0.010198     -0.075745
     18.00761      4.10412     35.06046        -0.198572     -0.597384     -0.489297
      0.57257     13.94848     35.08132        -0.381026     -0.141841      0.565407
      9.28696      4.76126     35.05409         0.490672     -0.184557      0.113905
      9.02172     13.92759     34.93199         0.451557     -0.210734      0.110730
      4.29580      9.20240     34.86529        -0.352992     -0.718104      0.204281
      4.74411     17.86699     34.83543        -0.068644     -0.042028      0.033269
     13.90044     17.80722     35.10767        -0.020995     -0.024365     -0.197568
      0.13310      4.37882     40.76845         1.313473     -1.309658     -0.601794
      0.29757     13.80965     40.80065         0.627925     -0.700403      0.104903
      9.10524      4.60147     40.63282         0.561533     -0.821528      0.323796
      8.82641     13.71026     40.60066         0.692705     -0.656632     -0.134701
      4.46424      9.00879     40.58341        -0.120847     -0.307616     -0.039191
      4.59930     17.98719     40.59484         0.010936      0.160946     -0.333963
     13.44540      9.25181     40.69484         0.739322      0.754231      0.224758
     13.57612     18.03650     40.59568        -0.329633     -0.229097      0.064375
      9.02897      4.51561     46.44552         0.009698      0.008734      0.037927
      9.02651     13.54701     46.44552         0.018780     -0.005196      0.048756
     18.05937      4.51561     46.44552         0.003688      0.012804      0.073758
     18.05691     13.54701     46.44552         0.024904     -0.006818      0.045317
      4.51521      0.00002     46.44421        -0.006730     -0.007705      0.064015
      4.51275      9.03142     46.44421        -0.005008     -0.004243      0.045890
     13.54561      0.00002     46.44421         0.001978      0.001000      0.042066
     13.54315      9.03142     46.44421        -0.027969     -0.026853      0.045971
     17.05495      5.23426     31.74072         0.649430     -0.310532      0.142539
     17.60877      3.94095     31.57215         0.130427      0.450297     -0.034963
     17.94415      6.27134     32.03202         0.204328      0.349960     -0.110904
      0.92778      3.71187     31.62827        -0.687630     -0.021073      0.038093
      1.26966      6.04326     32.10356        -0.536912      0.229655     -0.022713
      1.78380      4.77647     31.89351         0.420297     -0.212262      0.105629
     14.70195      8.76209     33.25437         0.310041      0.782487     -0.293446
     14.24350     10.91591     34.40239        -0.290531      0.208939     -0.021415
     12.48532      9.21347     34.41413        -0.074169     -0.254961     -0.065988
     14.53795      8.84054     35.71828         0.080208     -0.350224      0.226699
     14.75822      7.26130     33.20306        -0.384829     -0.538807     -0.419852
     15.00045      6.83183     31.73275         0.498253      0.160801     -0.198255
     15.67766     11.34682     34.23518         0.100332      0.078157      0.015084
     11.84529      9.48171     33.06542        -0.002458      0.047899      0.055703
     13.89595      9.32338     37.01959         0.378546      0.267753     -0.066619
     15.57551      5.42006     31.58344        -0.433946     -0.362231      0.053829
      1.07999      4.14292     35.70596        -0.278574      0.636337      0.621954
      0.71334     12.78565     35.66472         0.079563     -0.500275      0.053600
      9.95014      3.73717     35.54951         0.686013      0.097690     -0.565945
      9.96361     13.15508     35.43453         0.074387      0.431759     -0.105877
      8.12156      5.15531     35.47451        -0.982674     -0.160768      0.481361
      7.76417     13.88432     35.29554        -0.188514      0.197417     -0.411337
     16.87452      4.62295     35.45898         0.200080      0.378489      0.238881
     17.68654     14.80805     35.36833        -0.452985      0.453903     -0.013851
      4.40218      8.12639     35.61219        -0.530642     -0.179528     -0.740307
      3.50296     18.01710     35.21749        -0.985700     -0.755097     -0.785515
     12.65567     17.59695     35.43992        -0.230733     -1.172964     -0.576409
      5.74703      0.48987     35.31749         1.039712     -0.321584     -0.541090
      4.89258     10.32769     35.11777        -0.058406      1.605376     -1.264610
     14.62316      0.72690     35.57131         1.465297      0.163879     -0.735960
      1.04954      3.45227     41.02339        -0.893585      0.901346      0.021143
      0.96453     12.80042     41.33529        -0.786312      0.557121     -0.065466
      9.80936      3.60513     41.13533        -0.463125      0.666233     -0.384973
      9.53481     12.92077     41.38479         0.028680     -0.052850     -0.901467
      3.83516      8.03258     41.18095        -0.477390     -0.615761     -0.285626
      3.64408     17.22432     41.03461        -1.020488     -0.956432     -0.291921
     12.76689      8.29621     41.26833        -0.484533     -0.395099     -0.675681
     12.64049     17.31475     41.15353        -0.517698     -0.497726     -0.287744
      8.18016      5.26862     41.25637        -0.450019      0.114549      0.766880
      7.99878     14.62444     40.99916        -0.440155      0.457499      0.169698
     17.51187      5.04263     41.64538        -0.868260      0.844446      0.810362
     17.27165     14.35617     41.28380         0.413788      0.120597     -0.508769
      5.36887      0.69759     41.31414         1.037192      0.862183     -0.527493
      5.20555      9.90670     41.16670         0.378035      0.425065      0.399370
     14.37096      0.80758     41.21151         0.102457      0.208605      0.444581
     14.34679     10.03089     41.28921        -0.628277     -0.692817     -0.410247
      0.82731      3.68697     47.03596         0.019912     -0.027528     -0.107218
      0.82485     12.71837     47.03596         0.009323     -0.011745     -0.088892
      9.85771      3.68697     47.03596         0.019866     -0.026236     -0.091029
      9.85525     12.71837     47.03596         0.015198     -0.010041     -0.086191
      3.68432      8.20234     47.03465        -0.007532     -0.008945     -0.075205
      3.68186     17.23373     47.03465        -0.003026     -0.001539     -0.076719
     12.71472      8.20234     47.03465         0.009190      0.006187     -0.075878
     12.71226     17.23373     47.03465        -0.010594     -0.014498     -0.070462
      8.20068      5.34457     47.03603        -0.018395      0.013113     -0.095806
      8.19822     14.37597     47.03603        -0.023932      0.021782     -0.094005
     17.23108      5.34457     47.03603        -0.011865      0.008070     -0.110354
     17.22862     14.37597     47.03603        -0.026312      0.018751     -0.085014
      5.34365      0.82909     47.03465         0.013121      0.012215     -0.085841
      5.34119      9.86049     47.03465         0.011306      0.013029     -0.070562
     14.37405      0.82909     47.03465         0.010321      0.007939     -0.074518
     14.37159      9.86049     47.03465         0.026474      0.031954     -0.077648
     13.99113      9.42589     34.43523         0.161915     -0.453388      0.182588
      9.12660     17.77471     34.61760        -0.027711      0.015100      0.010662
      8.22345      8.63122     34.64077         0.106705      0.076817      0.030784
     18.03234      0.19816     34.47371        -0.043184      0.039123      0.072794
      0.65279      8.87374     34.83669        -0.133774      0.044430     -0.149826
      4.41588      4.44728     34.73819         0.144349      0.000995     -0.013029
      4.24519     13.93653     34.45658         0.032422     -0.047519      0.055483
     13.44423      4.07647     34.65483        -0.101315     -0.036137      0.131989
     12.91342     14.28901     34.07889         0.103246      0.055160      0.300952
      0.02632     17.99610     40.90974        -0.016345     -0.060068     -0.009259
      0.03003      9.11408     40.99320         0.006905     -0.020981      0.108838
      8.96539      0.08787     40.91684         0.014587     -0.008398      0.102382
      8.98156      9.04227     40.93106        -0.008695     -0.014989     -0.064113
      4.60848      4.31459     40.97612         0.032397      0.013688      0.073194
      4.50984     13.59893     40.88150         0.008531     -0.028530     -0.000906
     13.41144      4.57855     40.97463        -0.000290     -0.011760     -0.078400
     13.64183     13.63203     40.84614         0.002155     -0.007538      0.092432
      2.63198      1.90042     38.12191         0.006901      0.034595     -0.076338
      2.67760     10.95755     38.10537        -0.040218      0.080103     -0.020139
     11.68388      1.92158     38.14048        -0.089430      0.019255     -0.049351
     11.01719     11.56020     38.40728         0.234904     -0.221195     -0.193769
      6.54339      7.01026     38.29087         0.058810     -0.030514      0.038869
      6.51556     16.04379     37.99527         0.081681      0.032376     -0.030287
     16.07735      6.52345     38.50417        -0.085191      0.175676     -0.231813
     15.57454     16.06478     38.02631         0.043339     -0.008047     -0.037418
      2.12389      6.53456     38.31995         0.008962     -0.031656     -0.070974
      2.11922     15.77734     38.02998        -0.071178      0.013287     -0.056571
     11.14091      6.68577     37.88963        -0.018418     -0.022745      0.024937
     11.20028     15.64895     38.32217        -0.124061      0.063184     -0.119696
      7.16169      2.53853     37.99809         0.004657      0.033538     -0.047426
      6.89685     11.52624     37.93829        -0.041679     -0.008421     -0.026346
     16.01268      2.46923     38.32986        -0.017011      0.028805      0.016267
     16.51790     11.99989     38.38152        -0.160400     -0.227994     -0.324173
      0.00000      0.00000     47.17356         0.000457      0.001935      0.390024
     -0.00246      9.03140     47.17356        -0.004031      0.001987      0.536694
      9.03040      0.00000     47.17356        -0.003296     -0.001560      0.448166
      9.02794      9.03140     47.17356        -0.002404      0.001920      0.498396
      4.51398      4.51570     47.17425        -0.000811     -0.008782      0.492768
      4.51152     13.54710     47.17425         0.000700      0.004644      0.383300
     13.54438      4.51570     47.17425         0.002670     -0.003786      0.459413
     13.54192     13.54710     47.17425         0.002223     -0.000049      0.259952
      2.45192      2.06295     44.04013         0.015342     -0.059878      0.038537
      2.44946     11.09435     44.04013         0.069661     -0.037671      0.079984
     11.48232      2.06295     44.04013        -0.000856     -0.061414     -0.016818
     11.47986     11.09435     44.04013         0.043068      0.046988     -0.027989
      6.57602      6.96845     44.04013        -0.070715     -0.016108     -0.003380
      6.57356     15.99985     44.04013        -0.006265      0.011349      0.013922
     15.60642      6.96845     44.04013        -0.058527      0.046168     -0.014456
     15.60396     15.99985     44.04013        -0.040166      0.009251      0.024506
      2.06108      6.57881     44.04000         0.025861     -0.039964      0.010941
      2.05862     15.61021     44.04000         0.034522      0.059146     -0.014757
     11.09148      6.57881     44.04000         0.018821     -0.002714      0.016919
     11.08902     15.61021     44.04000        -0.007300     -0.006957     -0.027110
      6.96686      2.45259     44.04007         0.064769      0.032913      0.025624
      6.96440     11.48399     44.04007        -0.040578      0.026606     -0.018423
     15.99726      2.45259     44.04007         0.018713     -0.008703      0.007176
     15.99481     11.48399     44.04007         0.056405      0.113961      0.035110
      2.43163      2.08322     50.06849        -0.003388     -0.023922      0.020454
      2.42917     11.11462     50.06849         0.019710      0.001894      0.023101
     11.46203      2.08322     50.06849         0.006314     -0.016107      0.022846
     11.45957     11.11462     50.06849         0.029948      0.010201      0.022773
      6.59631      6.94818     50.06849        -0.009861      0.009826      0.023851
      6.59385     15.97958     50.06849        -0.012519      0.008063      0.021586
     15.62671      6.94818     50.06849        -0.013687      0.005083      0.022055
     15.62425     15.97958     50.06849        -0.018001      0.002825      0.021596
      2.08113      6.59901     50.06905        -0.010435     -0.011574      0.023156
      2.07867     15.63041     50.06905        -0.013302     -0.006639      0.021648
     11.11153      6.59901     50.06905        -0.006833     -0.012569      0.024198
     11.10907     15.63041     50.06905         0.003146     -0.023511      0.021722
      6.94681      2.43239     50.06905         0.016650      0.000049      0.021855
      6.94435     11.46379     50.06905         0.001038      0.020913      0.024096
     15.97721      2.43239     50.06905         0.019479     -0.000471      0.022288
     15.97475     11.46379     50.06905        -0.011139      0.031932      0.021704
     17.97202      0.11528     37.78740         0.098783     -0.004960     -0.055457
      0.15691      9.11016     37.87929        -0.016090      0.015472     -0.020954
      9.07952     17.97117     37.74457         0.015204     -0.017706     -0.006625
      8.94231      9.04014     37.67141        -0.045201     -0.041952      0.043638
      4.55803      4.49914     37.85243        -0.020081      0.007888     -0.011513
      4.37883     13.68420     37.72594         0.019756     -0.059189     -0.074734
     13.57233      4.62123     37.87267        -0.018129     -0.086269     -0.058717
     13.52977     13.64443     37.80951         0.029201     -0.031380     -0.133499
      0.00001      0.00001     44.04300        -0.036483     -0.073145      0.149540
     -0.00245      9.03141     44.04300         0.091006     -0.068189      0.144882
      9.03041      0.00001     44.04300         0.028397     -0.019769      0.082962
      9.02795      9.03141     44.04300         0.052018     -0.022147     -0.002951
      4.51397      4.51569     44.04275        -0.013584      0.067535      0.185327
      4.51151     13.54709     44.04275        -0.063909     -0.028231      0.100386
     13.54437      4.51569     44.04275        -0.047518      0.044395      0.235189
     13.54191     13.54709     44.04275        -0.102335      0.021768      0.180430
      0.00000      0.00000     50.44728         0.008204      0.014047     -0.620382
     -0.00246      9.03140     50.44728         0.007344     -0.015641     -0.659126
      9.03040      0.00000     50.44728        -0.006664      0.016492     -0.635704
      9.02794      9.03140     50.44728        -0.009510     -0.015430     -0.653379
      4.51397      4.51570     50.44728         0.002773      0.013026     -0.646849
      4.51151     13.54710     50.44728         0.003260     -0.013543     -0.620738
     13.54437      4.51570     50.44728        -0.004691      0.011723     -0.640538
     13.54191     13.54710     50.44728        -0.001840     -0.012638     -0.586395
 -----------------------------------------------------------------------------------
    total drift:                                0.032583      0.064664      0.643465


--------------------------------------------------------------------------------------------------------



  FREE ENERGIE OF THE ION-ELECTRON SYSTEM (eV)
  ---------------------------------------------------
  free  energy   TOTEN  =     -1574.56455424 eV

  energy  without entropy=    -1574.56455424  energy(sigma->0) =    -1574.56455424
 


--------------------------------------------------------------------------------------------------------


    POTLOK:  cpu time    0.5061: real time    0.5060


--------------------------------------------------------------------------------------------------------


     LOOP+:  cpu time  285.4583: real time  286.1143
 vacuum level on the upper side and lower side of the slab         2.271         1.652
    4ORBIT:  cpu time    0.0000: real time    0.0000

 total amount of memory used by VASP MPI-rank0  8653571. kBytes
=======================================================================

   base      :      30000. kBytes
   nonlr-proj:      53609. kBytes
   fftplans  :     249280. kBytes
   grid      :     701440. kBytes
   one-center:       2636. kBytes
   wavefun   :    7616606. kBytes
 
  
  
 General timing and accounting informations for this job:
 ========================================================
  
                  Total CPU time used (sec):      496.364
                            User time (sec):      403.330
                          System time (sec):       93.034
                         Elapsed time (sec):      499.740
  
                   Maximum memory used (kb):    10327668.
                   Average memory used (kb):          N/A
  
                          Minor page faults:      3657236
                          Major page faults:           12
                 Voluntary context switches:        10967
