 vasp.6.2.1 16May21 (build Nov 15 2021 14:57:28) complex                         
 executed on             LinuxPGI date 2023.07.30  08:24:57
 running on    4 total cores
 distrk:  each k-point on    4 cores,    1 groups
 distr:  one band on NCORE=   1 cores,    4 groups


--------------------------------------------------------------------------------------------------------


 INCAR:
   SYSTEM = PSC
   ISTART = 0
   ICHARG = 2
   PREC = Normal
   ENCUT = 500
   GGA_COMPAT = F
   NELM = 600
   ISYM = 0
   LREAL = Auto
   ISMEAR = 0
   SIGMA = 0.05
   AMIN = 0.01
   BMIX = 0.01
   LVTOT = T
   LWAVE = F
   LDIPOL = T
   IDIPOL = 3
   LVDW = T
   IVDW = 12

 POTCAR:    PAW_PBE H 15Jun2001                   
 POTCAR:    PAW_PBE C 08Apr2002                   
 POTCAR:    PAW_PBE N 08Apr2002                   
 POTCAR:    PAW_PBE I 08Apr2002                   
 POTCAR:    PAW_PBE Pb 08Apr2002                  
 WARNING: For LVTOT=.TRUE., VASP.5.x writes the TOTAL local potential to the
     file LOCPOT. If you want only the Hartree contributions, use LVHAR=.TRUE.
     instead. 

 POTCAR:    PAW_PBE H 15Jun2001                   
   SHA256 =  030f79b5d3ab3cf0e668861823c8fb652ff669f3e15e46930bd03bfd63a607b6 H/POTCAR              
   COPYR  = (c) Copyright 15Jun2001 Georg Kresse                                                    
   COPYR  = This file is part of the software VASP. Any use, copying, and all other rights are regul
   COPYR  = If you do not have a valid VASP license, you may not use, copy or distribute this file. 
   VRHFIN =H: ultrasoft test                                                                        
   LEXCH  = PE                                                                                      
   EATOM  =    12.4884 eV,    0.9179 Ry                                                             
                                                                                                    
   TITEL  = PAW_PBE H 15Jun2001                                                                     
   LULTRA =        F    use ultrasoft PP ?                                                          
   IUNSCR =        0    unscreen: 0-lin 1-nonlin 2-no                                               
   RPACOR =    0.000    partial core radius                                                         
   POMASS =    1.000; ZVAL   =    1.000    mass and valenz                                          
   RCORE  =    1.100    outmost cutoff radius                                                       
   RWIGS  =    0.700; RWIGS  =    0.370    wigner-seitz radius (au A)                               
   ENMAX  =  250.000; ENMIN  =  200.000 eV                                                          
   RCLOC  =    0.701    cutoff for local pot                                                        
   LCOR   =        T    correct aug charges                                                         
   LPAW   =        T    paw PP                                                                      
   EAUG   =  400.000                                                                                
   RMAX   =    1.123    core radius for proj-oper                                                   
   RAUG   =    1.200    factor for augmentation sphere                                              
   RDEP   =    1.112    radius for radial grids                                                     
   RDEPT  =    0.926    core radius for aug-charge                                                  
                                                                                                    
   Atomic configuration                                                                             
    2 entries                                                                                       
     n  l   j            E        occ.                                                              
     1  0  0.50        -6.4927   1.0000                                                             
     2  1  0.50        -3.4015   0.0000                                                             
   Description                                                                                      
     l       E           TYP  RCUT    TYP  RCUT                                                     
     0     -6.4927494     23  1.100                                                                 
     0      6.8029130     23  1.100                                                                 
     1     -4.0817478     23  1.100                                                                 
  local pseudopotential read in
  atomic valenz-charges read in
  non local Contribution for L=            0  read in
    real space projection operators read in
  non local Contribution for L=            0  read in
    real space projection operators read in
  non local Contribution for L=            1  read in
    real space projection operators read in
    PAW grid and wavefunctions read in
 
   number of l-projection  operators is LMAX  =            3
   number of lm-projection operators is LMMAX =            5
 
 POTCAR:    PAW_PBE C 08Apr2002                   
   SHA256 =  253f7b50bb8d59471dbedb8285d89021f4a42ed1a2c5d38a03a736e69125dd95 C/POTCAR              
   COPYR  = (c) Copyright 08Apr2002 Georg Kresse                                                    
   COPYR  = This file is part of the software VASP. Any use, copying, and all other rights are regul
   COPYR  = If you do not have a valid VASP license, you may not use, copy or distribute this file. 
   VRHFIN =C: s2p2                                                                                  
   LEXCH  = PE                                                                                      
   EATOM  =   147.1560 eV,   10.8157 Ry                                                             
                                                                                                    
   TITEL  = PAW_PBE C 08Apr2002                                                                     
   LULTRA =        F    use ultrasoft PP ?                                                          
   IUNSCR =        1    unscreen: 0-lin 1-nonlin 2-no                                               
   RPACOR =    1.200    partial core radius                                                         
   POMASS =   12.011; ZVAL   =    4.000    mass and valenz                                          
   RCORE  =    1.500    outmost cutoff radius                                                       
   RWIGS  =    1.630; RWIGS  =    0.863    wigner-seitz radius (au A)                               
   ENMAX  =  400.000; ENMIN  =  300.000 eV                                                          
   ICORE  =        2    local potential                                                             
   LCOR   =        T    correct aug charges                                                         
   LPAW   =        T    paw PP                                                                      
   EAUG   =  644.873                                                                                
   DEXC   =    0.000                                                                                
   RMAX   =    1.529    core radius for proj-oper                                                   
   RAUG   =    1.300    factor for augmentation sphere                                              
   RDEP   =    1.501    radius for radial grids                                                     
   RDEPT  =    1.300    core radius for aug-charge                                                  
                                                                                                    
   Atomic configuration                                                                             
    4 entries                                                                                       
     n  l   j            E        occ.                                                              
     1  0  0.50      -273.3789   2.0000                                                             
     2  0  0.50       -13.7508   2.0000                                                             
     2  1  0.50        -5.2854   2.0000                                                             
     3  2  1.50        -5.4423   0.0000                                                             
   Description                                                                                      
     l       E           TYP  RCUT    TYP  RCUT                                                     
     0    -13.7508458     23  1.200                                                                 
     0     -8.2022199     23  1.200                                                                 
     1     -5.2854383     23  1.500                                                                 
     1     34.0145650     23  1.500                                                                 
     2     -5.4423304      7  1.500                                                                 
  local pseudopotential read in
  partial core-charges read in
  partial kinetic energy density read in
  atomic valenz-charges read in
  non local Contribution for L=            0  read in
    real space projection operators read in
  non local Contribution for L=            0  read in
    real space projection operators read in
  non local Contribution for L=            1  read in
    real space projection operators read in
  non local Contribution for L=            1  read in
    real space projection operators read in
    PAW grid and wavefunctions read in
 
   number of l-projection  operators is LMAX  =            4
   number of lm-projection operators is LMMAX =            8
 
 POTCAR:    PAW_PBE N 08Apr2002                   
   SHA256 =  e053789ff3a61a86a1b75d8a110fcc91f86041011e7b0817c7c99e4e8a6349d7 N/POTCAR              
   COPYR  = (c) Copyright 08Apr2002 Georg Kresse                                                    
   COPYR  = This file is part of the software VASP. Any use, copying, and all other rights are regul
   COPYR  = If you do not have a valid VASP license, you may not use, copy or distribute this file. 
   VRHFIN =N: s2p3                                                                                  
   LEXCH  = PE                                                                                      
   EATOM  =   264.5486 eV,   19.4438 Ry                                                             
                                                                                                    
   TITEL  = PAW_PBE N 08Apr2002                                                                     
   LULTRA =        F    use ultrasoft PP ?                                                          
   IUNSCR =        1    unscreen: 0-lin 1-nonlin 2-no                                               
   RPACOR =    1.200    partial core radius                                                         
   POMASS =   14.001; ZVAL   =    5.000    mass and valenz                                          
   RCORE  =    1.500    outmost cutoff radius                                                       
   RWIGS  =    1.400; RWIGS  =    0.741    wigner-seitz radius (au A)                               
   ENMAX  =  400.000; ENMIN  =  300.000 eV                                                          
   ICORE  =        2    local potential                                                             
   LCOR   =        T    correct aug charges                                                         
   LPAW   =        T    paw PP                                                                      
   EAUG   =  627.112                                                                                
   DEXC   =    0.000                                                                                
   RMAX   =    1.529    core radius for proj-oper                                                   
   RAUG   =    1.300    factor for augmentation sphere                                              
   RDEP   =    1.514    radius for radial grids                                                     
   RDEPT  =    1.338    core radius for aug-charge                                                  
                                                                                                    
   Atomic configuration                                                                             
    4 entries                                                                                       
     n  l   j            E        occ.                                                              
     1  0  0.50      -384.7179   2.0000                                                             
     2  0  0.50       -18.5828   2.0000                                                             
     2  1  0.50        -7.0898   3.0000                                                             
     3  2  1.50        -6.8029   0.0000                                                             
   Description                                                                                      
     l       E           TYP  RCUT    TYP  RCUT                                                     
     0    -18.5828119     23  1.200                                                                 
     0    -13.5018863     23  1.200                                                                 
     1     -7.0897853     23  1.500                                                                 
     1      9.5240782     23  1.500                                                                 
     2     -6.8029130      7  1.500                                                                 
  local pseudopotential read in
  partial core-charges read in
  partial kinetic energy density read in
  atomic valenz-charges read in
  non local Contribution for L=            0  read in
    real space projection operators read in
  non local Contribution for L=            0  read in
    real space projection operators read in
  non local Contribution for L=            1  read in
    real space projection operators read in
  non local Contribution for L=            1  read in
    real space projection operators read in
    PAW grid and wavefunctions read in
 
   number of l-projection  operators is LMAX  =            4
   number of lm-projection operators is LMMAX =            8
 
 POTCAR:    PAW_PBE I 08Apr2002                   
   SHA256 =  e40f3f59b681c1fc3e3091736183c4589116986673d2b852a5012aec72758799 I/POTCAR              
   COPYR  = (c) Copyright 08Apr2002 Georg Kresse                                                    
   COPYR  = This file is part of the software VASP. Any use, copying, and all other rights are regul
   COPYR  = If you do not have a valid VASP license, you may not use, copy or distribute this file. 
   VRHFIN =I : s2p5                                                                                 
   LEXCH  = PE                                                                                      
   EATOM  =   315.8678 eV,   23.2156 Ry                                                             
                                                                                                    
   TITEL  = PAW_PBE I 08Apr2002                                                                     
   LULTRA =        F    use ultrasoft PP ?                                                          
   IUNSCR =        1    unscreen: 0-lin 1-nonlin 2-no                                               
   RPACOR =    2.200    partial core radius                                                         
   POMASS =  126.904; ZVAL   =    7.000    mass and valenz                                          
   RCORE  =    2.300    outmost cutoff radius                                                       
   RWIGS  =    2.810; RWIGS  =    1.487    wigner-seitz radius (au A)                               
   ENMAX  =  175.647; ENMIN  =  131.735 eV                                                          
   ICORE  =        3    local potential                                                             
   LCOR   =        T    correct aug charges                                                         
   LPAW   =        T    paw PP                                                                      
   EAUG   =  370.139                                                                                
   DEXC   =    0.000                                                                                
   RMAX   =    2.359    core radius for proj-oper                                                   
   RAUG   =    1.300    factor for augmentation sphere                                              
   RDEP   =    2.392    radius for radial grids                                                     
   RDEPT  =    2.170    core radius for aug-charge                                                  
                                                                                                    
   Atomic configuration                                                                             
   13 entries                                                                                       
     n  l   j            E        occ.                                                              
     1  0  0.50    -32976.3739   2.0000                                                             
     2  0  0.50     -5094.5933   2.0000                                                             
     2  1  1.50     -4572.0131   6.0000                                                             
     3  0  0.50     -1028.2813   2.0000                                                             
     3  1  1.50      -859.0250   6.0000                                                             
     3  2  2.50      -605.7620  10.0000                                                             
     4  0  0.50      -180.5540   2.0000                                                             
     4  1  1.50      -127.5306   6.0000                                                             
     4  2  2.50       -50.2720  10.0000                                                             
     5  0  0.50       -17.4058   2.0000                                                             
     5  1  0.50        -7.0851   5.0000                                                             
     5  2  1.50        -7.0750   0.0000                                                             
     4  3  2.50        -7.0750   0.0000                                                             
   Description                                                                                      
     l       E           TYP  RCUT    TYP  RCUT                                                     
     0    -17.4058016     23  2.300                                                                 
     0    -18.7663842     23  2.300                                                                 
     1     -7.0850686     23  2.300                                                                 
     1     -4.2150896     23  2.300                                                                 
     2     -7.0750295     23  2.300                                                                 
     3     -1.3605826     23  2.300                                                                 
  local pseudopotential read in
  partial core-charges read in
  partial kinetic energy density read in
  atomic valenz-charges read in
  non local Contribution for L=            0  read in
    real space projection operators read in
  non local Contribution for L=            0  read in
    real space projection operators read in
  non local Contribution for L=            1  read in
    real space projection operators read in
  non local Contribution for L=            1  read in
    real space projection operators read in
  non local Contribution for L=            2  read in
    real space projection operators read in
    PAW grid and wavefunctions read in
 
   number of l-projection  operators is LMAX  =            5
   number of lm-projection operators is LMMAX =           13
 
 POTCAR:    PAW_PBE Pb 08Apr2002                  
   SHA256 =  797118a27cf1bcd06b9881c67a26cdde129e3cd1a551dd4a281f9681ce847303 Pb/POTCAR             
   COPYR  = (c) Copyright 08Apr2002 Georg Kresse                                                    
   COPYR  = This file is part of the software VASP. Any use, copying, and all other rights are regul
   COPYR  = If you do not have a valid VASP license, you may not use, copy or distribute this file. 
   VRHFIN =Pb:                                                                                      
   LEXCH  = PE                                                                                      
   EATOM  =    96.9868 eV,    7.1283 Ry                                                             
                                                                                                    
   TITEL  = PAW_PBE Pb 08Apr2002                                                                    
   LULTRA =        F    use ultrasoft PP ?                                                          
   IUNSCR =        1    unscreen: 0-lin 1-nonlin 2-no                                               
   RPACOR =    2.200    partial core radius                                                         
   POMASS =  207.200; ZVAL   =    4.000    mass and valenz                                          
   RCORE  =    3.100    outmost cutoff radius                                                       
   RWIGS  =    3.260; RWIGS  =    1.725    wigner-seitz radius (au A)                               
   ENMAX  =   97.973; ENMIN  =   73.480 eV                                                          
   ICORE  =        3    local potential                                                             
   LCOR   =        T    correct aug charges                                                         
   LPAW   =        T    paw PP                                                                      
   EAUG   =  234.873                                                                                
   DEXC   =    0.000                                                                                
   RMAX   =    3.158    core radius for proj-oper                                                   
   RAUG   =    1.300    factor for augmentation sphere                                              
   RDEP   =    3.202    radius for radial grids                                                     
   RDEPT  =    2.659    core radius for aug-charge                                                  
                                                                                                    
   Atomic configuration                                                                             
   17 entries                                                                                       
     n  l   j            E        occ.                                                              
     1  0  0.50    -88091.8466   2.0000                                                             
     2  0  0.50    -15753.4197   2.0000                                                             
     2  1  1.50    -13508.1797   6.0000                                                             
     3  0  0.50     -3781.7194   2.0000                                                             
     3  1  1.50     -3138.2529   6.0000                                                             
     3  2  2.50     -2483.2977  10.0000                                                             
     4  0  0.50      -856.2895   2.0000                                                             
     4  1  1.50      -645.4943   6.0000                                                             
     4  2  2.50      -401.8768  10.0000                                                             
     4  3  3.50      -132.9059  14.0000                                                             
     5  0  0.50      -144.0950   2.0000                                                             
     5  1  1.50       -85.7879   6.0000                                                             
     5  2  2.50       -21.1769  10.0000                                                             
     6  0  0.50       -12.0372   2.0000                                                             
     6  1  1.50        -3.4971   2.0000                                                             
     6  2  2.50        -1.3606   0.0000                                                             
     5  3  2.50        -2.7212   0.0000                                                             
   Description                                                                                      
     l       E           TYP  RCUT    TYP  RCUT                                                     
     0    -12.0371566     23  3.100                                                                 
     0    -13.3977392     23  3.100                                                                 
     1     -3.4971341     23  3.100                                                                 
     1     -5.4423304     23  3.100                                                                 
     2     -1.3605826     23  3.100                                                                 
     3     -1.3605826     23  3.100                                                                 
  local pseudopotential read in
  partial core-charges read in
  partial kinetic energy density read in
  atomic valenz-charges read in
  non local Contribution for L=            0  read in
    real space projection operators read in
  non local Contribution for L=            0  read in
    real space projection operators read in
  non local Contribution for L=            1  read in
    real space projection operators read in
  non local Contribution for L=            1  read in
    real space projection operators read in
  non local Contribution for L=            2  read in
    real space projection operators read in
    PAW grid and wavefunctions read in
 
   number of l-projection  operators is LMAX  =            5
   number of lm-projection operators is LMMAX =           13
 
 Optimization of the real space projectors (new method)

 maximal supplied QI-value         = 34.20
 optimisation between [QCUT,QGAM] = [ 11.29, 22.57] = [ 35.68,142.71] Ry 
 Optimized for a Real-space Cutoff    1.16 Angstroem

   l    n(q)    QCUT    max X(q) W(low)/X(q) W(high)/X(q)  e(spline) 
   0      8    11.287    19.460    0.40E-03    0.73E-03    0.16E-06
   0      8    11.287    12.209    0.38E-03    0.70E-03    0.15E-06
   1      7    11.287     4.655    0.22E-03    0.25E-04    0.22E-06
 Optimization of the real space projectors (new method)

 maximal supplied QI-value         = 25.13
 optimisation between [QCUT,QGAM] = [ 11.31, 22.87] = [ 35.82,146.48] Ry 
 Optimized for a Real-space Cutoff    1.00 Angstroem

   l    n(q)    QCUT    max X(q) W(low)/X(q) W(high)/X(q)  e(spline) 
   0      7    11.310   115.676    0.43E-03    0.13E-02    0.19E-06
   0      7    11.310    87.132    0.43E-03    0.13E-02    0.18E-06
   1      6    11.310     4.429    0.42E-03    0.74E-03    0.11E-06
   1      6    11.310     2.733    0.34E-03    0.55E-03    0.92E-07
 Optimization of the real space projectors (new method)

 maximal supplied QI-value         = 25.13
 optimisation between [QCUT,QGAM] = [ 11.31, 22.87] = [ 35.82,146.48] Ry 
 Optimized for a Real-space Cutoff    1.27 Angstroem

   l    n(q)    QCUT    max X(q) W(low)/X(q) W(high)/X(q)  e(spline) 
   0      9    11.310    79.467    0.75E-04    0.16E-03    0.36E-06
   0      9    11.310    66.151    0.74E-04    0.16E-03    0.36E-06
   1      8    11.310    17.416    0.35E-03    0.12E-03    0.95E-06
   1      8    11.310    12.382    0.37E-03    0.13E-03    0.98E-06
 Optimization of the real space projectors (new method)

 maximal supplied QI-value         = 16.25
 optimisation between [QCUT,QGAM] = [ 11.38, 22.75] = [ 36.24,144.96] Ry 
 Optimized for a Real-space Cutoff    1.31 Angstroem

   l    n(q)    QCUT    max X(q) W(low)/X(q) W(high)/X(q)  e(spline) 
   0      9    11.376   194.483    0.24E-03    0.23E-03    0.67E-07
   0      9    11.376   190.334    0.23E-03    0.22E-03    0.65E-07
   1      8    11.376   116.687    0.25E-03    0.63E-04    0.16E-06
   1      8    11.376    88.696    0.25E-03    0.61E-04    0.16E-06
   2      8    11.376     4.877    0.17E-03    0.14E-03    0.29E-07
 Optimization of the real space projectors (new method)

 maximal supplied QI-value         = 12.09
 optimisation between [QCUT,QGAM] = [ 11.37, 22.86] = [ 36.19,146.31] Ry 
 Optimized for a Real-space Cutoff    1.66 Angstroem

   l    n(q)    QCUT    max X(q) W(low)/X(q) W(high)/X(q)  e(spline) 
   0     11    11.369   135.111    0.12E-03    0.69E-04    0.19E-05
   0     11    11.369   146.850    0.11E-03    0.65E-04    0.18E-05
   1     11    11.369   148.016    0.17E-03    0.32E-03    0.89E-06
   1     11    11.369   122.989    0.17E-03    0.32E-03    0.91E-06
   2     10    11.369     8.916    0.12E-03    0.45E-04    0.33E-06
  PAW_PBE H 15Jun2001                   :
 energy of atom  1       EATOM=  -12.4884
 kinetic energy error for atom=    0.0020 (will be added to EATOM!!)
  PAW_PBE C 08Apr2002                   :
 energy of atom  2       EATOM= -147.1560
 kinetic energy error for atom=    0.0076 (will be added to EATOM!!)
  PAW_PBE N 08Apr2002                   :
 energy of atom  3       EATOM= -264.5486
 kinetic energy error for atom=    0.0138 (will be added to EATOM!!)
  PAW_PBE I 08Apr2002                   :
 energy of atom  4       EATOM= -315.8678
 kinetic energy error for atom=    0.0009 (will be added to EATOM!!)
  PAW_PBE Pb 08Apr2002                  :
 energy of atom  5       EATOM=  -96.9868
 kinetic energy error for atom=    0.0000 (will be added to EATOM!!)
 
 
 POSCAR:  H  C  N  I Pb
  positions in cartesian coordinates
  No initial velocities read in
 exchange correlation table for  LEXCH =        8
   RHO(1)=    0.500       N(1)  =     2000
   RHO(2)=  100.500       N(2)  =     4000
 


--------------------------------------------------------------------------------------------------------


 ion  position               nearest neighbor table
   1  0.450  0.300  0.582- 187 1.02
   2  0.450  0.800  0.582- 188 1.02
   3  0.950  0.300  0.582- 189 1.02
   4  0.950  0.800  0.582- 190 1.02
   5  0.301  0.051  0.582- 194 1.03
   6  0.301  0.551  0.582- 195 1.03
   7  0.801  0.051  0.582- 196 1.03
   8  0.080  0.171  0.557- 183 1.02
   9  0.080  0.671  0.557- 184 1.02
  10  0.580  0.171  0.557- 185 1.02
  11  0.580  0.671  0.557- 186 1.02
  12  0.329  0.079  0.557- 194 1.00
  13  0.329  0.579  0.557- 195 1.00
  14  0.829  0.079  0.557- 196 1.00
  15  0.050  0.200  0.582- 183 1.02
  16  0.050  0.700  0.582- 184 1.02
  17  0.550  0.200  0.582- 185 1.02
  18  0.550  0.700  0.582- 186 1.02
  19  0.199  0.449  0.582- 191 1.03
  20  0.199  0.949  0.582- 192 1.03
  21  0.699  0.949  0.582- 193 1.03
  22  0.420  0.329  0.557- 187 1.02
  23  0.420  0.829  0.557- 188 1.02
  24  0.920  0.329  0.557- 189 1.02
  25  0.920  0.829  0.557- 190 1.02
  26  0.171  0.421  0.557- 191 1.00
  27  0.171  0.921  0.557- 192 1.00
  28  0.671  0.921  0.557- 193 1.00
  29  0.500  0.250  0.538- 146 1.09
  30  0.500  0.750  0.538- 147 1.09
  31  1.000  0.250  0.538- 144 1.09
  32  1.000  0.750  0.538- 145 1.09
  33  0.250  0.500  0.538- 148 1.09
  34  0.250  0.000  0.538- 149 1.09
  35  0.750  0.000  0.538- 150 1.09
  36  0.449  0.301  0.674- 205 1.02
  37  0.449  0.801  0.674- 206 1.02
  38  0.949  0.301  0.674- 207 1.02
  39  0.949  0.801  0.674- 208 1.02
  40  0.301  0.051  0.674- 209 1.02
  41  0.301  0.551  0.674- 210 1.02
  42  0.801  0.051  0.674- 211 1.02
  43  0.801  0.551  0.674- 212 1.02
  44  0.079  0.171  0.649- 197 1.02
  45  0.079  0.671  0.649- 198 1.02
  46  0.579  0.171  0.649- 199 1.02
  47  0.579  0.671  0.649- 200 1.02
  48  0.171  0.421  0.649- 201 1.02
  49  0.171  0.921  0.649- 202 1.02
  50  0.671  0.421  0.649- 203 1.02
  51  0.671  0.921  0.649- 204 1.02
  52  0.051  0.199  0.674- 197 1.02
  53  0.051  0.699  0.674- 198 1.02
  54  0.551  0.199  0.674- 199 1.02
  55  0.551  0.699  0.674- 200 1.02
  56  0.199  0.449  0.674- 201 1.02
  57  0.199  0.949  0.674- 202 1.02
  58  0.699  0.449  0.674- 203 1.02
  59  0.699  0.949  0.674- 204 1.02
  60  0.421  0.329  0.649- 205 1.02
  61  0.421  0.829  0.649- 206 1.02
  62  0.921  0.329  0.649- 207 1.02
  63  0.921  0.829  0.649- 208 1.02
  64  0.329  0.079  0.649- 209 1.02
  65  0.329  0.579  0.649- 210 1.02
  66  0.829  0.079  0.649- 211 1.02
  67  0.829  0.579  0.649- 212 1.02
  68  0.000  0.250  0.631- 151 1.09
  69  1.000  0.750  0.631- 152 1.09
  70  0.500  0.250  0.631- 153 1.09
  71  0.500  0.750  0.631- 154 1.09
  72  0.250  0.000  0.631- 156 1.09
  73  0.250  0.500  0.631- 155 1.09
  74  0.750  0.000  0.631- 158 1.09
  75  0.750  0.500  0.631- 157 1.09
  76  0.449  0.301  0.769- 221 1.02
  77  0.449  0.801  0.769- 222 1.02
  78  0.949  0.301  0.769- 223 1.02
  79  0.949  0.801  0.769- 224 1.02
  80  0.301  0.051  0.769- 225 1.02
  81  0.301  0.551  0.769- 226 1.02
  82  0.801  0.051  0.769- 227 1.02
  83  0.801  0.551  0.769- 228 1.02
  84  0.079  0.171  0.743- 213 1.02
  85  0.079  0.671  0.743- 214 1.02
  86  0.579  0.171  0.743- 215 1.02
  87  0.579  0.671  0.743- 216 1.02
  88  0.171  0.421  0.743- 217 1.02
  89  0.171  0.921  0.743- 218 1.02
  90  0.671  0.421  0.743- 219 1.02
  91  0.671  0.921  0.743- 220 1.02
  92  0.051  0.199  0.769- 213 1.02
  93  0.051  0.699  0.769- 214 1.02
  94  0.551  0.199  0.769- 215 1.02
  95  0.551  0.699  0.769- 216 1.02
  96  0.199  0.449  0.769- 217 1.02
  97  0.199  0.949  0.769- 218 1.02
  98  0.699  0.449  0.769- 219 1.02
  99  0.699  0.949  0.769- 220 1.02
 100  0.421  0.329  0.743- 221 1.02
 101  0.421  0.829  0.743- 222 1.02
 102  0.921  0.329  0.743- 223 1.02
 103  0.921  0.829  0.743- 224 1.02
 104  0.329  0.079  0.743- 225 1.02
 105  0.329  0.579  0.743- 226 1.02
 106  0.829  0.079  0.743- 227 1.02
 107  0.829  0.579  0.743- 228 1.02
 108  0.000  0.250  0.726- 161 1.09
 109  0.000  0.750  0.726- 162 1.09
 110  0.500  0.250  0.726- 159 1.09
 111  0.500  0.750  0.726- 160 1.09
 112  0.250  0.000  0.726- 163 1.09
 113  0.250  0.500  0.726- 164 1.09
 114  0.750  0.000  0.726- 165 1.09
 115  0.750  0.500  0.726- 166 1.09
 116  0.801  0.543  0.529- 173 1.09
 117  0.887  0.528  0.541- 173 1.08 233 2.22
 118  0.810  0.649  0.548- 174 1.09 237 2.15
 119  0.800  0.655  0.576- 174 1.09
 120  0.696  0.496  0.568- 175 1.09
 121  0.701  0.591  0.575- 175 1.09
 122  0.806  0.448  0.579- 176 1.09
 123  0.883  0.507  0.583- 176 1.09 303 2.43
 124  0.859  0.403  0.551- 177 1.09
 125  0.764  0.414  0.545- 177 1.09
 126  0.784  0.421  0.508- 178 1.09
 127  0.878  0.445  0.510- 178 1.09
 128  0.935  0.626  0.548- 179 1.09
 129  0.937  0.594  0.575- 179 1.09
 130  0.925  0.689  0.569- 179 1.09
 131  0.623  0.581  0.544- 180 1.09
 132  0.689  0.528  0.530- 180 1.09
 133  0.706  0.623  0.536- 180 1.09
 134  0.731  0.506  0.604- 181 1.09
 135  0.776  0.593  0.602- 181 1.09
 136  0.817  0.519  0.616- 181 1.09
 137  0.821  0.293  0.525- 182 1.09
 138  0.838  0.313  0.498- 182 1.09
 139  0.928  0.209  0.498- 168 1.09
 140  0.962  0.411  0.533- 169 1.08 233 2.11
 141  0.063  0.182  0.500- 170 1.09
 142  0.094  0.384  0.536- 171 1.09
 143  0.147  0.269  0.520- 172 1.09
 144  0.000  0.250  0.556-  31 1.09 183 1.31 189 1.31
 145  0.000  0.750  0.556-  32 1.09 184 1.31 190 1.31
 146  0.500  0.250  0.556-  29 1.09 185 1.31 187 1.31
 147  0.500  0.750  0.556-  30 1.09 186 1.31 188 1.31
 148  0.250  0.500  0.556-  33 1.09 191 1.32 195 1.32
 149  0.250  0.000  0.556-  34 1.09 192 1.32 194 1.32
 150  0.750  0.000  0.556-  35 1.09 193 1.32 196 1.32
 151  0.000  0.250  0.649-  68 1.09 197 1.31 207 1.31
 152  0.000  0.750  0.649-  69 1.09 198 1.31 208 1.31
 153  0.500  0.250  0.649-  70 1.09 199 1.31 205 1.31
 154  0.500  0.750  0.649-  71 1.09 200 1.31 206 1.31
 155  0.250  0.500  0.649-  73 1.09 201 1.31 210 1.31
 156  0.250  1.000  0.649-  72 1.09 202 1.31 209 1.31
 157  0.750  0.500  0.649-  75 1.09 203 1.31 212 1.31
 158  0.750  1.000  0.649-  74 1.09 204 1.31 211 1.31
 159  0.500  0.250  0.743- 110 1.09 221 1.31 215 1.31
 160  0.500  0.750  0.743- 111 1.09 222 1.31 216 1.31
 161  1.000  0.250  0.743- 108 1.09 223 1.31 213 1.31
 162  1.000  0.750  0.743- 109 1.09 224 1.31 214 1.31
 163  0.250  0.000  0.743- 112 1.09 225 1.31 218 1.31
 164  0.250  0.500  0.743- 113 1.09 226 1.31 217 1.31
 165  0.750  0.000  0.743- 114 1.09 227 1.31 220 1.31
 166  0.750  0.500  0.743- 115 1.09 228 1.31 219 1.31
 167  0.935  0.310  0.517- 169 1.40 168 1.40 182 1.51
 168  0.964  0.245  0.507- 139 1.09 167 1.40 170 1.40
 169  0.983  0.358  0.527- 140 1.08 171 1.39 167 1.40
 170  0.040  0.230  0.509- 141 1.09 172 1.40 168 1.40
 171  0.058  0.343  0.529- 142 1.09 169 1.39 172 1.40
 172  0.088  0.279  0.520- 143 1.09 171 1.40 170 1.40
 173  0.828  0.515  0.542- 117 1.08 116 1.09 229 1.49 177 1.52
 174  0.826  0.626  0.563- 118 1.09 119 1.09 229 1.51 179 1.52 237 2.72
 175  0.716  0.550  0.563- 121 1.09 120 1.09 229 1.51 180 1.52
 176  0.823  0.505  0.582- 123 1.09 122 1.09 229 1.51 181 1.52 252 2.65
 177  0.820  0.431  0.540- 125 1.09 124 1.09 173 1.52 178 1.52
 178  0.834  0.409  0.517- 126 1.09 127 1.09 177 1.52 182 1.53
 179  0.910  0.633  0.564- 129 1.09 130 1.09 128 1.09 174 1.52 261 2.75
 180  0.682  0.572  0.542- 133 1.09 132 1.09 131 1.09 175 1.52
 181  0.785  0.533  0.602- 135 1.09 134 1.09 136 1.09 176 1.52 261 2.81
 182  0.854  0.328  0.514- 137 1.09 138 1.09 167 1.51 178 1.53
 183  0.046  0.205  0.566-   8 1.02  15 1.02 144 1.31
 184  0.046  0.705  0.566-   9 1.02  16 1.02 145 1.31
 185  0.546  0.205  0.566-  10 1.02  17 1.02 146 1.31
 186  0.546  0.705  0.566-  11 1.02  18 1.02 147 1.31
 187  0.454  0.295  0.566-  22 1.02   1 1.02 146 1.31
 188  0.454  0.795  0.566-  23 1.02   2 1.02 147 1.31
 189  0.954  0.295  0.566-  24 1.02   3 1.02 144 1.31
 190  0.954  0.795  0.566-  25 1.02   4 1.02 145 1.31
 191  0.204  0.454  0.566-  26 1.00  19 1.03 148 1.32
 192  0.204  0.954  0.566-  27 1.00  20 1.03 149 1.32
 193  0.704  0.954  0.566-  28 1.00  21 1.03 150 1.32
 194  0.296  0.046  0.566-  12 1.00   5 1.03 149 1.32
 195  0.296  0.546  0.566-  13 1.00   6 1.03 148 1.32
 196  0.796  0.046  0.566-  14 1.00   7 1.03 150 1.32
 197  0.046  0.204  0.658-  44 1.02  52 1.02 151 1.31
 198  0.046  0.704  0.658-  45 1.02  53 1.02 152 1.31
 199  0.546  0.204  0.658-  46 1.02  54 1.02 153 1.31
 200  0.546  0.704  0.658-  47 1.02  55 1.02 154 1.31
 201  0.204  0.454  0.658-  48 1.02  56 1.02 155 1.31
 202  0.204  0.954  0.658-  49 1.02  57 1.02 156 1.31
 203  0.704  0.454  0.658-  50 1.02  58 1.02 157 1.31
 204  0.704  0.954  0.658-  51 1.02  59 1.02 158 1.31
 205  0.454  0.296  0.658-  60 1.02  36 1.02 153 1.31
 206  0.454  0.796  0.658-  61 1.02  37 1.02 154 1.31
 207  0.954  0.296  0.658-  62 1.02  38 1.02 151 1.31
 208  0.954  0.796  0.658-  63 1.02  39 1.02 152 1.31
 209  0.296  0.046  0.658-  64 1.02  40 1.02 156 1.31
 210  0.296  0.546  0.658-  65 1.02  41 1.02 155 1.31
 211  0.796  0.046  0.658-  66 1.02  42 1.02 158 1.31
 212  0.796  0.546  0.658-  67 1.02  43 1.02 157 1.31
 213  0.046  0.204  0.753-  92 1.02  84 1.02 161 1.31
 214  0.046  0.704  0.753-  93 1.02  85 1.02 162 1.31
 215  0.546  0.204  0.753-  94 1.02  86 1.02 159 1.31
 216  0.546  0.704  0.753-  95 1.02  87 1.02 160 1.31
 217  0.204  0.454  0.753-  96 1.02  88 1.02 164 1.31
 218  0.204  0.954  0.753-  97 1.02  89 1.02 163 1.31
 219  0.704  0.454  0.753-  98 1.02  90 1.02 166 1.31
 220  0.704  0.954  0.753-  99 1.02  91 1.02 165 1.31
 221  0.454  0.296  0.753-  76 1.02 100 1.02 159 1.31
 222  0.454  0.796  0.753-  77 1.02 101 1.02 160 1.31
 223  0.954  0.296  0.753-  78 1.02 102 1.02 161 1.31
 224  0.954  0.796  0.753-  79 1.02 103 1.02 162 1.31
 225  0.296  0.046  0.753-  80 1.02 104 1.02 163 1.31
 226  0.296  0.546  0.753-  81 1.02 105 1.02 164 1.31
 227  0.796  0.046  0.753-  82 1.02 106 1.02 165 1.31
 228  0.796  0.546  0.753-  83 1.02 107 1.02 166 1.31
 229  0.799  0.547  0.562- 173 1.49 175 1.51 176 1.51 174 1.51
 230  0.500  0.000  0.552- 304 3.14
 231  0.500  0.500  0.552- 305 3.14
 232  0.000  0.000  0.552- 302 3.14
 233  0.000  0.500  0.552- 140 2.11 117 2.22 303 3.14
 234  0.250  0.250  0.552- 306 3.14
 235  0.250  0.750  0.552- 307 3.14
 236  0.750  0.250  0.552- 308 3.14
 237  0.750  0.750  0.552- 118 2.15 174 2.72 309 3.14
 238  0.000  0.000  0.654- 310 3.18 302 3.23
 239  0.000  0.500  0.654- 311 3.18 303 3.23
 240  0.500  0.000  0.654- 312 3.18 304 3.23
 241  0.500  0.500  0.654- 313 3.18 305 3.23
 242  0.250  0.250  0.654- 314 3.18 306 3.23
 243  0.250  0.750  0.654- 315 3.18 307 3.23
 244  0.750  0.250  0.654- 316 3.18 308 3.23
 245  0.750  0.750  0.654- 317 3.18 309 3.23
 246  0.143  0.107  0.607- 306 3.24 302 3.24
 247  0.143  0.607  0.607- 307 3.24 303 3.24
 248  0.643  0.107  0.607- 308 3.24 304 3.24
 249  0.643  0.607  0.607- 309 3.24 305 3.24
 250  0.357  0.393  0.607- 306 3.24 305 3.24
 251  0.357  0.893  0.607- 307 3.24 304 3.24
 252  0.857  0.393  0.607- 176 2.65 308 3.24 303 3.24
 253  0.857  0.893  0.607- 309 3.24 302 3.24
 254  0.107  0.357  0.607- 306 3.24 303 3.24
 255  0.107  0.857  0.607- 307 3.24 302 3.24
 256  0.607  0.357  0.607- 308 3.24 305 3.24
 257  0.607  0.857  0.607- 309 3.24 304 3.24
 258  0.393  0.143  0.607- 306 3.24 304 3.24
 259  0.393  0.643  0.607- 307 3.24 305 3.24
 260  0.893  0.143  0.607- 308 3.24 302 3.24
 261  0.893  0.643  0.607- 179 2.75 181 2.81 309 3.24 303 3.24
 262  0.000  0.000  0.755- 310 3.13 318 3.27
 263  0.000  0.500  0.755- 311 3.13 319 3.27
 264  0.500  0.000  0.755- 312 3.13 320 3.27
 265  0.500  0.500  0.755- 313 3.13 321 3.27
 266  0.250  0.250  0.755- 314 3.13 322 3.27
 267  0.250  0.750  0.755- 315 3.13 323 3.27
 268  0.750  0.250  0.755- 316 3.13 324 3.27
 269  0.750  0.750  0.755- 317 3.13 325 3.27
 270  0.136  0.114  0.705- 310 3.20 314 3.20
 271  0.136  0.614  0.705- 311 3.20 315 3.20
 272  0.636  0.114  0.705- 312 3.20 316 3.20
 273  0.636  0.614  0.705- 313 3.20 317 3.20
 274  0.364  0.386  0.705- 313 3.20 314 3.20
 275  0.364  0.886  0.705- 312 3.20 315 3.20
 276  0.864  0.386  0.705- 311 3.20 316 3.20
 277  0.864  0.886  0.705- 310 3.20 317 3.20
 278  0.114  0.364  0.705- 314 3.21 311 3.21
 279  0.114  0.864  0.705- 315 3.21 310 3.21
 280  0.614  0.364  0.705- 316 3.21 313 3.21
 281  0.614  0.864  0.705- 317 3.21 312 3.21
 282  0.386  0.136  0.705- 314 3.21 312 3.21
 283  0.386  0.636  0.705- 315 3.21 313 3.21
 284  0.886  0.136  0.705- 316 3.21 310 3.21
 285  0.886  0.636  0.705- 317 3.21 311 3.21
 286  0.135  0.115  0.801- 318 3.22 322 3.22
 287  0.135  0.615  0.801- 319 3.22 323 3.22
 288  0.635  0.115  0.801- 320 3.22 324 3.22
 289  0.635  0.615  0.801- 321 3.22 325 3.22
 290  0.365  0.385  0.801- 321 3.22 322 3.22
 291  0.365  0.885  0.801- 320 3.22 323 3.22
 292  0.865  0.385  0.801- 319 3.22 324 3.22
 293  0.865  0.885  0.801- 318 3.22 325 3.22
 294  0.115  0.365  0.801- 319 3.23 322 3.23
 295  0.115  0.865  0.801- 318 3.23 323 3.23
 296  0.615  0.365  0.801- 321 3.23 324 3.23
 297  0.615  0.865  0.801- 320 3.23 325 3.23
 298  0.385  0.135  0.801- 320 3.23 322 3.23
 299  0.385  0.635  0.801- 321 3.23 323 3.23
 300  0.885  0.135  0.801- 318 3.23 324 3.23
 301  0.885  0.635  0.801- 319 3.23 325 3.23
 302  0.000  0.000  0.602- 232 3.14 238 3.23 246 3.24 253 3.24 260 3.24 255 3.24
 303  0.000  0.500  0.602- 123 2.43 233 3.14 239 3.23 247 3.24 252 3.24 261 3.24 254 3.24
 304  0.500  0.000  0.602- 230 3.14 240 3.23 248 3.24 251 3.24 258 3.24 257 3.24
 305  0.500  0.500  0.602- 231 3.14 241 3.23 249 3.24 250 3.24 259 3.24 256 3.24
 306  0.250  0.250  0.602- 234 3.14 242 3.23 246 3.24 250 3.24 258 3.24 254 3.24
 307  0.250  0.750  0.602- 235 3.14 243 3.23 247 3.24 251 3.24 259 3.24 255 3.24
 308  0.750  0.250  0.602- 236 3.14 244 3.23 248 3.24 252 3.24 260 3.24 256 3.24
 309  0.750  0.750  0.602- 237 3.14 245 3.23 249 3.24 253 3.24 261 3.24 257 3.24
 310  0.000  0.000  0.705- 262 3.13 238 3.18 270 3.20 277 3.20 279 3.21 284 3.21
 311  0.000  0.500  0.705- 263 3.13 239 3.18 271 3.20 276 3.20 278 3.21 285 3.21
 312  0.500  0.000  0.705- 264 3.13 240 3.18 272 3.20 275 3.20 281 3.21 282 3.21
 313  0.500  0.500  0.705- 265 3.13 241 3.18 273 3.20 274 3.20 280 3.21 283 3.21
 314  0.250  0.250  0.705- 266 3.13 242 3.18 270 3.20 274 3.20 282 3.21 278 3.21
 315  0.250  0.750  0.705- 267 3.13 243 3.18 271 3.20 275 3.20 283 3.21 279 3.21
 316  0.750  0.250  0.705- 268 3.13 244 3.18 272 3.20 276 3.20 284 3.21 280 3.21
 317  0.750  0.750  0.705- 269 3.13 245 3.18 273 3.20 277 3.20 285 3.21 281 3.21
 318  0.000  0.000  0.807- 286 3.22 293 3.22 300 3.23 295 3.23 262 3.27
 319  0.000  0.500  0.807- 287 3.22 292 3.22 301 3.23 294 3.23 263 3.27
 320  0.500  0.000  0.807- 288 3.22 291 3.22 298 3.23 297 3.23 264 3.27
 321  0.500  0.500  0.807- 289 3.22 290 3.22 299 3.23 296 3.23 265 3.27
 322  0.250  0.250  0.807- 290 3.22 286 3.22 294 3.23 298 3.23 266 3.27
 323  0.250  0.750  0.807- 291 3.22 287 3.22 299 3.23 295 3.23 267 3.27
 324  0.750  0.250  0.807- 292 3.22 288 3.22 296 3.23 300 3.23 268 3.27
 325  0.750  0.750  0.807- 293 3.22 289 3.22 297 3.23 301 3.23 269 3.27
 

IMPORTANT INFORMATION: All symmetrisations will be switched off!
NOSYMM: (Re-)initialisation of all symmetry stuff for point group C_1.


----------------------------------------------------------------------------------------

                                     Primitive cell                                     

  volume of cell :   20385.2105

  direct lattice vectors                    reciprocal lattice vectors
    18.060800552  0.000000000  0.000000000     0.055368531  0.000015077 -0.000000000
    -0.004918649 18.062799454  0.000000000     0.000000000  0.055362404  0.000000000
     0.000000000  0.000000000 62.487499237     0.000000000 -0.000000000  0.016003201

  length of vectors
    18.060800552 18.062800123 62.487499237     0.055368533  0.055362404  0.016003201

  position of ions in fractional coordinates (direct lattice)
     0.449857502  0.299802489  0.581869005
     0.449857491  0.799802515  0.581869005
     0.949857449  0.299802489  0.581869005
     0.949857491  0.799802515  0.581869005
     0.301223021  0.051249997  0.581869005
     0.301223010  0.551249938  0.581869005
     0.801223021  0.051249997  0.581869005
     0.079638991  0.171189991  0.556953011
     0.079639033  0.671190004  0.556953011
     0.579639044  0.171189991  0.556953011
     0.579639033  0.671190004  0.556953011
     0.328867505  0.078900999  0.556953011
     0.328867494  0.578900993  0.556953011
     0.828867505  0.078900999  0.556953011
     0.050145550  0.200197986  0.581866991
     0.050145486  0.700197960  0.581866991
     0.550145497  0.200197986  0.581866991
     0.550145486  0.700197960  0.581866991
     0.198776003  0.448747950  0.581866991
     0.198776001  0.948748056  0.581866991
     0.698776028  0.948748056  0.581866991
     0.420350993  0.328816490  0.556951973
     0.420351009  0.828816490  0.556951973
     0.920351020  0.328816490  0.556951973
     0.920351061  0.828816490  0.556951973
     0.171132510  0.421098981  0.556951973
     0.171132508  0.921099067  0.556951973
     0.671132495  0.921099067  0.556951973
     0.499997487  0.250003009  0.538496988
     0.499997476  0.750002930  0.538496988
     0.999997540  0.250003009  0.538496988
     0.999997476  0.750002930  0.538496988
     0.249999989  0.500000000  0.538496988
     0.250000000  0.000000000  0.538496988
     0.749999974  0.000000000  0.538496988
     0.448793005  0.301243497  0.674184955
     0.448792994  0.801243523  0.674184955
     0.948792995  0.301243497  0.674184955
     0.948792935  0.801243523  0.674184955
     0.301223021  0.051249997  0.674167007
     0.301223010  0.551249938  0.674167007
     0.801223021  0.051249997  0.674167007
     0.801223063  0.551249938  0.674167007
     0.078825500  0.171096500  0.648854999
     0.078825502  0.671096500  0.648854999
     0.578825474  0.171096500  0.648854999
     0.578825463  0.671096500  0.648854999
     0.171132510  0.421098981  0.648834975
     0.171132508  0.921099067  0.648834975
     0.671132483  0.421098981  0.648834975
     0.671132495  0.921099067  0.648834975
     0.051206498  0.198756490  0.674185993
     0.051206500  0.698756477  0.674185993
     0.551206456  0.198756490  0.674185993
     0.551206444  0.698756477  0.674185993
     0.198776003  0.448747950  0.674166030
     0.198776001  0.948748056  0.674166030
     0.698776017  0.448747950  0.674166030
     0.698776028  0.948748056  0.674166030
     0.421176495  0.328901996  0.648854999
     0.421176483  0.828901969  0.648854999
     0.921176495  0.328901996  0.648854999
     0.921176490  0.828901969  0.648854999
     0.328867505  0.078900999  0.648836013
     0.328867494  0.578900993  0.648836013
     0.828867505  0.078900999  0.648836013
     0.828867494  0.578900993  0.648836013
     0.000000000  0.250001003  0.631086979
     1.000000000  0.750000977  0.631086979
     0.500000021  0.250001003  0.631086979
     0.500000010  0.750000977  0.631086979
     0.250000000  0.000001500  0.631069032
     0.249999989  0.500001478  0.631069032
     0.749999974  0.000001500  0.631069032
     0.750000016  0.500001478  0.631069032
     0.448745018  0.301283966  0.768889017
     0.448745007  0.801283913  0.768889017
     0.948744965  0.301283966  0.768889017
     0.948745007  0.801283913  0.768889017
     0.301275995  0.051294496  0.768872961
     0.301276011  0.551294499  0.768872961
     0.801275943  0.051294496  0.768872961
     0.801275984  0.551294499  0.768872961
     0.078771004  0.171180501  0.743441971
     0.078771006  0.671180448  0.743441971
     0.578771004  0.171180501  0.743441971
     0.578770992  0.671180448  0.743441971
     0.171199499  0.421174482  0.743421032
     0.171199501  0.921174508  0.743421032
     0.671199512  0.421174482  0.743421032
     0.671199501  0.921174508  0.743421032
     0.051256000  0.198714991  0.768889017
     0.051256002  0.698714925  0.768889017
     0.551256027  0.198714991  0.768889017
     0.551256016  0.698714925  0.768889017
     0.198723491  0.448703970  0.768872046
     0.198723493  0.948703970  0.768872046
     0.698723518  0.448703970  0.768872046
     0.698723507  0.948703970  0.768872046
     0.421231519  0.328817467  0.743441971
     0.421231508  0.828817440  0.743441971
     0.921231466  0.328817467  0.743441971
     0.921231508  0.828817440  0.743441971
     0.328800503  0.078824997  0.743421032
     0.328800492  0.578824964  0.743421032
     0.828800477  0.078824997  0.743421032
     0.828800519  0.578824964  0.743421032
     0.000003500  0.250001478  0.725821992
     0.000003500  0.750001452  0.725821992
     0.500003506  0.250001478  0.725821992
     0.500003495  0.750001452  0.725821992
     0.250000502  0.000000000  0.725803983
     0.250000517  0.500000000  0.725803983
     0.750000502  0.000000000  0.725803983
     0.750000490  0.500000000  0.725803983
     0.801230496  0.542672740  0.528591748
     0.886813915  0.528178345  0.540868007
     0.809921489  0.648554098  0.547507946
     0.799514053  0.654508042  0.576125364
     0.695995901  0.495635161  0.568159843
     0.701481147  0.591274979  0.575230532
     0.806279484  0.447931645  0.578819812
     0.883158665  0.507318606  0.582958640
     0.858619488  0.403019860  0.550973788
     0.763659933  0.413563455  0.544824426
     0.783878874  0.421468803  0.508048851
     0.877582841  0.444765630  0.510281628
     0.935020382  0.625888995  0.547977278
     0.937113894  0.594318925  0.574734156
     0.924605237  0.688845714  0.569050401
     0.622715847  0.581412051  0.544018722
     0.688685957  0.527899468  0.530112682
     0.706265208  0.622902915  0.535608288
     0.731127953  0.505931188  0.603727809
     0.776180490  0.592685417  0.601960732
     0.817477655  0.518956698  0.616088252
     0.821278962  0.293391211  0.524595343
     0.838467904  0.313028393  0.497510977
     0.928014880  0.209208574  0.498224620
     0.962322977  0.410646065  0.533040819
     0.063212473  0.182163109  0.500474704
     0.093828255  0.384082485  0.536212657
     0.147127812  0.269207989  0.520195964
     0.000012529  0.249975977  0.555953055
     0.000012465  0.749975951  0.555953055
     0.500012529  0.249975977  0.555953055
     0.500012518  0.749975951  0.555953055
     0.249999989  0.500000000  0.555953055
     0.250000000  0.000000000  0.555953055
     0.749999974  0.000000000  0.555953055
     0.000009000  0.249990998  0.648527052
     0.000009000  0.749990998  0.648527052
     0.500008995  0.249990998  0.648527052
     0.500008984  0.749990998  0.648527052
     0.249999487  0.499999472  0.648507029
     0.249999498  0.999999523  0.648507029
     0.749999540  0.499999472  0.648507029
     0.749999498  0.999999523  0.648507029
     0.499988984  0.249994984  0.743277021
     0.499989025  0.749994958  0.743277021
     0.999988984  0.249994984  0.743277021
     0.999989025  0.749994958  0.743277021
     0.250000502  0.000001000  0.743255960
     0.250000517  0.500001003  0.743255960
     0.750000502  0.000001000  0.743255960
     0.750000491  0.500001003  0.743255960
     0.934712270  0.309640523  0.516665473
     0.964223214  0.245242531  0.507393416
     0.982773818  0.358009739  0.527163789
     0.040357232  0.229989248  0.508673457
     0.058304041  0.342999220  0.528734293
     0.087530519  0.278746554  0.519575906
     0.828456571  0.514508017  0.541890428
     0.826496967  0.625950926  0.562880344
     0.715983697  0.550182474  0.563222820
     0.823100697  0.504967789  0.581858322
     0.819539291  0.430837676  0.540284821
     0.834327967  0.409462843  0.517072659
     0.910411942  0.632937963  0.563816994
     0.682086380  0.571987556  0.541943234
     0.784877930  0.532999356  0.601918731
     0.853737894  0.327944589  0.513893556
     0.045780531  0.204609485  0.565607025
     0.045780467  0.704609472  0.565607025
     0.545780479  0.204609485  0.565607025
     0.545780467  0.704609472  0.565607025
     0.454210485  0.295404995  0.565612031
     0.454210474  0.795404995  0.565612031
     0.954210538  0.295404995  0.565612031
     0.954210474  0.795404995  0.565612031
     0.204141005  0.454139968  0.565607025
     0.204141003  0.954140067  0.565607025
     0.704141016  0.954140067  0.565607025
     0.295859010  0.045860497  0.565612031
     0.295858999  0.545860507  0.565612031
     0.795858984  0.045860497  0.565612031
     0.045816000  0.204129989  0.657995010
     0.045815999  0.704129963  0.657995010
     0.545815990  0.204129989  0.657995010
     0.545815979  0.704129963  0.657995010
     0.204141005  0.454139968  0.657977001
     0.204141003  0.954140067  0.657977001
     0.704141005  0.454139968  0.657977001
     0.704141016  0.954140067  0.657977001
     0.454171013  0.295884002  0.657997025
     0.454171001  0.795883976  0.657997025
     0.954170943  0.295884002  0.657997025
     0.954171001  0.795883976  0.657997025
     0.295859010  0.045860497  0.657977001
     0.295858999  0.545860507  0.657977001
     0.795858984  0.045860497  0.657977001
     0.795858973  0.545860507  0.657977001
     0.045862501  0.204119496  0.752725994
     0.045862500  0.704119456  0.752725994
     0.545862507  0.204119496  0.752725994
     0.545862496  0.704119456  0.752725994
     0.204119002  0.454101003  0.752704994
     0.204118991  0.954100951  0.752704994
     0.704118976  0.454101003  0.752704994
     0.704118964  0.954100951  0.752704994
     0.454140018  0.295888490  0.752726971
     0.454140007  0.795888516  0.752726971
     0.954140018  0.295888490  0.752726971
     0.954140060  0.795888516  0.752726971
     0.295882492  0.045900498  0.752704994
     0.295882481  0.545900528  0.752704994
     0.795882439  0.045900498  0.752704994
     0.795882481  0.545900528  0.752704994
     0.799219714  0.546855269  0.562197896
     0.500000000  0.000000000  0.551904028
     0.499999989  0.500000000  0.551904028
     0.000000000  0.000000000  0.551904028
     0.000000000  0.500000000  0.551904028
     0.250001024  0.250000000  0.551922037
     0.250001013  0.749999974  0.551922037
     0.750000998  0.250000000  0.551922037
     0.750001039  0.749999974  0.551922037
     0.000000000  0.000000000  0.653895985
     0.000000000  0.500000000  0.653895985
     0.500000000  0.000000000  0.653895985
     0.499999989  0.500000000  0.653895985
     0.249999994  0.250000000  0.653909049
     0.250000010  0.749999974  0.653909049
     0.749999994  0.250000000  0.653909049
     0.749999983  0.749999974  0.653909049
     0.143159002  0.106859495  0.607418000
     0.143159004  0.606859488  0.607418000
     0.643159028  0.106859495  0.607418000
     0.643159017  0.606859488  0.607418000
     0.356840486  0.393141489  0.607418000
     0.356840501  0.893141462  0.607418000
     0.856840486  0.393141489  0.607418000
     0.856840475  0.893141462  0.607418000
     0.106894997  0.356899984  0.607452980
     0.106894999  0.856899958  0.607452980
     0.606894957  0.356899984  0.607452980
     0.606894946  0.856899958  0.607452980
     0.393105006  0.143101006  0.607452980
     0.393104994  0.643100940  0.607452980
     0.893105032  0.143101006  0.607452980
     0.893105074  0.643100940  0.607452980
     0.000000000  0.000000000  0.754927972
     0.000000000  0.500000000  0.754927972
     0.500000000  0.000000000  0.754927972
     0.499999989  0.500000000  0.754927972
     0.250000496  0.250000000  0.754939022
     0.250000511  0.749999974  0.754939022
     0.750000470  0.250000000  0.754939022
     0.750000458  0.749999974  0.754939022
     0.135790500  0.114209997  0.704782994
     0.135790502  0.614209984  0.704782994
     0.635790447  0.114209997  0.704782994
     0.635790488  0.614209984  0.704782994
     0.364209516  0.385789989  0.704782994
     0.364209505  0.885789963  0.704782994
     0.864209542  0.385789989  0.704782994
     0.864209531  0.885789963  0.704782994
     0.114217990  0.364218986  0.704780979
     0.114217992  0.864218986  0.704780979
     0.614218004  0.364218986  0.704780979
     0.614217992  0.864218986  0.704780979
     0.385782012  0.135781489  0.704782017
     0.385782001  0.635781489  0.704782017
     0.885781985  0.135781489  0.704782017
     0.885782027  0.635781489  0.704782017
     0.134667000  0.115332001  0.801256025
     0.134666989  0.615331988  0.801256025
     0.634666987  0.115332001  0.801256025
     0.634666976  0.615331988  0.801256025
     0.365333002  0.384667985  0.801256025
     0.365332990  0.884667959  0.801256025
     0.865332949  0.384667985  0.801256025
     0.865332938  0.884667959  0.801256025
     0.115328503  0.365337004  0.801264999
     0.115328505  0.865336978  0.801264999
     0.615328503  0.365337004  0.801264999
     0.615328492  0.865336978  0.801264999
     0.384671513  0.134662996  0.801264999
     0.384671501  0.634662970  0.801264999
     0.884671486  0.134662996  0.801264999
     0.884671528  0.634662970  0.801264999
     0.000000500  0.000001000  0.602206997
     0.000000500  0.500001003  0.602206997
     0.500000476  0.000001000  0.602206997
     0.500000464  0.500001003  0.602206997
     0.249999994  0.249999472  0.602214994
     0.250000010  0.749999498  0.602214994
     0.749999994  0.249999472  0.602214994
     0.749999983  0.749999498  0.602214994
     0.000000500  0.000000500  0.704828963
     0.000000500  0.500000475  0.704828963
     0.500000475  0.000000500  0.704828963
     0.500000464  0.500000475  0.704828963
     0.249999994  0.249999472  0.704824995
     0.250000010  0.749999498  0.704824995
     0.749999994  0.249999472  0.704824995
     0.749999983  0.749999498  0.704824995
     0.000000000  0.000000000  0.807317968
     0.000000000  0.500000000  0.807317968
     0.500000000  0.000000000  0.807317968
     0.499999989  0.500000000  0.807317968
     0.249999994  0.250000000  0.807317968
     0.250000010  0.749999974  0.807317968
     0.749999994  0.250000000  0.807317968
     0.749999983  0.749999974  0.807317968

  ion indices of the primitive-cell ions
   primitive index   ion index
                 1           1
                 2           2
                 3           3
                 4           4
                 5           5
                 6           6
                 7           7
                 8           8
                 9           9
                10          10
                11          11
                12          12
                13          13
                14          14
                15          15
                16          16
                17          17
                18          18
                19          19
                20          20
                21          21
                22          22
                23          23
                24          24
                25          25
                26          26
                27          27
                28          28
                29          29
                30          30
                31          31
                32          32
                33          33
                34          34
                35          35
                36          36
                37          37
                38          38
                39          39
                40          40
                41          41
                42          42
                43          43
                44          44
                45          45
                46          46
                47          47
                48          48
                49          49
                50          50
                51          51
                52          52
                53          53
                54          54
                55          55
                56          56
                57          57
                58          58
                59          59
                60          60
                61          61
                62          62
                63          63
                64          64
                65          65
                66          66
                67          67
                68          68
                69          69
                70          70
                71          71
                72          72
                73          73
                74          74
                75          75
                76          76
                77          77
                78          78
                79          79
                80          80
                81          81
                82          82
                83          83
                84          84
                85          85
                86          86
                87          87
                88          88
                89          89
                90          90
                91          91
                92          92
                93          93
                94          94
                95          95
                96          96
                97          97
                98          98
                99          99
               100         100
               101         101
               102         102
               103         103
               104         104
               105         105
               106         106
               107         107
               108         108
               109         109
               110         110
               111         111
               112         112
               113         113
               114         114
               115         115
               116         116
               117         117
               118         118
               119         119
               120         120
               121         121
               122         122
               123         123
               124         124
               125         125
               126         126
               127         127
               128         128
               129         129
               130         130
               131         131
               132         132
               133         133
               134         134
               135         135
               136         136
               137         137
               138         138
               139         139
               140         140
               141         141
               142         142
               143         143
               144         144
               145         145
               146         146
               147         147
               148         148
               149         149
               150         150
               151         151
               152         152
               153         153
               154         154
               155         155
               156         156
               157         157
               158         158
               159         159
               160         160
               161         161
               162         162
               163         163
               164         164
               165         165
               166         166
               167         167
               168         168
               169         169
               170         170
               171         171
               172         172
               173         173
               174         174
               175         175
               176         176
               177         177
               178         178
               179         179
               180         180
               181         181
               182         182
               183         183
               184         184
               185         185
               186         186
               187         187
               188         188
               189         189
               190         190
               191         191
               192         192
               193         193
               194         194
               195         195
               196         196
               197         197
               198         198
               199         199
               200         200
               201         201
               202         202
               203         203
               204         204
               205         205
               206         206
               207         207
               208         208
               209         209
               210         210
               211         211
               212         212
               213         213
               214         214
               215         215
               216         216
               217         217
               218         218
               219         219
               220         220
               221         221
               222         222
               223         223
               224         224
               225         225
               226         226
               227         227
               228         228
               229         229
               230         230
               231         231
               232         232
               233         233
               234         234
               235         235
               236         236
               237         237
               238         238
               239         239
               240         240
               241         241
               242         242
               243         243
               244         244
               245         245
               246         246
               247         247
               248         248
               249         249
               250         250
               251         251
               252         252
               253         253
               254         254
               255         255
               256         256
               257         257
               258         258
               259         259
               260         260
               261         261
               262         262
               263         263
               264         264
               265         265
               266         266
               267         267
               268         268
               269         269
               270         270
               271         271
               272         272
               273         273
               274         274
               275         275
               276         276
               277         277
               278         278
               279         279
               280         280
               281         281
               282         282
               283         283
               284         284
               285         285
               286         286
               287         287
               288         288
               289         289
               290         290
               291         291
               292         292
               293         293
               294         294
               295         295
               296         296
               297         297
               298         298
               299         299
               300         300
               301         301
               302         302
               303         303
               304         304
               305         305
               306         306
               307         307
               308         308
               309         309
               310         310
               311         311
               312         312
               313         313
               314         314
               315         315
               316         316
               317         317
               318         318
               319         319
               320         320
               321         321
               322         322
               323         323
               324         324
               325         325

----------------------------------------------------------------------------------------

 
 
 KPOINTS: Automatic Mesh                          

Automatic generation of k-mesh.
 Grid dimensions read from file:
 generate k-points for:    3    3    1

 Generating k-lattice:

  Cartesian coordinates                     Fractional coordinates (reciprocal lattice)
     0.018456177  0.000005026 -0.000000000     0.333333333  0.000000000  0.000000000
     0.000000000  0.018454135  0.000000000     0.000000000  0.333333333  0.000000000
     0.000000000 -0.000000000  0.016003201     0.000000000  0.000000000  1.000000000

  Length of vectors
     0.018456178  0.018454135  0.016003201

  Shift w.r.t. Gamma in fractional coordinates (k-lattice)
     0.000000000  0.000000000  0.000000000

 
 Subroutine IBZKPT returns following result:
 ===========================================
 
 Found      5 irreducible k-points:
 
 Following reciprocal coordinates:
            Coordinates               Weight
  0.000000  0.000000  0.000000      1.000000
  0.333333  0.000000  0.000000      2.000000
  0.000000  0.333333  0.000000      2.000000
  0.333333  0.333333  0.000000      2.000000
 -0.333333  0.333333  0.000000      2.000000
 
 Following cartesian coordinates:
            Coordinates               Weight
  0.000000  0.000000  0.000000      1.000000
  0.018456  0.000005  0.000000      2.000000
  0.000000  0.018454  0.000000      2.000000
  0.018456  0.018459  0.000000      2.000000
 -0.018456  0.018449  0.000000      2.000000
 


--------------------------------------------------------------------------------------------------------




 Dimension of arrays:
   k-points           NKPTS =      5   k-points in BZ     NKDIM =      5   number of bands    NBANDS=    732
   number of dos      NEDOS =    301   number of ions     NIONS =    325
   non local maximal  LDIM  =      5   non local SUM 2l+1 LMDIM =     13
   total plane-waves  NPLWV = ******
   max r-space proj   IRMAX =   3336   max aug-charges    IRDMAX=  19845
   dimension x,y,z NGX =   100 NGY =  100 NGZ =  350
   dimension x,y,z NGXF=   200 NGYF=  200 NGZF=  700
   support grid    NGXF=   200 NGYF=  200 NGZF=  700
   ions per type =             143  39  47  72  24
   NGX,Y,Z   is equivalent  to a cutoff of   9.20,  9.20,  9.31 a.u.
   NGXF,Y,Z  is equivalent  to a cutoff of  18.41, 18.41, 18.62 a.u.

 SYSTEM =  PSC                                     
 POSCAR =   H  C  N  I Pb                          

 Startparameter for this run:
   NWRITE =      2    write-flag & timer
   PREC   = normal    normal or accurate (medium, high low for compatibility)
   ISTART =      0    job   : 0-new  1-cont  2-samecut
   ICHARG =      2    charge: 1-file 2-atom 10-const
   ISPIN  =      1    spin polarized calculation?
   LNONCOLLINEAR =      F non collinear calculations
   LSORBIT =      F    spin-orbit coupling
   INIWAV =      1    electr: 0-lowe 1-rand  2-diag
   LASPH  =      F    aspherical Exc in radial PAW
 Electronic Relaxation 1
   ENCUT  =  500.0 eV  36.75 Ry    6.06 a.u.  32.93 32.93113.93*2*pi/ulx,y,z
   ENINI  =  500.0     initial cutoff
   ENAUG  =  644.9 eV  augmentation charge cutoff
   NELM   =    600;   NELMIN=  2; NELMDL= -5     # of ELM steps 
   EDIFF  = 0.1E-03   stopping-criterion for ELM
   LREAL  =      T    real-space projection
   NLSPLINE    = F    spline interpolate recip. space projectors
   LCOMPAT=      F    compatible to vasp.4.4
   GGA_COMPAT  = F    GGA compatible to vasp.4.4-vasp.4.6
   LMAXPAW     = -100 max onsite density
   LMAXMIX     =    2 max onsite mixed and CHGCAR
   VOSKOWN=      0    Vosko Wilk Nusair interpolation
   ROPT   =   -0.00050  -0.00050  -0.00050  -0.00050
   ROPT   =   -0.00050
 Ionic relaxation
   EDIFFG = 0.1E-02   stopping-criterion for IOM
   NSW    =      0    number of steps for IOM
   NBLOCK =      1;   KBLOCK =      1    inner block; outer block 
   IBRION =     -1    ionic relax: 0-MD 1-quasi-New 2-CG
   NFREE  =      0    steps in history (QN), initial steepest desc. (CG)
   ISIF   =      2    stress and relaxation
   IWAVPR =     10    prediction:  0-non 1-charg 2-wave 3-comb
   ISYM   =      0    0-nonsym 1-usesym 2-fastsym
   LCORR  =      T    Harris-Foulkes like correction to forces

   POTIM  = 0.5000    time-step for ionic-motion
   TEIN   =    0.0    initial temperature
   TEBEG  =    0.0;   TEEND  =   0.0 temperature during run
   SMASS  =  -3.00    Nose mass-parameter (am)
   estimated Nose-frequenzy (Omega)   =  0.10E-29 period in steps = 0.13E+47 mass=  -0.745E-26a.u.
   SCALEE = 1.0000    scale energy and forces
   NPACO  =    256;   APACO  = 16.0  distance and # of slots for P.C.
   PSTRESS=    0.0 pullay stress

  Mass of Ions in am
   POMASS =   1.00 12.01 14.00126.90207.20
  Ionic Valenz
   ZVAL   =   1.00  4.00  5.00  7.00  4.00
  Atomic Wigner-Seitz radii
   RWIGS  =  -1.00 -1.00 -1.00 -1.00 -1.00
  virtual crystal weights 
   VCA    =   1.00  1.00  1.00  1.00  1.00
   NELECT =    1134.0000    total number of electrons
   NUPDOWN=      -1.0000    fix difference up-down

 DOS related values:
   EMIN   =  10.00;   EMAX   =-10.00  energy-range for DOS
   EFERMI =   0.00
   ISMEAR =     0;   SIGMA  =   0.05  broadening in eV -4-tet -1-fermi 0-gaus

 Electronic relaxation 2 (details)
   IALGO  =     38    algorithm
   LDIAG  =      T    sub-space diagonalisation (order eigenvalues)
   LSUBROT=      F    optimize rotation matrix (better conditioning)
   TURBO    =      0    0=normal 1=particle mesh
   IRESTART =      0    0=no restart 2=restart with 2 vectors
   NREBOOT  =      0    no. of reboots
   NMIN     =      0    reboot dimension
   EREF     =   0.00    reference energy to select bands
   IMIX   =      4    mixing-type and parameters
     AMIX     =   0.40;   BMIX     =  0.01
     AMIX_MAG =   1.60;   BMIX_MAG =  0.01
     AMIN     =   0.01
     WC   =   100.;   INIMIX=   1;  MIXPRE=   1;  MAXMIX= -45

 Intra band minimization:
   WEIMIN = 0.0000     energy-eigenvalue tresh-hold
   EBREAK =  0.34E-07  absolut break condition
   DEPER  =   0.30     relativ break condition  

   TIME   =   0.40     timestep for ELM

  volume/ion in A,a.u.               =      62.72       423.28
  Fermi-wavevector in a.u.,A,eV,Ry     =   0.624944  1.180972  5.313816  0.390554
  Thomas-Fermi vector in A             =   1.685677
 
 Write flags
   LWAVE        =      F    write WAVECAR
   LDOWNSAMPLE  =      F    k-point downsampling of WAVECAR
   LCHARG       =      T    write CHGCAR
   LVTOT        =      T    write LOCPOT, total local potential
   LVHAR        =      F    write LOCPOT, Hartree potential only
   LELF         =      F    write electronic localiz. function (ELF)
   LORBIT       =      0    0 simple, 1 ext, 2 COOP (PROOUT), +10 PAW based schemes


 Dipole corrections
   LMONO  =      F    monopole corrections only (constant potential shift)
   LDIPOL =      T    correct potential (dipole corrections)
   IDIPOL =      3    1-x, 2-y, 3-z, 4-all directions 
   EPSILON=  1.0000000 bulk dielectric constant

 Exchange correlation treatment:
   GGA     =    --    GGA type
   LEXCH   =     8    internal setting for exchange type
   VOSKOWN=      0    Vosko Wilk Nusair interpolation
   LHFCALC =     F    Hartree Fock is set to
   LHFONE  =     F    Hartree Fock one center treatment
   AEXX    =    0.0000 exact exchange contribution

 Linear response parameters
   LEPSILON=     F    determine dielectric tensor
   LRPA    =     F    only Hartree local field effects (RPA)
   LNABLA  =     F    use nabla operator in PAW spheres
   LVEL    =     F    velocity operator in full k-point grid
   LINTERFAST=   F  fast interpolation
   KINTER  =     0    interpolate to denser k-point grid
   CSHIFT  =0.1000    complex shift for real part using Kramers Kronig
   OMEGAMAX=  -1.0    maximum frequency
   DEG_THRESHOLD= 0.2000000E-02 threshold for treating states as degnerate
   RTIME   =   -0.100 relaxation time in fs
  (WPLASMAI=    0.000 imaginary part of plasma frequency in eV, 0.658/RTIME)
   DFIELD  = 0.0000000 0.0000000 0.0000000 field for delta impulse in time
 
 Orbital magnetization related:
   ORBITALMAG=     F  switch on orbital magnetization
   LCHIMAG   =     F  perturbation theory with respect to B field
   DQ        =  0.001000  dq finite difference perturbation B field
   LLRAUG    =     F  two centre corrections for induced B field



--------------------------------------------------------------------------------------------------------


 Static calculation
 charge density and potential will be updated during run
 non-spin polarized calculation
 Variant of blocked Davidson
 Davidson routine will perform the subspace rotation
 perform sub-space diagonalisation
    after iterative eigenvector-optimisation
 modified Broyden-mixing scheme, WC =      100.0
 initial mixing is a Kerker type mixing with AMIX =  0.4000 and BMIX =      0.0100
[...]
     13.54561      0.00000     45.35368         0.000022      0.000787      0.011549
     13.54315      9.03140     45.35368        -0.000239     -0.000513      0.011523
     14.46819      9.80219     33.03038        -0.228865      0.024822     -0.011806
     16.01397      9.54038     33.79749        -0.124811      0.107489     -0.016610
     14.62464     11.71470     34.21240         0.122036     -0.556401      0.209471
     14.43664     11.82225     36.00063         0.092389     -0.580828     -0.397834
     12.56781      8.95256     35.50289        -0.094793     -0.067986      0.124303
     12.66640     10.68008     35.94472         0.159046     -0.149724     -0.100209
     14.55985      8.09090     36.16900        -0.046143      0.473720     -0.495691
     15.94806      9.16359     36.42763        -0.182183      0.045172     -0.483660
     15.50537      7.27967     34.42897        -0.014160      0.073217      0.206159
     13.79028      7.47011     34.04472        -0.054854     -0.164829      0.123816
     14.15541      7.61291     31.74670        -0.169104      0.085905     -0.187646
     15.84766      8.03371     31.88622         0.226781      0.109645     -0.113764
     16.88414     11.30531     34.24173        -0.159064      0.053408     -0.273759
     16.92210     10.73506     35.91370        -0.108866      0.371889     -0.726248
     16.69572     12.44248     35.55854        -0.981996     -0.855965      0.050003
     11.24389     10.50193     33.99437        -0.092837     -0.167535      0.014446
     12.43562      9.53534     33.12542        -0.256627     -0.110580     -0.133038
     12.75265     11.25137     33.46882         0.031184      0.059635     -0.065699
     13.20227      9.13853     37.72544         0.049878     -0.423137     -0.252691
     14.01553     10.70556     37.61502        -0.184657     -0.608665     -0.173718
     14.76175      9.37381     38.49781         0.154286      0.438074     -0.553694
     14.83151      5.29947     32.78065        -0.184335     -0.149416     -0.005248
     15.14186      5.65417     31.08822        -0.092614     -0.243206     -0.184927
     16.75966      3.77889     31.13281        -0.107483     -0.224289     -0.018054
     17.37830      7.41742     33.30839        -0.135202     -0.575700     -0.267641
      1.14077      3.29038     31.27341         0.013910     -0.198927      0.032700
      1.69272      6.93760     33.50659         0.054145     -0.010247      0.126948
      2.65592      4.86265     32.50574        -0.112115     -0.109715      0.023930
     -0.00100      4.51527     34.74012        -0.227464     -0.459481      0.233976
     -0.00346     13.54667     34.74012         0.773483      0.596263     -0.166816
      9.02940      4.51527     34.74012        -0.020691      0.053506      0.031985
      9.02694     13.54667     34.74012        -0.056010      0.066247      0.010377
      4.51274      9.03140     34.74012         0.047729      0.042850      0.447389
      4.51520      0.00000     34.74012        -0.000444      0.004593      0.449711
     13.54560      0.00000     34.74012        -0.009671      0.005685      0.462029
     -0.00107      4.51554     40.52483        -0.052619      0.049112     -0.011282
     -0.00353     13.54694     40.52483        -0.029239      0.030001     -0.049571
      9.02933      4.51554     40.52483        -0.018862      0.020284     -0.027690
      9.02687     13.54694     40.52483        -0.008579      0.006707     -0.008586
      4.51273      9.03139     40.52358         0.008795      0.008150     -0.009670
      4.51027     18.06279     40.52358         0.000964      0.001018     -0.013819
     13.54313      9.03139     40.52358        -0.290231     -0.197317      0.273014
     13.54067     18.06279     40.52358         0.017525      0.018698     -0.010238
      9.02897      4.51561     46.44552         0.014162      0.001710      0.036827
      9.02651     13.54701     46.44552         0.012063      0.002955      0.037592
     18.05937      4.51561     46.44552         0.013197      0.001415      0.037002
     18.05691     13.54701     46.44552         0.011884      0.003889      0.037535
      4.51521      0.00002     46.44421         0.000299      0.000227      0.047042
      4.51275      9.03142     46.44421         0.002826      0.002144      0.046730
     13.54561      0.00002     46.44421         0.002815      0.003123      0.046251
     13.54315      9.03142     46.44421        -0.005833     -0.006133      0.047034
     16.88013      5.59297     32.28513        -0.171484      0.176081     -0.553088
     17.41344      4.42977     31.70575         0.389603      0.020635     -0.139250
     17.74792      6.46666     32.94115         0.098088     -0.325390     -1.544802
      0.72775      4.15425     31.78573        -0.132005      0.308033     -0.216896
      1.05133      6.19553     33.03928         0.117851      0.129178     -0.843966
      1.57950      5.03494     32.46700         0.242522      0.350012     -0.696957
     14.96006      9.29346     33.86138        -0.744647     -0.742670      0.062164
     14.92412     11.30643     35.17299         1.692935     -1.873141     -0.555411
     12.92853      9.93784     35.19439        -0.129436     -0.158726     -1.552256
     14.86337      9.12113     36.35887        -0.950608      0.612659     -1.024559
     14.79942      7.78213     33.76105        -0.093757      0.799292     -0.359228
     15.06662      7.39605     32.31058        -0.284377     -0.415205      0.085063
     16.43966     11.43263     35.23151        -0.971625      0.506848     -0.885318
     12.31621     10.33170     33.86468         0.189596     -0.173972     -0.158205
     14.17290      9.62746     37.61240        -0.031811     -0.678519     -0.733259
     15.41758      5.92360     32.11192         0.864214      0.534381     -0.855347
      0.82583      3.69582     35.34337        -0.023008     -0.033507      0.405705
      0.82337     12.72722     35.34337         0.381466      0.345932     -0.100390
      9.85623      3.69582     35.34337        -0.019773     -0.010058     -0.007516
      9.85377     12.72722     35.34337        -0.000958      0.028144      0.004685
      8.20195      5.33584     35.34368         0.026744     -0.048595     -0.039947
      8.19949     14.36724     35.34368         0.059232     -0.061958     -0.050833
     17.23235      5.33584     35.34368        -0.068468     -0.211790      0.893232
     17.22989     14.36724     35.34368         0.222792      0.359911     -0.100440
      3.68472      8.20304     35.34337         0.500972      0.516129      0.251709
      3.68226     17.23444     35.34337         0.514507      0.504390      0.227521
     12.71266     17.23444     35.34337         0.506428      0.536687      0.238558
      5.34323      0.82837     35.34368        -0.510484     -0.506565      0.210025
      5.34077      9.85977     35.34368        -0.548456     -0.527847      0.191633
     14.37362      0.82837     35.34368        -0.500507     -0.511887      0.205224
      0.82647      3.68716     41.11646         0.033300     -0.028520      0.011602
      0.82401     12.71856     41.11646         0.028807     -0.022598      0.020131
      9.85687      3.68716     41.11646         0.009828     -0.019928      0.008906
      9.85441     12.71856     41.11646         0.004613      0.003698      0.010010
      3.68472      8.20304     41.11534        -0.008767     -0.003881     -0.010269
      3.68226     17.23444     41.11534        -0.000224     -0.004479     -0.013131
     12.71512      8.20304     41.11534         0.024425      0.030273      0.072621
     12.71266     17.23444     41.11534        -0.009907     -0.015617     -0.008129
      8.20124      5.34449     41.11659         0.006483     -0.016067     -0.007368
      8.19878     14.37589     41.11659         0.007736     -0.008502     -0.014495
     17.23164      5.34449     41.11659         0.048005     -0.036238      0.008550
     17.22918     14.37589     41.11659         0.013489     -0.009250      0.000564
      5.34323      0.82837     41.11534         0.000697      0.000902     -0.009045
      5.34077      9.85977     41.11534        -0.006973     -0.001502     -0.012550
     14.37362      0.82837     41.11534        -0.008047     -0.012346     -0.010276
     14.37117      9.85977     41.11534         0.002361     -0.005172      0.012530
      0.82731      3.68697     47.03596         0.021151     -0.022545     -0.084563
      0.82485     12.71837     47.03596         0.020759     -0.024266     -0.084530
      9.85771      3.68697     47.03596         0.019901     -0.023104     -0.083755
      9.85525     12.71837     47.03596         0.022204     -0.022831     -0.084362
      3.68432      8.20234     47.03465        -0.015541     -0.013834     -0.070552
      3.68186     17.23373     47.03465        -0.012858     -0.013164     -0.071246
     12.71472      8.20234     47.03465        -0.008780     -0.008255     -0.072220
     12.71226     17.23373     47.03465        -0.014447     -0.015808     -0.069805
      8.20068      5.34457     47.03603        -0.023039      0.020829     -0.085578
      8.19822     14.37597     47.03603        -0.021440      0.020031     -0.087021
     17.23108      5.34457     47.03603        -0.021130      0.022336     -0.086250
     17.22862     14.37597     47.03603        -0.021260      0.018557     -0.087230
      5.34365      0.82909     47.03465         0.011647      0.011635     -0.069018
      5.34119      9.86049     47.03465         0.009978      0.010885     -0.069168
     14.37405      0.82909     47.03465         0.010928      0.009818     -0.068119
     14.37159      9.86049     47.03465         0.015633      0.015386     -0.067970
     14.43186      9.87774     35.13034         0.087130      0.894472      0.512928
      9.03040      0.00000     34.48710        -0.007791     -0.005236      0.023280
      9.02794      9.03140     34.48710        -0.358178     -0.111918      0.134603
      0.00000      0.00000     34.48710        -0.006349     -0.041972      0.014692
     -0.00246      9.03140     34.48710         3.054784      0.343472      1.198082
      4.51399      4.51570     34.48823         0.252208     -0.025690      0.188602
      4.51153     13.54710     34.48823        -0.014147     -0.008405     -0.002196
     13.54439      4.51570     34.48823        -0.623965     -0.618046      0.837846
     13.54193     13.54710     34.48823        -1.818657      3.974008     -0.626813
      0.00000      0.00000     40.86032         0.000581     -0.004860      0.046099
     -0.00246      9.03140     40.86032        -0.011155      0.003125     -0.097012
      9.03040      0.00000     40.86032        -0.000644     -0.004793      0.034057
      9.02794      9.03140     40.86032         0.001978      0.006957      0.058413
      4.51397      4.51570     40.86114        -0.002518      0.001628      0.024833
      4.51151     13.54710     40.86114        -0.001794     -0.001475      0.026915
     13.54437      4.51570     40.86114        -0.005745     -0.004762      0.079615
     13.54191     13.54710     40.86114        -0.012086      0.000383     -0.064327
      2.58504      1.93018     37.95603         0.012354     -0.017552     -0.003801
      2.58258     10.96158     37.95603        -0.051128     -0.036075     -0.039851
     11.61544      1.93018     37.95603        -0.024441     -0.026488     -0.010375
     11.61298     10.96158     37.95603        -2.533797      1.446605      1.346306
      6.44289      7.10124     37.95603        -0.016013     -0.003375     -0.015713
      6.44043     16.13264     37.95603        -0.007229     -0.019479     -0.019651
     15.47329      7.10124     37.95603         1.510303     -3.545730      2.257012
     15.47083     16.13264     37.95603        -0.037999     -0.075192     -0.036353
      1.92885      6.44661     37.95822        -0.028582      0.092975     -0.043230
      1.92639     15.47801     37.95822         0.004848     -0.018841     -0.029251
     10.95925      6.44661     37.95822         0.038598      0.063687     -0.071452
     10.95679     15.47801     37.95822         0.062675     -0.052766     -0.026656
      7.09909      2.58480     37.95822        -0.006168     -0.010635     -0.020715
      7.09663     11.61620     37.95822        -0.047616      0.031878     -0.025415
     16.12949      2.58480     37.95822         0.009446     -0.066535     -0.011835
     16.12703     11.61620     37.95822         1.846662      2.086632      3.516542
      0.00000      0.00000     47.17356         0.000161     -0.000680      0.427217
     -0.00246      9.03140     47.17356         0.000391      0.000657      0.395007
      9.03040      0.00000     47.17356        -0.000196     -0.000626      0.422991
      9.02794      9.03140     47.17356         0.000039      0.000810      0.433479
      4.51398      4.51570     47.17425        -0.000408      0.000269      0.420614
      4.51152     13.54710     47.17425        -0.000340     -0.000269      0.420033
     13.54438      4.51570     47.17425         0.000556      0.000364      0.440903
     13.54192     13.54710     47.17425         0.000491     -0.000075      0.400664
      2.45192      2.06295     44.04013         0.000147      0.000677     -0.038498
      2.44946     11.09435     44.04013        -0.002765     -0.002748     -0.040293
     11.48232      2.06295     44.04013        -0.005070     -0.004686     -0.036730
     11.47986     11.09435     44.04013         0.006122      0.007057     -0.040671
      6.57602      6.96845     44.04013        -0.003083     -0.001764     -0.038018
      6.57356     15.99985     44.04013        -0.001760     -0.003547     -0.039550
     15.60642      6.96845     44.04013         0.009895      0.011318     -0.038448
     15.60396     15.99985     44.04013        -0.003568     -0.004815     -0.038698
      2.06108      6.57881     44.04000        -0.002346      0.006538     -0.041269
      2.05862     15.61021     44.04000         0.003634     -0.001269     -0.039429
     11.09148      6.57881     44.04000        -0.001474      0.003946     -0.035497
     11.08902     15.61021     44.04000         0.004236     -0.002851     -0.040294
      6.96686      2.45259     44.04007        -0.002602     -0.001450     -0.040054
      6.96440     11.48399     44.04007        -0.005952      0.003235     -0.039545
     15.99726      2.45259     44.04007         0.003322     -0.006491     -0.037392
     15.99481     11.48399     44.04007        -0.000781     -0.003660     -0.042395
      2.43163      2.08322     50.06849         0.010322     -0.010363      0.024975
      2.42917     11.11462     50.06849         0.007163     -0.013349      0.024419
     11.46203      2.08322     50.06849         0.009834     -0.011190      0.025344
     11.45957     11.11462     50.06849         0.013997     -0.006955      0.024662
      6.59631      6.94818     50.06849        -0.010867      0.010339      0.025166
      6.59385     15.97958     50.06849        -0.011355      0.009118      0.024972
     15.62671      6.94818     50.06849        -0.005372      0.015674      0.024781
     15.62425     15.97958     50.06849        -0.013047      0.007143      0.024662
      2.08113      6.59901     50.06905        -0.013932     -0.006148      0.024821
      2.07867     15.63041     50.06905        -0.009587     -0.011006      0.025099
     11.11153      6.59901     50.06905        -0.010559     -0.008980      0.025454
     11.10907     15.63041     50.06905        -0.006604     -0.013760      0.025053
      6.94681      2.43239     50.06905         0.009598      0.010458      0.025287
      6.94435     11.46379     50.06905         0.009053      0.011189      0.025155
     15.97721      2.43239     50.06905         0.011421      0.008989      0.025403
     15.97475     11.46379     50.06905         0.011188      0.009660      0.024423
      0.00001      0.00002     37.63041        -0.004146      0.077842      0.000824
     -0.00245      9.03142     37.63041         0.634346     -0.243225      0.679674
      9.03041      0.00002     37.63041         0.013212      0.042620      0.015333
      9.02795      9.03142     37.63041         0.059950     -0.065931     -0.018125
      4.51397      4.51569     37.63091         0.006825     -0.007898      0.040131
      4.51151     13.54709     37.63091         0.030984      0.008911      0.054757
     13.54437      4.51569     37.63091        -0.010733      0.067520      0.022163
     13.54191     13.54709     37.63091        -0.153988      0.521208      0.530622
      0.00001      0.00001     44.04300        -0.002358      0.006440     -0.055117
     -0.00245      9.03141     44.04300        -0.004988     -0.006375     -0.002581
      9.03041      0.00001     44.04300         0.003856      0.007045     -0.044810
      9.02795      9.03141     44.04300         0.003533     -0.008301     -0.066835
      4.51397      4.51569     44.04275         0.004151     -0.000593     -0.041022
      4.51151     13.54709     44.04275         0.002723      0.003208     -0.039400
     13.54437      4.51569     44.04275        -0.006114     -0.000927     -0.083737
     13.54191     13.54709     44.04275        -0.006102      0.002512     -0.013719
      0.00000      0.00000     50.44728         0.001092      0.003030     -0.633876
     -0.00246      9.03140     50.44728         0.000700     -0.003149     -0.624299
      9.03040      0.00000     50.44728        -0.000446      0.003191     -0.632758
      9.02794      9.03140     50.44728        -0.000883     -0.003032     -0.635855
      4.51397      4.51570     50.44728         0.003239     -0.002229     -0.632420
      4.51151     13.54710     50.44728         0.002835      0.002755     -0.631855
     13.54437      4.51570     50.44728        -0.002789     -0.002496     -0.638466
     13.54191     13.54710     50.44728        -0.003106      0.002397     -0.626443
 -----------------------------------------------------------------------------------
    total drift:                               -0.024270     -0.014763      0.118349


--------------------------------------------------------------------------------------------------------



  FREE ENERGIE OF THE ION-ELECTRON SYSTEM (eV)
  ---------------------------------------------------
  free  energy   TOTEN  =     -1564.00014184 eV

  energy  without entropy=    -1564.00014184  energy(sigma->0) =    -1564.00014184
 


--------------------------------------------------------------------------------------------------------


    POTLOK:  cpu time    0.5019: real time    0.5018


--------------------------------------------------------------------------------------------------------


     LOOP+:  cpu time  365.6630: real time  365.6552
 vacuum level on the upper side and lower side of the slab         2.452         1.404
    4ORBIT:  cpu time    0.0000: real time    0.0000

 total amount of memory used by VASP MPI-rank0  8653586. kBytes
=======================================================================

   base      :      30000. kBytes
   nonlr-proj:      53624. kBytes
   fftplans  :     249280. kBytes
   grid      :     701440. kBytes
   one-center:       2636. kBytes
   wavefun   :    7616606. kBytes
 
  
  
 General timing and accounting informations for this job:
 ========================================================
  
                  Total CPU time used (sec):      516.018
                            User time (sec):      402.718
                          System time (sec):      113.300
                         Elapsed time (sec):      515.718
  
                   Maximum memory used (kb):    10337164.
                   Average memory used (kb):          N/A
  
                          Minor page faults:      3796363
                          Major page faults:           11
                 Voluntary context switches:        10630
