 vasp.6.2.1 16May21 (build Nov 15 2021 14:57:28) complex                         
 executed on             LinuxPGI date 2023.07.24  21:49:03
 running on    4 total cores
 distrk:  each k-point on    4 cores,    1 groups
 distr:  one band on NCORE=   1 cores,    4 groups


--------------------------------------------------------------------------------------------------------


 INCAR:
   SYSTEM = PSC
   ISTART = 1
   ICHARG = 1
   PREC = Normal
   ENCUT = 500
   GGA_COMPAT = F
   NELM = 600
   ISYM = 0
   LREAL = Auto
   ISMEAR = 0
   SIGMA = 0.05
   AMIN = 0.01
   BMIX = 0.01
   LVTOT = T
   LWAVE = F
   LDIPOL = T
   IDIPOL = 3
   LVDW = T
   IVDW = 12

 POTCAR:    PAW_PBE H 15Jun2001                   
 POTCAR:    PAW_PBE C 08Apr2002                   
 POTCAR:    PAW_PBE N 08Apr2002                   
 POTCAR:    PAW_PBE I 08Apr2002                   
 POTCAR:    PAW_PBE Pb 08Apr2002                  
 WARNING: For LVTOT=.TRUE., VASP.5.x writes the TOTAL local potential to the
     file LOCPOT. If you want only the Hartree contributions, use LVHAR=.TRUE.
     instead. 

 POTCAR:    PAW_PBE H 15Jun2001                   
   SHA256 =  030f79b5d3ab3cf0e668861823c8fb652ff669f3e15e46930bd03bfd63a607b6 H/POTCAR              
   COPYR  = (c) Copyright 15Jun2001 Georg Kresse                                                    
   COPYR  = This file is part of the software VASP. Any use, copying, and all other rights are regul
   COPYR  = If you do not have a valid VASP license, you may not use, copy or distribute this file. 
   VRHFIN =H: ultrasoft test                                                                        
   LEXCH  = PE                                                                                      
   EATOM  =    12.4884 eV,    0.9179 Ry                                                             
                                                                                                    
   TITEL  = PAW_PBE H 15Jun2001                                                                     
   LULTRA =        F    use ultrasoft PP ?                                                          
   IUNSCR =        0    unscreen: 0-lin 1-nonlin 2-no                                               
   RPACOR =    0.000    partial core radius                                                         
   POMASS =    1.000; ZVAL   =    1.000    mass and valenz                                          
   RCORE  =    1.100    outmost cutoff radius                                                       
   RWIGS  =    0.700; RWIGS  =    0.370    wigner-seitz radius (au A)                               
   ENMAX  =  250.000; ENMIN  =  200.000 eV                                                          
   RCLOC  =    0.701    cutoff for local pot                                                        
   LCOR   =        T    correct aug charges                                                         
   LPAW   =        T    paw PP                                                                      
   EAUG   =  400.000                                                                                
   RMAX   =    1.123    core radius for proj-oper                                                   
   RAUG   =    1.200    factor for augmentation sphere                                              
   RDEP   =    1.112    radius for radial grids                                                     
   RDEPT  =    0.926    core radius for aug-charge                                                  
                                                                                                    
   Atomic configuration                                                                             
    2 entries                                                                                       
     n  l   j            E        occ.                                                              
     1  0  0.50        -6.4927   1.0000                                                             
     2  1  0.50        -3.4015   0.0000                                                             
   Description                                                                                      
     l       E           TYP  RCUT    TYP  RCUT                                                     
     0     -6.4927494     23  1.100                                                                 
     0      6.8029130     23  1.100                                                                 
     1     -4.0817478     23  1.100                                                                 
  local pseudopotential read in
  atomic valenz-charges read in
  non local Contribution for L=            0  read in
    real space projection operators read in
  non local Contribution for L=            0  read in
    real space projection operators read in
  non local Contribution for L=            1  read in
    real space projection operators read in
    PAW grid and wavefunctions read in
 
   number of l-projection  operators is LMAX  =            3
   number of lm-projection operators is LMMAX =            5
 
 POTCAR:    PAW_PBE C 08Apr2002                   
   SHA256 =  253f7b50bb8d59471dbedb8285d89021f4a42ed1a2c5d38a03a736e69125dd95 C/POTCAR              
   COPYR  = (c) Copyright 08Apr2002 Georg Kresse                                                    
   COPYR  = This file is part of the software VASP. Any use, copying, and all other rights are regul
   COPYR  = If you do not have a valid VASP license, you may not use, copy or distribute this file. 
   VRHFIN =C: s2p2                                                                                  
   LEXCH  = PE                                                                                      
   EATOM  =   147.1560 eV,   10.8157 Ry                                                             
                                                                                                    
   TITEL  = PAW_PBE C 08Apr2002                                                                     
   LULTRA =        F    use ultrasoft PP ?                                                          
   IUNSCR =        1    unscreen: 0-lin 1-nonlin 2-no                                               
   RPACOR =    1.200    partial core radius                                                         
   POMASS =   12.011; ZVAL   =    4.000    mass and valenz                                          
   RCORE  =    1.500    outmost cutoff radius                                                       
   RWIGS  =    1.630; RWIGS  =    0.863    wigner-seitz radius (au A)                               
   ENMAX  =  400.000; ENMIN  =  300.000 eV                                                          
   ICORE  =        2    local potential                                                             
   LCOR   =        T    correct aug charges                                                         
   LPAW   =        T    paw PP                                                                      
   EAUG   =  644.873                                                                                
   DEXC   =    0.000                                                                                
   RMAX   =    1.529    core radius for proj-oper                                                   
   RAUG   =    1.300    factor for augmentation sphere                                              
   RDEP   =    1.501    radius for radial grids                                                     
   RDEPT  =    1.300    core radius for aug-charge                                                  
                                                                                                    
   Atomic configuration                                                                             
    4 entries                                                                                       
     n  l   j            E        occ.                                                              
     1  0  0.50      -273.3789   2.0000                                                             
     2  0  0.50       -13.7508   2.0000                                                             
     2  1  0.50        -5.2854   2.0000                                                             
     3  2  1.50        -5.4423   0.0000                                                             
   Description                                                                                      
     l       E           TYP  RCUT    TYP  RCUT                                                     
     0    -13.7508458     23  1.200                                                                 
     0     -8.2022199     23  1.200                                                                 
     1     -5.2854383     23  1.500                                                                 
     1     34.0145650     23  1.500                                                                 
     2     -5.4423304      7  1.500                                                                 
  local pseudopotential read in
  partial core-charges read in
  partial kinetic energy density read in
  atomic valenz-charges read in
  non local Contribution for L=            0  read in
    real space projection operators read in
  non local Contribution for L=            0  read in
    real space projection operators read in
  non local Contribution for L=            1  read in
    real space projection operators read in
  non local Contribution for L=            1  read in
    real space projection operators read in
    PAW grid and wavefunctions read in
 
   number of l-projection  operators is LMAX  =            4
   number of lm-projection operators is LMMAX =            8
 
 POTCAR:    PAW_PBE N 08Apr2002                   
   SHA256 =  e053789ff3a61a86a1b75d8a110fcc91f86041011e7b0817c7c99e4e8a6349d7 N/POTCAR              
   COPYR  = (c) Copyright 08Apr2002 Georg Kresse                                                    
   COPYR  = This file is part of the software VASP. Any use, copying, and all other rights are regul
   COPYR  = If you do not have a valid VASP license, you may not use, copy or distribute this file. 
   VRHFIN =N: s2p3                                                                                  
   LEXCH  = PE                                                                                      
   EATOM  =   264.5486 eV,   19.4438 Ry                                                             
                                                                                                    
   TITEL  = PAW_PBE N 08Apr2002                                                                     
   LULTRA =        F    use ultrasoft PP ?                                                          
   IUNSCR =        1    unscreen: 0-lin 1-nonlin 2-no                                               
   RPACOR =    1.200    partial core radius                                                         
   POMASS =   14.001; ZVAL   =    5.000    mass and valenz                                          
   RCORE  =    1.500    outmost cutoff radius                                                       
   RWIGS  =    1.400; RWIGS  =    0.741    wigner-seitz radius (au A)                               
   ENMAX  =  400.000; ENMIN  =  300.000 eV                                                          
   ICORE  =        2    local potential                                                             
   LCOR   =        T    correct aug charges                                                         
   LPAW   =        T    paw PP                                                                      
   EAUG   =  627.112                                                                                
   DEXC   =    0.000                                                                                
   RMAX   =    1.529    core radius for proj-oper                                                   
   RAUG   =    1.300    factor for augmentation sphere                                              
   RDEP   =    1.514    radius for radial grids                                                     
   RDEPT  =    1.338    core radius for aug-charge                                                  
                                                                                                    
   Atomic configuration                                                                             
    4 entries                                                                                       
     n  l   j            E        occ.                                                              
     1  0  0.50      -384.7179   2.0000                                                             
     2  0  0.50       -18.5828   2.0000                                                             
     2  1  0.50        -7.0898   3.0000                                                             
     3  2  1.50        -6.8029   0.0000                                                             
   Description                                                                                      
     l       E           TYP  RCUT    TYP  RCUT                                                     
     0    -18.5828119     23  1.200                                                                 
     0    -13.5018863     23  1.200                                                                 
     1     -7.0897853     23  1.500                                                                 
     1      9.5240782     23  1.500                                                                 
     2     -6.8029130      7  1.500                                                                 
  local pseudopotential read in
  partial core-charges read in
  partial kinetic energy density read in
  atomic valenz-charges read in
  non local Contribution for L=            0  read in
    real space projection operators read in
  non local Contribution for L=            0  read in
    real space projection operators read in
  non local Contribution for L=            1  read in
    real space projection operators read in
  non local Contribution for L=            1  read in
    real space projection operators read in
    PAW grid and wavefunctions read in
 
   number of l-projection  operators is LMAX  =            4
   number of lm-projection operators is LMMAX =            8
 
 POTCAR:    PAW_PBE I 08Apr2002                   
   SHA256 =  e40f3f59b681c1fc3e3091736183c4589116986673d2b852a5012aec72758799 I/POTCAR              
   COPYR  = (c) Copyright 08Apr2002 Georg Kresse                                                    
   COPYR  = This file is part of the software VASP. Any use, copying, and all other rights are regul
   COPYR  = If you do not have a valid VASP license, you may not use, copy or distribute this file. 
   VRHFIN =I : s2p5                                                                                 
   LEXCH  = PE                                                                                      
   EATOM  =   315.8678 eV,   23.2156 Ry                                                             
                                                                                                    
   TITEL  = PAW_PBE I 08Apr2002                                                                     
   LULTRA =        F    use ultrasoft PP ?                                                          
   IUNSCR =        1    unscreen: 0-lin 1-nonlin 2-no                                               
   RPACOR =    2.200    partial core radius                                                         
   POMASS =  126.904; ZVAL   =    7.000    mass and valenz                                          
   RCORE  =    2.300    outmost cutoff radius                                                       
   RWIGS  =    2.810; RWIGS  =    1.487    wigner-seitz radius (au A)                               
   ENMAX  =  175.647; ENMIN  =  131.735 eV                                                          
   ICORE  =        3    local potential                                                             
   LCOR   =        T    correct aug charges                                                         
   LPAW   =        T    paw PP                                                                      
   EAUG   =  370.139                                                                                
   DEXC   =    0.000                                                                                
   RMAX   =    2.359    core radius for proj-oper                                                   
   RAUG   =    1.300    factor for augmentation sphere                                              
   RDEP   =    2.392    radius for radial grids                                                     
   RDEPT  =    2.170    core radius for aug-charge                                                  
                                                                                                    
   Atomic configuration                                                                             
   13 entries                                                                                       
     n  l   j            E        occ.                                                              
     1  0  0.50    -32976.3739   2.0000                                                             
     2  0  0.50     -5094.5933   2.0000                                                             
     2  1  1.50     -4572.0131   6.0000                                                             
     3  0  0.50     -1028.2813   2.0000                                                             
     3  1  1.50      -859.0250   6.0000                                                             
     3  2  2.50      -605.7620  10.0000                                                             
     4  0  0.50      -180.5540   2.0000                                                             
     4  1  1.50      -127.5306   6.0000                                                             
     4  2  2.50       -50.2720  10.0000                                                             
     5  0  0.50       -17.4058   2.0000                                                             
     5  1  0.50        -7.0851   5.0000                                                             
     5  2  1.50        -7.0750   0.0000                                                             
     4  3  2.50        -7.0750   0.0000                                                             
   Description                                                                                      
     l       E           TYP  RCUT    TYP  RCUT                                                     
     0    -17.4058016     23  2.300                                                                 
     0    -18.7663842     23  2.300                                                                 
     1     -7.0850686     23  2.300                                                                 
     1     -4.2150896     23  2.300                                                                 
     2     -7.0750295     23  2.300                                                                 
     3     -1.3605826     23  2.300                                                                 
  local pseudopotential read in
  partial core-charges read in
  partial kinetic energy density read in
  atomic valenz-charges read in
  non local Contribution for L=            0  read in
    real space projection operators read in
  non local Contribution for L=            0  read in
    real space projection operators read in
  non local Contribution for L=            1  read in
    real space projection operators read in
  non local Contribution for L=            1  read in
    real space projection operators read in
  non local Contribution for L=            2  read in
    real space projection operators read in
    PAW grid and wavefunctions read in
 
   number of l-projection  operators is LMAX  =            5
   number of lm-projection operators is LMMAX =           13
 
 POTCAR:    PAW_PBE Pb 08Apr2002                  
   SHA256 =  797118a27cf1bcd06b9881c67a26cdde129e3cd1a551dd4a281f9681ce847303 Pb/POTCAR             
   COPYR  = (c) Copyright 08Apr2002 Georg Kresse                                                    
   COPYR  = This file is part of the software VASP. Any use, copying, and all other rights are regul
   COPYR  = If you do not have a valid VASP license, you may not use, copy or distribute this file. 
   VRHFIN =Pb:                                                                                      
   LEXCH  = PE                                                                                      
   EATOM  =    96.9868 eV,    7.1283 Ry                                                             
                                                                                                    
   TITEL  = PAW_PBE Pb 08Apr2002                                                                    
   LULTRA =        F    use ultrasoft PP ?                                                          
   IUNSCR =        1    unscreen: 0-lin 1-nonlin 2-no                                               
   RPACOR =    2.200    partial core radius                                                         
   POMASS =  207.200; ZVAL   =    4.000    mass and valenz                                          
   RCORE  =    3.100    outmost cutoff radius                                                       
   RWIGS  =    3.260; RWIGS  =    1.725    wigner-seitz radius (au A)                               
   ENMAX  =   97.973; ENMIN  =   73.480 eV                                                          
   ICORE  =        3    local potential                                                             
   LCOR   =        T    correct aug charges                                                         
   LPAW   =        T    paw PP                                                                      
   EAUG   =  234.873                                                                                
   DEXC   =    0.000                                                                                
   RMAX   =    3.158    core radius for proj-oper                                                   
   RAUG   =    1.300    factor for augmentation sphere                                              
   RDEP   =    3.202    radius for radial grids                                                     
   RDEPT  =    2.659    core radius for aug-charge                                                  
                                                                                                    
   Atomic configuration                                                                             
   17 entries                                                                                       
     n  l   j            E        occ.                                                              
     1  0  0.50    -88091.8466   2.0000                                                             
     2  0  0.50    -15753.4197   2.0000                                                             
     2  1  1.50    -13508.1797   6.0000                                                             
     3  0  0.50     -3781.7194   2.0000                                                             
     3  1  1.50     -3138.2529   6.0000                                                             
     3  2  2.50     -2483.2977  10.0000                                                             
     4  0  0.50      -856.2895   2.0000                                                             
     4  1  1.50      -645.4943   6.0000                                                             
     4  2  2.50      -401.8768  10.0000                                                             
     4  3  3.50      -132.9059  14.0000                                                             
     5  0  0.50      -144.0950   2.0000                                                             
     5  1  1.50       -85.7879   6.0000                                                             
     5  2  2.50       -21.1769  10.0000                                                             
     6  0  0.50       -12.0372   2.0000                                                             
     6  1  1.50        -3.4971   2.0000                                                             
     6  2  2.50        -1.3606   0.0000                                                             
     5  3  2.50        -2.7212   0.0000                                                             
   Description                                                                                      
     l       E           TYP  RCUT    TYP  RCUT                                                     
     0    -12.0371566     23  3.100                                                                 
     0    -13.3977392     23  3.100                                                                 
     1     -3.4971341     23  3.100                                                                 
     1     -5.4423304     23  3.100                                                                 
     2     -1.3605826     23  3.100                                                                 
     3     -1.3605826     23  3.100                                                                 
  local pseudopotential read in
  partial core-charges read in
  partial kinetic energy density read in
  atomic valenz-charges read in
  non local Contribution for L=            0  read in
    real space projection operators read in
  non local Contribution for L=            0  read in
    real space projection operators read in
  non local Contribution for L=            1  read in
    real space projection operators read in
  non local Contribution for L=            1  read in
    real space projection operators read in
  non local Contribution for L=            2  read in
    real space projection operators read in
    PAW grid and wavefunctions read in
 
   number of l-projection  operators is LMAX  =            5
   number of lm-projection operators is LMMAX =           13
 
 Optimization of the real space projectors (new method)

 maximal supplied QI-value         = 34.20
 optimisation between [QCUT,QGAM] = [ 11.29, 22.57] = [ 35.68,142.71] Ry 
 Optimized for a Real-space Cutoff    1.16 Angstroem

   l    n(q)    QCUT    max X(q) W(low)/X(q) W(high)/X(q)  e(spline) 
   0      8    11.287    19.460    0.40E-03    0.73E-03    0.16E-06
   0      8    11.287    12.209    0.38E-03    0.70E-03    0.15E-06
   1      7    11.287     4.655    0.22E-03    0.25E-04    0.22E-06
 Optimization of the real space projectors (new method)

 maximal supplied QI-value         = 25.13
 optimisation between [QCUT,QGAM] = [ 11.31, 22.87] = [ 35.82,146.48] Ry 
 Optimized for a Real-space Cutoff    1.00 Angstroem

   l    n(q)    QCUT    max X(q) W(low)/X(q) W(high)/X(q)  e(spline) 
   0      7    11.310   115.676    0.43E-03    0.13E-02    0.19E-06
   0      7    11.310    87.132    0.43E-03    0.13E-02    0.18E-06
   1      6    11.310     4.429    0.42E-03    0.74E-03    0.11E-06
   1      6    11.310     2.733    0.34E-03    0.55E-03    0.92E-07
 Optimization of the real space projectors (new method)

 maximal supplied QI-value         = 25.13
 optimisation between [QCUT,QGAM] = [ 11.31, 22.87] = [ 35.82,146.48] Ry 
 Optimized for a Real-space Cutoff    1.27 Angstroem

   l    n(q)    QCUT    max X(q) W(low)/X(q) W(high)/X(q)  e(spline) 
   0      9    11.310    79.467    0.75E-04    0.16E-03    0.36E-06
   0      9    11.310    66.151    0.74E-04    0.16E-03    0.36E-06
   1      8    11.310    17.416    0.35E-03    0.12E-03    0.95E-06
   1      8    11.310    12.382    0.37E-03    0.13E-03    0.98E-06
 Optimization of the real space projectors (new method)

 maximal supplied QI-value         = 16.25
 optimisation between [QCUT,QGAM] = [ 11.38, 22.75] = [ 36.24,144.96] Ry 
 Optimized for a Real-space Cutoff    1.31 Angstroem

   l    n(q)    QCUT    max X(q) W(low)/X(q) W(high)/X(q)  e(spline) 
   0      9    11.376   194.483    0.24E-03    0.23E-03    0.67E-07
   0      9    11.376   190.334    0.23E-03    0.22E-03    0.65E-07
   1      8    11.376   116.687    0.25E-03    0.63E-04    0.16E-06
   1      8    11.376    88.696    0.25E-03    0.61E-04    0.16E-06
   2      8    11.376     4.877    0.17E-03    0.14E-03    0.29E-07
 Optimization of the real space projectors (new method)

 maximal supplied QI-value         = 12.09
 optimisation between [QCUT,QGAM] = [ 11.37, 22.86] = [ 36.19,146.31] Ry 
 Optimized for a Real-space Cutoff    1.66 Angstroem

   l    n(q)    QCUT    max X(q) W(low)/X(q) W(high)/X(q)  e(spline) 
   0     11    11.369   135.111    0.12E-03    0.69E-04    0.19E-05
   0     11    11.369   146.850    0.11E-03    0.65E-04    0.18E-05
   1     11    11.369   148.016    0.17E-03    0.32E-03    0.89E-06
   1     11    11.369   122.989    0.17E-03    0.32E-03    0.91E-06
   2     10    11.369     8.916    0.12E-03    0.45E-04    0.33E-06
  PAW_PBE H 15Jun2001                   :
 energy of atom  1       EATOM=  -12.4884
 kinetic energy error for atom=    0.0020 (will be added to EATOM!!)
  PAW_PBE C 08Apr2002                   :
 energy of atom  2       EATOM= -147.1560
 kinetic energy error for atom=    0.0076 (will be added to EATOM!!)
  PAW_PBE N 08Apr2002                   :
 energy of atom  3       EATOM= -264.5486
 kinetic energy error for atom=    0.0138 (will be added to EATOM!!)
  PAW_PBE I 08Apr2002                   :
 energy of atom  4       EATOM= -315.8678
 kinetic energy error for atom=    0.0009 (will be added to EATOM!!)
  PAW_PBE Pb 08Apr2002                  :
 energy of atom  5       EATOM=  -96.9868
 kinetic energy error for atom=    0.0000 (will be added to EATOM!!)
 
 
 POSCAR:  H  C  N  I Pb
  positions in cartesian coordinates
  No initial velocities read in
 exchange correlation table for  LEXCH =        8
   RHO(1)=    0.500       N(1)  =     2000
   RHO(2)=  100.500       N(2)  =     4000
 


--------------------------------------------------------------------------------------------------------


 ion  position               nearest neighbor table
   1  0.445  0.304  0.580- 187 1.07
   2  0.443  0.817  0.581- 188 1.07
   3  0.968  0.311  0.578- 189 1.06
   4  0.970  0.809  0.582- 190 1.04
   5  0.314  0.025  0.582- 194 1.01
   6  0.302  0.551  0.581- 195 1.00
   7  0.777  0.062  0.583- 196 1.00
   8  0.071  0.140  0.562- 183 1.05
   9  0.064  0.654  0.556- 184 1.00
  10  0.591  0.188  0.556- 185 1.03
  11  0.563  0.667  0.560- 186 1.02
  12  0.340  0.065  0.557- 194 1.07
  13  0.310  0.596  0.556- 195 1.07
  14  0.828  0.083  0.560- 196 1.07
  15  0.037  0.187  0.585- 183 1.07
  16  0.045  0.689  0.582- 184 1.06
  17  0.570  0.239  0.580- 185 1.07
  18  0.517  0.695  0.582- 186 1.02
  19  0.216  0.440  0.582- 191 1.00
  20  0.195  0.950  0.582- 192 1.00
  21  0.691  0.952  0.581- 193 1.00
  22  0.392  0.294  0.558- 187 1.01
  23  0.448  0.863  0.556- 188 1.02
  24  0.962  0.337  0.552- 189 1.02
  25  0.943  0.843  0.558- 190 1.01
  26  0.171  0.416  0.558- 191 1.07
  27  0.145  0.947  0.558- 192 1.07
  28  0.689  0.903  0.557- 193 1.08
  29  0.480  0.219  0.539- 146 1.08
  30  0.524  0.774  0.540- 147 1.09
  31  0.024  0.233  0.539- 144 1.09
  32  0.000  0.745  0.538- 145 1.06
  33  0.227  0.512  0.539- 148 1.10
  34  0.235  0.020  0.540- 149 1.10
  35  0.774  0.982  0.541- 150 1.10
  36  0.456  0.308  0.676- 205 1.07
  37  0.441  0.807  0.675- 206 1.06
  38  0.949  0.294  0.677- 207 1.06
  39  0.944  0.804  0.676- 208 1.01
  40  0.297  0.050  0.676- 209 1.07
  41  0.300  0.559  0.675- 210 1.06
  42  0.804  0.048  0.674- 211 1.07
  43  0.803  0.572  0.674- 212 1.02
  44  0.083  0.171  0.649- 197 0.99
  45  0.086  0.682  0.653- 198 0.99
  46  0.570  0.162  0.650- 199 0.99
  47  0.571  0.670  0.651- 200 1.06
  48  0.183  0.416  0.649- 201 1.01
  49  0.170  0.919  0.648- 202 1.00
  50  0.682  0.418  0.656- 203 1.02
  51  0.663  0.928  0.649- 204 1.00
  52  0.056  0.196  0.675- 197 1.01
  53  0.043  0.702  0.678- 198 1.00
  54  0.558  0.204  0.675- 199 1.02
  55  0.543  0.700  0.677- 200 1.05
  56  0.208  0.444  0.675- 201 1.07
  57  0.194  0.945  0.675- 202 1.06
  58  0.700  0.464  0.679- 203 1.04
  59  0.691  0.955  0.675- 204 1.06
  60  0.415  0.322  0.651- 205 1.01
  61  0.417  0.832  0.649- 206 1.00
  62  0.919  0.323  0.652- 207 1.06
  63  0.930  0.840  0.651- 208 1.02
  64  0.327  0.077  0.650- 209 1.01
  65  0.324  0.589  0.650- 210 1.00
  66  0.835  0.069  0.649- 211 1.01
  67  0.834  0.581  0.647- 212 1.08
  68  0.999  0.249  0.633- 151 1.06
  69  0.020  0.769  0.635- 152 1.06
  70  0.479  0.232  0.633- 153 1.10
  71  0.494  0.751  0.633- 154 1.07
  72  0.251  0.999  0.632- 156 1.07
  73  0.254  0.506  0.631- 155 1.07
  74  0.748  0.994  0.631- 158 1.08
  75  0.761  0.484  0.635- 157 1.09
  76  0.449  0.301  0.769- 221 1.02
  77  0.449  0.801  0.769- 222 1.02
  78  0.949  0.301  0.769- 223 1.02
  79  0.949  0.801  0.769- 224 1.02
  80  0.301  0.051  0.769- 225 1.02
  81  0.301  0.551  0.769- 226 1.02
  82  0.801  0.051  0.769- 227 1.02
  83  0.801  0.551  0.769- 228 1.02
  84  0.079  0.171  0.743- 213 1.02
  85  0.079  0.671  0.743- 214 1.02
  86  0.579  0.171  0.743- 215 1.02
  87  0.579  0.671  0.743- 216 1.02
  88  0.171  0.421  0.743- 217 1.02
  89  0.171  0.921  0.743- 218 1.02
  90  0.671  0.421  0.743- 219 1.02
  91  0.671  0.921  0.743- 220 1.02
  92  0.051  0.199  0.769- 213 1.02
  93  0.051  0.699  0.769- 214 1.02
  94  0.551  0.199  0.769- 215 1.02
  95  0.551  0.699  0.769- 216 1.02
  96  0.199  0.449  0.769- 217 1.02
  97  0.199  0.949  0.769- 218 1.02
  98  0.699  0.449  0.769- 219 1.02
  99  0.699  0.949  0.769- 220 1.02
 100  0.421  0.329  0.743- 221 1.02
 101  0.421  0.829  0.743- 222 1.02
 102  0.921  0.329  0.743- 223 1.02
 103  0.921  0.829  0.743- 224 1.02
 104  0.329  0.079  0.743- 225 1.02
 105  0.329  0.579  0.743- 226 1.02
 106  0.829  0.079  0.743- 227 1.02
 107  0.829  0.579  0.743- 228 1.02
 108  0.000  0.250  0.726- 161 1.09
 109  0.000  0.750  0.726- 162 1.09
 110  0.500  0.250  0.726- 159 1.09
 111  0.500  0.750  0.726- 160 1.09
 112  0.250  0.000  0.726- 163 1.09
 113  0.250  0.500  0.726- 164 1.09
 114  0.750  0.000  0.726- 165 1.09
 115  0.750  0.500  0.726- 166 1.09
 116  0.782  0.563  0.527- 173 1.12
 117  0.729  0.478  0.529- 173 1.10
 118  0.870  0.506  0.549- 174 1.09
 119  0.850  0.482  0.576- 174 1.09
 120  0.740  0.641  0.567- 175 1.08
 121  0.798  0.592  0.585- 175 1.09
 122  0.649  0.537  0.572- 176 1.12
 123  0.672  0.448  0.562- 176 1.11
 124  0.620  0.546  0.540- 177 1.09
 125  0.669  0.631  0.544- 177 1.13
 126  0.621  0.658  0.510- 178 1.10
 127  0.699  0.607  0.502- 178 1.13
 128  0.828  0.392  0.535- 179 1.09
 129  0.759  0.389  0.555- 179 1.08
 130  0.848  0.362  0.562- 179 1.08
 131  0.857  0.692  0.560- 180 1.09
 132  0.849  0.628  0.540- 180 1.08
 133  0.902  0.605  0.562- 180 1.08
 134  0.764  0.505  0.600- 181 1.13
 135  0.740  0.413  0.593- 181 1.09
 136  0.673  0.472  0.605- 181 1.11
 137  0.543  0.542  0.510- 182 1.14
 138  0.579  0.563  0.484- 182 1.11
 139  0.724  0.499  0.478- 168 1.14
 140  0.553  0.420  0.521- 169 1.09
 141  0.785  0.375  0.480- 170 1.14
 142  0.618  0.298  0.523- 171 1.09
 143  0.735  0.274  0.503- 172 1.14
 144  0.017  0.237  0.556-  31 1.09 183 1.29 189 1.32
 145  0.003  0.748  0.555-  32 1.06 190 1.32 184 1.32
 146  0.490  0.241  0.555-  29 1.08 187 1.29 185 1.33
 147  0.506  0.766  0.557-  30 1.09 188 1.29 186 1.33
 148  0.241  0.507  0.556-  33 1.10 195 1.30 191 1.34
 149  0.243  0.007  0.557-  34 1.10 194 1.30 192 1.34
 150  0.758  0.992  0.557-  35 1.10 193 1.29 196 1.34
 151  0.001  0.247  0.650-  68 1.06 207 1.29 197 1.36
 152  0.008  0.763  0.651-  69 1.06 208 1.31 198 1.37
 153  0.491  0.242  0.650-  70 1.10 205 1.27 199 1.36
 154  0.494  0.751  0.650-  71 1.07 200 1.30 206 1.31
 155  0.253  0.501  0.649-  73 1.07 201 1.29 210 1.36
 156  0.249  0.999  0.649-  72 1.07 209 1.28 202 1.36
 157  0.758  0.499  0.652-  75 1.09 212 1.29 203 1.33
 158  0.750  0.999  0.648-  74 1.08 211 1.28 204 1.35
 159  0.500  0.250  0.743- 110 1.09 221 1.31 215 1.31
 160  0.500  0.750  0.743- 111 1.09 222 1.31 216 1.31
 161  1.000  0.250  0.743- 108 1.09 223 1.31 213 1.31
 162  1.000  0.750  0.743- 109 1.09 224 1.31 214 1.31
 163  0.250  0.000  0.743- 112 1.09 225 1.31 218 1.31
 164  0.250  0.500  0.743- 113 1.09 226 1.31 217 1.31
 165  0.750  0.000  0.743- 114 1.09 227 1.31 220 1.31
 166  0.750  0.500  0.743- 115 1.09 228 1.31 219 1.31
 167  0.632  0.467  0.500- 169 1.41 168 1.43 182 1.53
 168  0.697  0.453  0.488- 139 1.14 170 1.37 167 1.43
 169  0.603  0.409  0.512- 140 1.09 171 1.37 167 1.41
 170  0.732  0.386  0.489- 141 1.14 168 1.37 172 1.39
 171  0.639  0.341  0.513- 142 1.09 169 1.37 172 1.40
 172  0.704  0.329  0.502- 143 1.14 170 1.39 171 1.40
 173  0.735  0.535  0.535- 117 1.10 116 1.12 177 1.48 229 1.53
 174  0.830  0.479  0.559- 119 1.09 118 1.09 179 1.47 229 1.57
 175  0.785  0.602  0.568- 120 1.08 121 1.09 180 1.50 229 1.50
 176  0.694  0.494  0.571- 123 1.11 122 1.12 181 1.52 229 1.54
 177  0.666  0.579  0.534- 124 1.09 125 1.13 173 1.48 178 1.53
 178  0.644  0.602  0.511- 126 1.10 127 1.13 182 1.53 177 1.53
 179  0.817  0.402  0.552- 129 1.08 130 1.08 128 1.09 174 1.47
 180  0.852  0.632  0.557- 132 1.08 133 1.08 131 1.09 175 1.50
 181  0.719  0.469  0.593- 135 1.09 136 1.11 134 1.13 176 1.52
 182  0.595  0.544  0.500- 138 1.11 137 1.14 178 1.53 167 1.53
 183  0.043  0.186  0.568-   8 1.05  15 1.07 144 1.29
 184  0.040  0.694  0.565-   9 1.00  16 1.06 145 1.32
 185  0.553  0.220  0.564-  10 1.03  17 1.07 146 1.33
 186  0.531  0.707  0.567-  11 1.02  18 1.02 147 1.33
 187  0.441  0.282  0.565-  22 1.01   1 1.07 146 1.29
 188  0.463  0.817  0.565-  23 1.02   2 1.07 147 1.29
 189  0.979  0.296  0.562-  24 1.02   3 1.06 144 1.32
 190  0.970  0.803  0.566-  25 1.01   4 1.04 145 1.32
 191  0.209  0.450  0.567-  19 1.00  26 1.07 148 1.34
 192  0.192  0.965  0.567-  20 1.00  27 1.07 149 1.34
 193  0.709  0.949  0.566-  21 1.00  28 1.08 150 1.29
 194  0.301  0.033  0.567-   5 1.01  12 1.07 149 1.30
 195  0.286  0.552  0.566-   6 1.00  13 1.07 148 1.30
 196  0.790  0.048  0.568-   7 1.00  14 1.07 150 1.34
 197  0.051  0.201  0.659-  44 0.99  52 1.01 151 1.36
 198  0.050  0.711  0.662-  45 0.99  53 1.00 152 1.37
 199  0.544  0.199  0.659-  46 0.99  54 1.02 153 1.36
 200  0.537  0.706  0.660-  55 1.05  47 1.06 154 1.30
 201  0.213  0.452  0.658-  48 1.01  56 1.07 155 1.29
 202  0.201  0.951  0.658-  49 1.00  57 1.06 156 1.36
 203  0.711  0.459  0.663-  50 1.02  58 1.04 157 1.33
 204  0.698  0.958  0.658-  51 1.00  59 1.06 158 1.35
 205  0.453  0.292  0.659-  60 1.01  36 1.07 153 1.27
 206  0.449  0.799  0.658-  61 1.00  37 1.06 154 1.31
 207  0.956  0.289  0.660-  62 1.06  38 1.06 151 1.29
 208  0.957  0.804  0.660-  39 1.01  63 1.02 152 1.31
 209  0.292  0.043  0.659-  64 1.01  40 1.07 156 1.28
 210  0.295  0.553  0.658-  65 1.00  41 1.06 155 1.36
 211  0.798  0.040  0.658-  66 1.01  42 1.07 158 1.28
 212  0.799  0.553  0.659-  43 1.02  67 1.08 157 1.29
 213  0.046  0.204  0.753-  92 1.02  84 1.02 161 1.31
 214  0.046  0.704  0.753-  93 1.02  85 1.02 162 1.31
 215  0.546  0.204  0.753-  94 1.02  86 1.02 159 1.31
 216  0.546  0.704  0.753-  95 1.02  87 1.02 160 1.31
 217  0.204  0.454  0.753-  96 1.02  88 1.02 164 1.31
 218  0.204  0.954  0.753-  97 1.02  89 1.02 163 1.31
 219  0.704  0.454  0.753-  98 1.02  90 1.02 166 1.31
 220  0.704  0.954  0.753-  99 1.02  91 1.02 165 1.31
 221  0.454  0.296  0.753-  76 1.02 100 1.02 159 1.31
 222  0.454  0.796  0.753-  77 1.02 101 1.02 160 1.31
 223  0.954  0.296  0.753-  78 1.02 102 1.02 161 1.31
 224  0.954  0.796  0.753-  79 1.02 103 1.02 162 1.31
 225  0.296  0.046  0.753-  80 1.02 104 1.02 163 1.31
 226  0.296  0.546  0.753-  81 1.02 105 1.02 164 1.31
 227  0.796  0.046  0.753-  82 1.02 106 1.02 165 1.31
 228  0.796  0.546  0.753-  83 1.02 107 1.02 166 1.31
 229  0.759  0.530  0.559- 175 1.50 173 1.53 176 1.54 174 1.57
 230  0.494  0.015  0.552- 304 3.15
 231  0.476  0.519  0.558- 305 3.11
 232  1.000  0.996  0.552- 302 3.21
 233  0.027  0.482  0.550- 303 3.38
 234  0.250  0.250  0.552- 306 3.15
 235  0.249  0.750  0.552- 307 3.12
 236  0.756  0.223  0.556- 308 3.16
 237  0.731  0.775  0.548- 309 3.57
 238  0.006  0.999  0.654- 310 3.15 302 3.18
 239  0.009  0.506  0.654- 311 3.16 303 3.18
 240  0.503  0.002  0.654- 312 3.15 304 3.28
 241  0.501  0.493  0.656- 313 3.05 305 3.08
 242  0.248  0.249  0.655- 314 3.14 306 3.29
 243  0.246  0.751  0.654- 315 3.15 307 3.27
 244  0.743  0.251  0.655- 316 3.09 308 3.12
 245  0.755  0.759  0.654- 309 3.08 317 3.20
 246  0.143  0.104  0.610- 302 3.17 306 3.26
 247  0.144  0.604  0.607- 303 3.12 307 3.27
 248  0.644  0.100  0.608- 304 3.12 308 3.20
 249  0.623  0.628  0.613- 309 3.31 305 3.36
 250  0.353  0.394  0.608- 305 3.14 306 3.29
 251  0.354  0.892  0.609- 307 3.21 304 3.37
 252  0.883  0.369  0.614- 303 3.32 308 3.39
 253  0.856  0.896  0.607- 309 3.16 302 3.26
 254  0.108  0.358  0.608- 303 3.23 306 3.29
 255  0.109  0.859  0.608- 307 3.23 302 3.26
 256  0.582  0.335  0.609- 305 3.32 308 3.37
 257  0.608  0.861  0.609- 309 3.15 304 3.29
 258  0.388  0.139  0.608- 304 3.17 306 3.18
 259  0.385  0.637  0.610- 307 3.22 305 3.23
 260  0.895  0.139  0.610- 302 3.15 308 3.31
 261  0.914  0.660  0.614- 303 3.34 309 3.53
 262  0.000  0.000  0.755- 310 3.13 318 3.27
 263  0.000  0.500  0.755- 311 3.13 319 3.27
 264  0.500  0.000  0.755- 312 3.13 320 3.27
 265  0.500  0.500  0.755- 313 3.13 321 3.27
 266  0.250  0.250  0.755- 314 3.13 322 3.27
 267  0.250  0.750  0.755- 315 3.13 323 3.27
 268  0.750  0.250  0.755- 316 3.13 324 3.27
 269  0.750  0.750  0.755- 317 3.13 325 3.27
 270  0.136  0.114  0.705- 310 3.20 314 3.20
 271  0.136  0.614  0.705- 311 3.20 315 3.20
 272  0.636  0.114  0.705- 312 3.20 316 3.20
 273  0.636  0.614  0.705- 313 3.20 317 3.20
 274  0.364  0.386  0.705- 313 3.20 314 3.20
 275  0.364  0.886  0.705- 312 3.20 315 3.20
 276  0.864  0.386  0.705- 311 3.20 316 3.20
 277  0.864  0.886  0.705- 310 3.20 317 3.20
 278  0.114  0.364  0.705- 314 3.21 311 3.21
 279  0.114  0.864  0.705- 315 3.21 310 3.21
 280  0.614  0.364  0.705- 316 3.21 313 3.21
 281  0.614  0.864  0.705- 317 3.21 312 3.21
 282  0.386  0.136  0.705- 314 3.21 312 3.21
 283  0.386  0.636  0.705- 315 3.21 313 3.21
 284  0.886  0.136  0.705- 316 3.21 310 3.21
 285  0.886  0.636  0.705- 317 3.21 311 3.21
 286  0.135  0.115  0.801- 318 3.22 322 3.22
 287  0.135  0.615  0.801- 319 3.22 323 3.22
 288  0.635  0.115  0.801- 320 3.22 324 3.22
 289  0.635  0.615  0.801- 321 3.22 325 3.22
 290  0.365  0.385  0.801- 321 3.22 322 3.22
 291  0.365  0.885  0.801- 320 3.22 323 3.22
 292  0.865  0.385  0.801- 319 3.22 324 3.22
 293  0.865  0.885  0.801- 318 3.22 325 3.22
 294  0.115  0.365  0.801- 319 3.23 322 3.23
 295  0.115  0.865  0.801- 318 3.23 323 3.23
 296  0.615  0.365  0.801- 321 3.23 324 3.23
 297  0.615  0.865  0.801- 320 3.23 325 3.23
 298  0.385  0.135  0.801- 320 3.23 322 3.23
 299  0.385  0.635  0.801- 321 3.23 323 3.23
 300  0.885  0.135  0.801- 318 3.23 324 3.23
 301  0.885  0.635  0.801- 319 3.23 325 3.23
 302  0.001  0.002  0.604- 260 3.15 246 3.17 238 3.18 232 3.21 255 3.26 253 3.26
 303  0.004  0.503  0.604- 247 3.12 239 3.18 254 3.23 252 3.32 261 3.34 233 3.38
 304  0.500  0.005  0.602- 248 3.12 230 3.15 258 3.17 240 3.28 257 3.29 251 3.37
 305  0.494  0.496  0.607- 241 3.08 231 3.11 250 3.14 259 3.23 256 3.32 249 3.36
 306  0.250  0.246  0.602- 234 3.15 258 3.18 246 3.26 250 3.29 242 3.29 254 3.29
 307  0.250  0.750  0.602- 235 3.12 251 3.21 259 3.22 255 3.23 247 3.27 243 3.27
 308  0.746  0.245  0.606- 244 3.12 236 3.16 248 3.20 260 3.31 256 3.37 252 3.39
 309  0.748  0.759  0.604- 245 3.08 257 3.15 253 3.16 249 3.31 261 3.53 237 3.57
 310  0.000  0.000  0.705- 262 3.13 238 3.15 270 3.20 277 3.20 279 3.21 284 3.21
 311  0.000  0.500  0.705- 263 3.13 239 3.16 271 3.20 276 3.20 278 3.21 285 3.21
 312  0.500  0.000  0.705- 264 3.13 240 3.15 272 3.20 275 3.20 281 3.21 282 3.21
 313  0.500  0.500  0.705- 241 3.05 265 3.13 273 3.20 274 3.20 280 3.21 283 3.21
 314  0.250  0.250  0.705- 266 3.13 242 3.14 270 3.20 274 3.20 282 3.21 278 3.21
 315  0.250  0.750  0.705- 267 3.13 243 3.15 271 3.20 275 3.20 283 3.21 279 3.21
 316  0.750  0.250  0.705- 244 3.09 268 3.13 272 3.20 276 3.20 284 3.21 280 3.21
 317  0.750  0.750  0.705- 269 3.13 245 3.20 273 3.20 277 3.20 285 3.21 281 3.21
 318  0.000  0.000  0.807- 286 3.22 293 3.22 300 3.23 295 3.23 262 3.27
 319  0.000  0.500  0.807- 287 3.22 292 3.22 301 3.23 294 3.23 263 3.27
 320  0.500  0.000  0.807- 288 3.22 291 3.22 298 3.23 297 3.23 264 3.27
 321  0.500  0.500  0.807- 289 3.22 290 3.22 299 3.23 296 3.23 265 3.27
 322  0.250  0.250  0.807- 290 3.22 286 3.22 294 3.23 298 3.23 266 3.27
 323  0.250  0.750  0.807- 291 3.22 287 3.22 299 3.23 295 3.23 267 3.27
 324  0.750  0.250  0.807- 292 3.22 288 3.22 296 3.23 300 3.23 268 3.27
 325  0.750  0.750  0.807- 293 3.22 289 3.22 297 3.23 301 3.23 269 3.27
 

IMPORTANT INFORMATION: All symmetrisations will be switched off!
NOSYMM: (Re-)initialisation of all symmetry stuff for point group C_1.


----------------------------------------------------------------------------------------

                                     Primitive cell                                     

  volume of cell :   20385.2105

  direct lattice vectors                    reciprocal lattice vectors
    18.060800552  0.000000000  0.000000000     0.055368531  0.000015077 -0.000000000
    -0.004918649 18.062799454  0.000000000     0.000000000  0.055362404  0.000000000
     0.000000000  0.000000000 62.487499237     0.000000000 -0.000000000  0.016003201

  length of vectors
    18.060800552 18.062800123 62.487499237     0.055368533  0.055362404  0.016003201

  position of ions in fractional coordinates (direct lattice)
     0.445148522  0.304216905  0.580321577
     0.442510138  0.816659977  0.580656727
     0.968341636  0.310617175  0.578329723
     0.969712781  0.809092641  0.582169481
     0.314285158  0.025141976  0.582182056
     0.302048055  0.550920269  0.581013854
     0.777273672  0.061777965  0.583019443
     0.070874602  0.140346972  0.561838266
     0.063819275  0.654420345  0.555985044
     0.591236021  0.188051663  0.556236559
     0.563317098  0.667353037  0.559700814
     0.339605706  0.065397604  0.557413003
     0.309836712  0.595522660  0.555994323
     0.827945972  0.082949633  0.559634212
     0.037051822  0.186507621  0.585384784
     0.045291350  0.688909652  0.581544356
     0.569528225  0.239066995  0.579684120
     0.517430429  0.695016235  0.582233458
     0.216270163  0.439738867  0.582417028
     0.194927347  0.950340273  0.582395905
     0.690735596  0.952301001  0.581204871
     0.391919353  0.294423776  0.557546514
     0.448114469  0.862901420  0.556355846
     0.962325414  0.336611437  0.551829489
     0.942937834  0.842592308  0.557515318
     0.171158212  0.415670902  0.558301609
     0.145238240  0.947215764  0.558085623
     0.688623582  0.903329987  0.556507487
     0.480247598  0.219016434  0.539453661
     0.524033211  0.773985336  0.540228658
     0.023697672  0.232551864  0.538765780
     0.000320873  0.745452243  0.538265680
     0.226621153  0.511779907  0.539431745
     0.234713279  0.020494910  0.540124755
     0.774326043  0.981981279  0.540756168
     0.456339708  0.307716442  0.675817484
     0.441280134  0.806971018  0.674928451
     0.949203832  0.294378475  0.677092336
     0.943971758  0.804434564  0.676100133
     0.296810127  0.049519949  0.675630618
     0.299563121  0.558680106  0.675215435
     0.804392895  0.048040983  0.674454601
     0.803109611  0.572126942  0.673990397
     0.082833623  0.171353070  0.648974651
     0.085538685  0.681920451  0.653257063
     0.570347501  0.162201209  0.650378253
     0.570893211  0.670135001  0.651400002
     0.182579487  0.416250119  0.649196742
     0.169516647  0.918653405  0.648480961
     0.681585172  0.418053293  0.655658056
     0.662621800  0.927578619  0.649267496
     0.055533199  0.195659100  0.674655386
     0.042903437  0.702080303  0.677513258
     0.558093335  0.203908490  0.675137538
     0.542837807  0.699865229  0.676950828
     0.207803360  0.444372657  0.674858613
     0.193501193  0.945410304  0.674564181
     0.699762480  0.464212767  0.679130158
     0.691384526  0.954533024  0.674910442
     0.415022584  0.321531225  0.651120650
     0.417115020  0.831909749  0.649225861
     0.918994786  0.323091582  0.651541998
     0.930257848  0.840460020  0.650743072
     0.326639625  0.076988792  0.650473181
     0.323612910  0.589187463  0.649517973
     0.835152159  0.069311359  0.648855182
     0.834416811  0.580574416  0.647459700
     0.999296439  0.249363497  0.632660597
     0.020484315  0.768679220  0.634793898
     0.479486378  0.231797913  0.633213565
     0.493603662  0.751393252  0.632587463
     0.251313037  0.998731903  0.631556678
     0.254052206  0.505987893  0.631489587
     0.748472503  0.994295063  0.631158100
     0.760841765  0.484175103  0.634677297
     0.448745018  0.301283966  0.768889017
     0.448745007  0.801283913  0.768889017
     0.948744965  0.301283966  0.768889017
     0.948745007  0.801283913  0.768889017
     0.301275995  0.051294496  0.768872961
     0.301276011  0.551294499  0.768872961
     0.801275943  0.051294496  0.768872961
     0.801275984  0.551294499  0.768872961
     0.078771004  0.171180501  0.743441971
     0.078771006  0.671180448  0.743441971
     0.578771004  0.171180501  0.743441971
     0.578770992  0.671180448  0.743441971
     0.171199499  0.421174482  0.743421032
     0.171199501  0.921174508  0.743421032
     0.671199512  0.421174482  0.743421032
     0.671199501  0.921174508  0.743421032
     0.051256000  0.198714991  0.768889017
     0.051256002  0.698714925  0.768889017
     0.551256027  0.198714991  0.768889017
     0.551256016  0.698714925  0.768889017
     0.198723491  0.448703970  0.768872046
     0.198723493  0.948703970  0.768872046
     0.698723518  0.448703970  0.768872046
     0.698723507  0.948703970  0.768872046
     0.421231519  0.328817467  0.743441971
     0.421231508  0.828817440  0.743441971
     0.921231466  0.328817467  0.743441971
     0.921231508  0.828817440  0.743441971
     0.328800503  0.078824997  0.743421032
     0.328800492  0.578824964  0.743421032
     0.828800477  0.078824997  0.743421032
     0.828800519  0.578824964  0.743421032
     0.000003500  0.250001478  0.725821992
     0.000003500  0.750001452  0.725821992
     0.500003506  0.250001478  0.725821992
     0.500003495  0.750001452  0.725821992
     0.250000502  0.000000000  0.725803983
     0.250000517  0.500000000  0.725803983
     0.750000502  0.000000000  0.725803983
     0.750000490  0.500000000  0.725803983
     0.781799946  0.563397000  0.526658927
     0.729486451  0.478017729  0.528671964
     0.870281570  0.505963237  0.548789269
     0.849816055  0.481646304  0.575692904
     0.740248033  0.640913320  0.567335459
     0.797826082  0.592075920  0.584833893
     0.649146985  0.536842290  0.572135796
     0.671968530  0.447692894  0.561577349
     0.620183624  0.546019270  0.540237876
     0.669413402  0.630660112  0.543781065
     0.620557155  0.657693064  0.510458207
     0.699203860  0.607068092  0.502247917
     0.827713955  0.392018191  0.535497060
     0.759279654  0.388889637  0.554828746
     0.847978119  0.362198841  0.561577227
     0.856578525  0.691720602  0.559729201
     0.849156564  0.628318058  0.539763294
     0.902433154  0.604773768  0.562050100
     0.764381594  0.505447509  0.599920712
     0.740133949  0.413181253  0.592760100
     0.672830519  0.471625564  0.604866037
     0.542756616  0.541729720  0.510107429
     0.578849458  0.562793364  0.483774098
     0.723835423  0.499179154  0.477972920
     0.553213673  0.419971037  0.521257212
     0.785272121  0.374639748  0.479725498
     0.617954948  0.297853383  0.523409254
     0.735109546  0.273823327  0.503473168
     0.016587499  0.237336761  0.556059583
     0.003235486  0.748418630  0.555209315
     0.489707864  0.241444634  0.555237397
     0.505587121  0.766168795  0.556723229
     0.240984031  0.506532396  0.556458466
     0.243185613  0.007329414  0.557114054
     0.757812658  0.992159488  0.557429364
     0.000651159  0.247399819  0.649673033
     0.007532274  0.762608804  0.651313742
     0.491320569  0.242336809  0.650279966
     0.494097537  0.751212262  0.649668882
     0.252574009  0.501185097  0.648621492
     0.249231723  0.998891015  0.648746151
     0.758232132  0.499386966  0.651505004
     0.749969016  0.999362682  0.648318392
     0.499988984  0.249994984  0.743277021
     0.499989025  0.749994958  0.743277021
     0.999988984  0.249994984  0.743277021
     0.999989025  0.749994958  0.743277021
     0.250000502  0.000001000  0.743255960
     0.250000517  0.500001003  0.743255960
     0.750000502  0.000001000  0.743255960
     0.750000491  0.500001003  0.743255960
     0.631543207  0.467138551  0.499578346
     0.697445841  0.452619817  0.487562393
     0.603073151  0.408509210  0.512093361
     0.732042898  0.385589754  0.489020051
     0.638828184  0.341457738  0.513050004
     0.704460857  0.328577263  0.501591902
     0.734795353  0.534755830  0.535086150
     0.829856248  0.479076112  0.559236366
     0.784888780  0.601537427  0.568007774
     0.694482271  0.494412525  0.571082668
     0.665607740  0.578681196  0.533643967
     0.644367258  0.601589380  0.510842318
     0.816976999  0.402335232  0.552383921
     0.851943895  0.632356555  0.557060943
     0.718994639  0.469442538  0.593216734
     0.595075421  0.543649234  0.500036415
     0.043238290  0.186135846  0.568319665
     0.039586737  0.694214132  0.564740457
     0.553214302  0.220440520  0.564166856
     0.531412885  0.706930934  0.566768024
     0.440766504  0.281688653  0.564599987
     0.463087772  0.816803112  0.564593394
     0.979062425  0.296194162  0.562235257
     0.970126357  0.802566792  0.565564841
     0.208695682  0.450266306  0.566884014
     0.192344420  0.965261468  0.567010443
     0.709330456  0.948758879  0.566116709
     0.301433498  0.033030579  0.566689578
     0.286254526  0.552321890  0.565610504
     0.790136816  0.047973596  0.567997640
     0.050947712  0.200504516  0.658680389
     0.049516781  0.710769485  0.661890321
     0.544161128  0.199091465  0.659368515
     0.536629112  0.706453907  0.660417431
     0.212942778  0.451677431  0.657987990
     0.200654173  0.951036466  0.657805153
     0.711088136  0.459298779  0.662953583
     0.697633892  0.957686548  0.658097204
     0.452957319  0.292184335  0.659397940
     0.448841624  0.799102840  0.658313983
     0.955561746  0.288795541  0.660250161
     0.957355076  0.804369411  0.660484949
     0.292404351  0.043288698  0.658708654
     0.294758261  0.553439670  0.658413185
     0.798180452  0.040286102  0.657608336
     0.798888595  0.552522046  0.658812251
     0.045862501  0.204119496  0.752725994
     0.045862500  0.704119456  0.752725994
     0.545862507  0.204119496  0.752725994
     0.545862496  0.704119456  0.752725994
     0.204119002  0.454101003  0.752704994
     0.204118991  0.954100951  0.752704994
     0.704118976  0.454101003  0.752704994
     0.704118964  0.954100951  0.752704994
     0.454140018  0.295888490  0.752726971
     0.454140007  0.795888516  0.752726971
     0.954140018  0.295888490  0.752726971
     0.954140060  0.795888516  0.752726971
     0.295882492  0.045900498  0.752704994
     0.295882481  0.545900528  0.752704994
     0.795882439  0.045900498  0.752704994
     0.795882481  0.545900528  0.752704994
     0.758890826  0.529520093  0.558512405
     0.494143612  0.014544559  0.551653795
     0.475923987  0.519144394  0.557806820
     0.999983689  0.996401924  0.552186311
     0.026926200  0.482173067  0.550113081
     0.250169123  0.250479060  0.551555814
     0.248890325  0.750224100  0.552024474
     0.755552647  0.223208228  0.555584757
     0.730853454  0.774758559  0.547663556
     0.005544848  0.999115469  0.654410370
     0.008591631  0.506303095  0.654365378
     0.503258270  0.001845995  0.654450539
     0.501356741  0.492891845  0.656052117
     0.248220158  0.248883302  0.654579471
     0.245794753  0.750742204  0.654365073
     0.742726452  0.250731987  0.655458553
     0.754891370  0.758664446  0.653666874
     0.142763293  0.103957099  0.609534024
     0.143736633  0.604333435  0.607245236
     0.643551752  0.100354560  0.607738987
     0.622853628  0.628396621  0.613254616
     0.353446534  0.394485401  0.608467831
     0.353897235  0.891990684  0.608536449
     0.883259842  0.369482812  0.613607043
     0.855788275  0.896497179  0.606943357
     0.107823258  0.357898520  0.607606453
     0.109406186  0.859015825  0.608215645
     0.582455516  0.334580785  0.608582173
     0.608254179  0.860841359  0.609429266
     0.388430073  0.138650912  0.607576662
     0.384796533  0.636768384  0.610193885
     0.894520328  0.138650688  0.609516320
     0.913845117  0.660060618  0.613879192
     0.000000000  0.000000000  0.754927972
     0.000000000  0.500000000  0.754927972
     0.500000000  0.000000000  0.754927972
     0.499999989  0.500000000  0.754927972
     0.250000496  0.250000000  0.754939022
     0.250000511  0.749999974  0.754939022
     0.750000470  0.250000000  0.754939022
     0.750000458  0.749999974  0.754939022
     0.135790500  0.114209997  0.704782994
     0.135790502  0.614209984  0.704782994
     0.635790447  0.114209997  0.704782994
     0.635790488  0.614209984  0.704782994
     0.364209516  0.385789989  0.704782994
     0.364209505  0.885789963  0.704782994
     0.864209542  0.385789989  0.704782994
     0.864209531  0.885789963  0.704782994
     0.114217990  0.364218986  0.704780979
     0.114217992  0.864218986  0.704780979
     0.614218004  0.364218986  0.704780979
     0.614217992  0.864218986  0.704780979
     0.385782012  0.135781489  0.704782017
     0.385782001  0.635781489  0.704782017
     0.885781985  0.135781489  0.704782017
     0.885782027  0.635781489  0.704782017
     0.134667000  0.115332001  0.801256025
     0.134666989  0.615331988  0.801256025
     0.634666987  0.115332001  0.801256025
     0.634666976  0.615331988  0.801256025
     0.365333002  0.384667985  0.801256025
     0.365332990  0.884667959  0.801256025
     0.865332949  0.384667985  0.801256025
     0.865332938  0.884667959  0.801256025
     0.115328503  0.365337004  0.801264999
     0.115328505  0.865336978  0.801264999
     0.615328503  0.365337004  0.801264999
     0.615328492  0.865336978  0.801264999
     0.384671513  0.134662996  0.801264999
     0.384671501  0.634662970  0.801264999
     0.884671486  0.134662996  0.801264999
     0.884671528  0.634662970  0.801264999
     0.001357389  0.002374156  0.603566155
     0.004461322  0.502898330  0.603532579
     0.500388162  0.005247147  0.601992476
     0.494425350  0.495697357  0.606842323
     0.250348343  0.246230614  0.601965798
     0.249721944  0.749893586  0.601987714
     0.745825737  0.245038758  0.605632609
     0.748299208  0.758824898  0.604374422
     0.000000500  0.000000500  0.704828963
     0.000000500  0.500000475  0.704828963
     0.500000475  0.000000500  0.704828963
     0.500000464  0.500000475  0.704828963
     0.249999994  0.249999472  0.704824995
     0.250000010  0.749999498  0.704824995
     0.749999994  0.249999472  0.704824995
     0.749999983  0.749999498  0.704824995
     0.000000000  0.000000000  0.807317968
     0.000000000  0.500000000  0.807317968
     0.500000000  0.000000000  0.807317968
     0.499999989  0.500000000  0.807317968
     0.249999994  0.250000000  0.807317968
     0.250000010  0.749999974  0.807317968
     0.749999994  0.250000000  0.807317968
     0.749999983  0.749999974  0.807317968

  ion indices of the primitive-cell ions
   primitive index   ion index
                 1           1
                 2           2
                 3           3
                 4           4
                 5           5
                 6           6
                 7           7
                 8           8
                 9           9
                10          10
                11          11
                12          12
                13          13
                14          14
                15          15
                16          16
                17          17
                18          18
                19          19
                20          20
                21          21
                22          22
                23          23
                24          24
                25          25
                26          26
                27          27
                28          28
                29          29
                30          30
                31          31
                32          32
                33          33
                34          34
                35          35
                36          36
                37          37
                38          38
                39          39
                40          40
                41          41
                42          42
                43          43
                44          44
                45          45
                46          46
                47          47
                48          48
                49          49
                50          50
                51          51
                52          52
                53          53
                54          54
                55          55
                56          56
                57          57
                58          58
                59          59
                60          60
                61          61
                62          62
                63          63
                64          64
                65          65
                66          66
                67          67
                68          68
                69          69
                70          70
                71          71
                72          72
                73          73
                74          74
                75          75
                76          76
                77          77
                78          78
                79          79
                80          80
                81          81
                82          82
                83          83
                84          84
                85          85
                86          86
                87          87
                88          88
                89          89
                90          90
                91          91
                92          92
                93          93
                94          94
                95          95
                96          96
                97          97
                98          98
                99          99
               100         100
               101         101
               102         102
               103         103
               104         104
               105         105
               106         106
               107         107
               108         108
               109         109
               110         110
               111         111
               112         112
               113         113
               114         114
               115         115
               116         116
               117         117
               118         118
               119         119
               120         120
               121         121
               122         122
               123         123
               124         124
               125         125
               126         126
               127         127
               128         128
               129         129
               130         130
               131         131
               132         132
               133         133
               134         134
               135         135
               136         136
               137         137
               138         138
               139         139
               140         140
               141         141
               142         142
               143         143
               144         144
               145         145
               146         146
               147         147
               148         148
               149         149
               150         150
               151         151
               152         152
               153         153
               154         154
               155         155
               156         156
               157         157
               158         158
               159         159
               160         160
               161         161
               162         162
               163         163
               164         164
               165         165
               166         166
               167         167
               168         168
               169         169
               170         170
               171         171
               172         172
               173         173
               174         174
               175         175
               176         176
               177         177
               178         178
               179         179
               180         180
               181         181
               182         182
               183         183
               184         184
               185         185
               186         186
               187         187
               188         188
               189         189
               190         190
               191         191
               192         192
               193         193
               194         194
               195         195
               196         196
               197         197
               198         198
               199         199
               200         200
               201         201
               202         202
               203         203
               204         204
               205         205
               206         206
               207         207
               208         208
               209         209
               210         210
               211         211
               212         212
               213         213
               214         214
               215         215
               216         216
               217         217
               218         218
               219         219
               220         220
               221         221
               222         222
               223         223
               224         224
               225         225
               226         226
               227         227
               228         228
               229         229
               230         230
               231         231
               232         232
               233         233
               234         234
               235         235
               236         236
               237         237
               238         238
               239         239
               240         240
               241         241
               242         242
               243         243
               244         244
               245         245
               246         246
               247         247
               248         248
               249         249
               250         250
               251         251
               252         252
               253         253
               254         254
               255         255
               256         256
               257         257
               258         258
               259         259
               260         260
               261         261
               262         262
               263         263
               264         264
               265         265
               266         266
               267         267
               268         268
               269         269
               270         270
               271         271
               272         272
               273         273
               274         274
               275         275
               276         276
               277         277
               278         278
               279         279
               280         280
               281         281
               282         282
               283         283
               284         284
               285         285
               286         286
               287         287
               288         288
               289         289
               290         290
               291         291
               292         292
               293         293
               294         294
               295         295
               296         296
               297         297
               298         298
               299         299
               300         300
               301         301
               302         302
               303         303
               304         304
               305         305
               306         306
               307         307
               308         308
               309         309
               310         310
               311         311
               312         312
               313         313
               314         314
               315         315
               316         316
               317         317
               318         318
               319         319
               320         320
               321         321
               322         322
               323         323
               324         324
               325         325

----------------------------------------------------------------------------------------

 
 
 KPOINTS: Automatic Mesh                          

Automatic generation of k-mesh.
 Grid dimensions read from file:
 generate k-points for:    3    3    1

 Generating k-lattice:

  Cartesian coordinates                     Fractional coordinates (reciprocal lattice)
     0.018456177  0.000005026 -0.000000000     0.333333333  0.000000000  0.000000000
     0.000000000  0.018454135  0.000000000     0.000000000  0.333333333  0.000000000
     0.000000000 -0.000000000  0.016003201     0.000000000  0.000000000  1.000000000

  Length of vectors
     0.018456178  0.018454135  0.016003201

  Shift w.r.t. Gamma in fractional coordinates (k-lattice)
     0.000000000  0.000000000  0.000000000

 
 Subroutine IBZKPT returns following result:
 ===========================================
 
 Found      5 irreducible k-points:
 
 Following reciprocal coordinates:
            Coordinates               Weight
  0.000000  0.000000  0.000000      1.000000
  0.333333  0.000000  0.000000      2.000000
  0.000000  0.333333  0.000000      2.000000
  0.333333  0.333333  0.000000      2.000000
 -0.333333  0.333333  0.000000      2.000000
 
 Following cartesian coordinates:
            Coordinates               Weight
  0.000000  0.000000  0.000000      1.000000
  0.018456  0.000005  0.000000      2.000000
  0.000000  0.018454  0.000000      2.000000
  0.018456  0.018459  0.000000      2.000000
 -0.018456  0.018449  0.000000      2.000000
 


--------------------------------------------------------------------------------------------------------




 Dimension of arrays:
   k-points           NKPTS =      5   k-points in BZ     NKDIM =      5   number of bands    NBANDS=    732
   number of dos      NEDOS =    301   number of ions     NIONS =    325
   non local maximal  LDIM  =      5   non local SUM 2l+1 LMDIM =     13
   total plane-waves  NPLWV = ******
   max r-space proj   IRMAX =   3336   max aug-charges    IRDMAX=  19845
   dimension x,y,z NGX =   100 NGY =  100 NGZ =  350
   dimension x,y,z NGXF=   200 NGYF=  200 NGZF=  700
   support grid    NGXF=   200 NGYF=  200 NGZF=  700
   ions per type =             143  39  47  72  24
   NGX,Y,Z   is equivalent  to a cutoff of   9.20,  9.20,  9.31 a.u.
   NGXF,Y,Z  is equivalent  to a cutoff of  18.41, 18.41, 18.62 a.u.

 SYSTEM =  PSC                                     
 POSCAR =   H  C  N  I Pb                          

 Startparameter for this run:
   NWRITE =      2    write-flag & timer
   PREC   = normal    normal or accurate (medium, high low for compatibility)
   ISTART =      0    job   : 0-new  1-cont  2-samecut
   ICHARG =      1    charge: 1-file 2-atom 10-const
   ISPIN  =      1    spin polarized calculation?
   LNONCOLLINEAR =      F non collinear calculations
   LSORBIT =      F    spin-orbit coupling
   INIWAV =      1    electr: 0-lowe 1-rand  2-diag
   LASPH  =      F    aspherical Exc in radial PAW
 Electronic Relaxation 1
   ENCUT  =  500.0 eV  36.75 Ry    6.06 a.u.  32.93 32.93113.93*2*pi/ulx,y,z
   ENINI  =  500.0     initial cutoff
   ENAUG  =  644.9 eV  augmentation charge cutoff
   NELM   =    600;   NELMIN=  2; NELMDL=  0     # of ELM steps 
   EDIFF  = 0.1E-03   stopping-criterion for ELM
   LREAL  =      T    real-space projection
   NLSPLINE    = F    spline interpolate recip. space projectors
   LCOMPAT=      F    compatible to vasp.4.4
   GGA_COMPAT  = F    GGA compatible to vasp.4.4-vasp.4.6
   LMAXPAW     = -100 max onsite density
   LMAXMIX     =    2 max onsite mixed and CHGCAR
   VOSKOWN=      0    Vosko Wilk Nusair interpolation
   ROPT   =   -0.00050  -0.00050  -0.00050  -0.00050
   ROPT   =   -0.00050
 Ionic relaxation
   EDIFFG = 0.1E-02   stopping-criterion for IOM
   NSW    =      0    number of steps for IOM
   NBLOCK =      1;   KBLOCK =      1    inner block; outer block 
   IBRION =     -1    ionic relax: 0-MD 1-quasi-New 2-CG
   NFREE  =      0    steps in history (QN), initial steepest desc. (CG)
   ISIF   =      2    stress and relaxation
   IWAVPR =     10    prediction:  0-non 1-charg 2-wave 3-comb
   ISYM   =      0    0-nonsym 1-usesym 2-fastsym
   LCORR  =      T    Harris-Foulkes like correction to forces

   POTIM  = 0.5000    time-step for ionic-motion
   TEIN   =    0.0    initial temperature
   TEBEG  =    0.0;   TEEND  =   0.0 temperature during run
   SMASS  =  -3.00    Nose mass-parameter (am)
   estimated Nose-frequenzy (Omega)   =  0.10E-29 period in steps = 0.13E+47 mass=  -0.745E-26a.u.
   SCALEE = 1.0000    scale energy and forces
   NPACO  =    256;   APACO  = 16.0  distance and # of slots for P.C.
   PSTRESS=    0.0 pullay stress

  Mass of Ions in am
   POMASS =   1.00 12.01 14.00126.90207.20
  Ionic Valenz
   ZVAL   =   1.00  4.00  5.00  7.00  4.00
  Atomic Wigner-Seitz radii
   RWIGS  =  -1.00 -1.00 -1.00 -1.00 -1.00
  virtual crystal weights 
   VCA    =   1.00  1.00  1.00  1.00  1.00
   NELECT =    1134.0000    total number of electrons
   NUPDOWN=      -1.0000    fix difference up-down

 DOS related values:
   EMIN   =  10.00;   EMAX   =-10.00  energy-range for DOS
   EFERMI =   0.00
   ISMEAR =     0;   SIGMA  =   0.05  broadening in eV -4-tet -1-fermi 0-gaus

 Electronic relaxation 2 (details)
   IALGO  =     38    algorithm
   LDIAG  =      T    sub-space diagonalisation (order eigenvalues)
   LSUBROT=      F    optimize rotation matrix (better conditioning)
   TURBO    =      0    0=normal 1=particle mesh
   IRESTART =      0    0=no restart 2=restart with 2 vectors
   NREBOOT  =      0    no. of reboots
   NMIN     =      0    reboot dimension
   EREF     =   0.00    reference energy to select bands
   IMIX   =      4    mixing-type and parameters
     AMIX     =   0.40;   BMIX     =  0.01
     AMIX_MAG =   1.60;   BMIX_MAG =  0.01
     AMIN     =   0.01
     WC   =   100.;   INIMIX=   1;  MIXPRE=   1;  MAXMIX= -45

 Intra band minimization:
   WEIMIN = 0.0000     energy-eigenvalue tresh-hold
   EBREAK =  0.34E-07  absolut break condition
   DEPER  =   0.30     relativ break condition  

   TIME   =   0.40     timestep for ELM

  volume/ion in A,a.u.               =      62.72       423.28
  Fermi-wavevector in a.u.,A,eV,Ry     =   0.624944  1.180972  5.313816  0.390554
  Thomas-Fermi vector in A             =   1.685677
 
 Write flags
   LWAVE        =      F    write WAVECAR
   LDOWNSAMPLE  =      F    k-point downsampling of WAVECAR
   LCHARG       =      T    write CHGCAR
   LVTOT        =      T    write LOCPOT, total local potential
   LVHAR        =      F    write LOCPOT, Hartree potential only
   LELF         =      F    write electronic localiz. function (ELF)
   LORBIT       =      0    0 simple, 1 ext, 2 COOP (PROOUT), +10 PAW based schemes


 Dipole corrections
   LMONO  =      F    monopole corrections only (constant potential shift)
   LDIPOL =      T    correct potential (dipole corrections)
   IDIPOL =      3    1-x, 2-y, 3-z, 4-all directions 
   EPSILON=  1.0000000 bulk dielectric constant

 Exchange correlation treatment:
   GGA     =    --    GGA type
   LEXCH   =     8    internal setting for exchange type
   VOSKOWN=      0    Vosko Wilk Nusair interpolation
   LHFCALC =     F    Hartree Fock is set to
   LHFONE  =     F    Hartree Fock one center treatment
   AEXX    =    0.0000 exact exchange contribution

 Linear response parameters
   LEPSILON=     F    determine dielectric tensor
   LRPA    =     F    only Hartree local field effects (RPA)
   LNABLA  =     F    use nabla operator in PAW spheres
   LVEL    =     F    velocity operator in full k-point grid
   LINTERFAST=   F  fast interpolation
   KINTER  =     0    interpolate to denser k-point grid
   CSHIFT  =0.1000    complex shift for real part using Kramers Kronig
   OMEGAMAX=  -1.0    maximum frequency
   DEG_THRESHOLD= 0.2000000E-02 threshold for treating states as degnerate
   RTIME   =   -0.100 relaxation time in fs
  (WPLASMAI=    0.000 imaginary part of plasma frequency in eV, 0.658/RTIME)
   DFIELD  = 0.0000000 0.0000000 0.0000000 field for delta impulse in time
 
 Orbital magnetization related:
   ORBITALMAG=     F  switch on orbital magnetization
   LCHIMAG   =     F  perturbation theory with respect to B field
   DQ        =  0.001000  dq finite difference perturbation B field
   LLRAUG    =     F  two centre corrections for induced B field



--------------------------------------------------------------------------------------------------------


 Static calculation
 charge density and potential will be updated during run
 non-spin polarized calculation
 Variant of blocked Davidson
 Davidson routine will perform the subspace rotation
 perform sub-space diagonalisation
    after iterative eigenvector-optimisation
 modified Broyden-mixing scheme, WC =      100.0
 initial mixing is a Kerker type mixing with AMIX =  0.4000 and BMIX =      0.0100
 Hartree-type preconditioning will be used
 using additional bands           165
 real space projection scheme for non local part
[...]
     13.54561      0.00000     45.35368        -0.003917      0.001834      0.009871
     13.54315      9.03140     45.35368         0.005903     -0.000954      0.016034
     14.11716     10.17653     32.90960        -0.619987     -0.495505      0.237186
     13.17276      8.63434     33.03539         0.049327      0.289002      0.266264
     15.71549      9.13911     34.29247        -0.031571      0.124498      0.172343
     15.34599      8.69988     35.97361         0.026082      0.120364      0.173980
     13.36632     11.57669     35.45137        -0.618784      0.302987     -0.081032
     14.40647     10.69455     36.54481        -0.045632     -0.190394      0.177881
     11.72147      9.69687     35.75134         0.730930     -0.438466     -0.042509
     12.13409      8.08659     35.09156         0.222560      0.353347      0.125187
     11.19833      9.86264     33.75811        -0.311229     -0.058679      0.107515
     12.08704     11.39149     33.97952         0.153827     -0.766066     -0.577976
     11.20452     11.87978     31.89726        -0.181041     -0.168823      0.066869
     12.62520     10.96535     31.38422        -0.800134      0.052272     -0.024813
     14.94725      7.08095     33.46187         0.103459      0.047017     -0.286023
     13.71129      7.02444     34.66986        -0.388551     -0.529254      0.071092
     15.31338      6.54233     35.09156         0.206458     -0.141534      0.339899
     15.46709     12.49441     34.97608        -0.048361      0.144665      0.399682
     15.33336     11.34918     33.72846        -0.105979     -0.077719     -0.469265
     16.29569     10.92391     35.12111         0.352441     -0.020568      0.182832
     13.80286      9.12980     37.48755        -0.682012     -0.454202     -0.325069
     13.36538      7.46321     37.04010         0.135056     -0.240000      0.036382
     12.14954      8.51888     37.79657         0.277673     -0.018490     -0.424082
      9.79995      9.78516     31.87534         0.685918     -0.219206     -0.687863
     10.45172     10.16562     30.22983         0.152973     -0.215975      0.274411
     13.07059      9.01657     29.86733        -0.628735     -0.971565      0.574523
      9.98942      7.58585     32.57206        -0.154803     -0.140295      0.183397
     14.18080      6.76704     29.97685        -1.124315      0.373398      0.644818
     11.15930      5.38007     32.70654        -0.085575     -0.107149      0.096692
     13.27532      4.94602     31.46078        -0.725859      1.254787     -0.209456
      0.29842      4.28697     34.74677        -0.708526      1.102100     -0.708367
      0.05475     13.51854     34.69364         0.254980     -0.413972      1.900400
      8.84333      4.36117     34.69540         2.103939     -1.292217      0.451736
      9.12754     13.83915     34.78824         1.253839     -1.143322     -0.584594
      4.34987      9.14939     34.77170        -1.138441     -1.813851      0.729763
      4.39209      0.13239     34.81266        -1.574864     -1.226331      0.724731
     13.68182     17.92118     34.83237         1.054183      1.469357      0.757378
      0.01054      4.46873     40.59644         2.218521     -2.033768      1.664576
      0.13229     13.77485     40.69897         1.434708     -2.084119      2.555046
      8.87245      4.37728     40.63437         2.378278     -2.828838     -0.876459
      8.92010     13.56900     40.59618        -0.542229      0.564562      1.048069
      4.55922      9.05281     40.53074         2.073183      2.761919      0.975059
      4.49641     18.04277     40.53852        -2.385971     -2.418714      0.563952
     13.69182      9.02033     40.71092        -1.288764     -1.110240      0.656999
     13.54013     18.05129     40.51180        -2.723926     -2.323135      0.617981
      9.02897      4.51561     46.44552         0.012635      0.001469      0.045856
      9.02651     13.54701     46.44552        -0.001992      0.016794      0.043126
     18.05937      4.51561     46.44552         0.016226      0.000805      0.049820
     18.05691     13.54701     46.44552         0.030342     -0.010658      0.057876
      4.51521      0.00002     46.44421         0.001753      0.002590      0.055127
      4.51275      9.03142     46.44421         0.001268      0.003881      0.047936
     13.54561      0.00002     46.44421         0.000906      0.003258      0.050214
     13.54315      9.03142     46.44421        -0.014120     -0.016653      0.064332
     11.40388      8.43783     31.21740         0.251970     -0.125648     -0.466198
     12.59420      8.17558     30.46655        -0.806827      2.422330     -0.052041
     10.88997      7.37882     31.99943        -0.126029      1.368858     -0.492249
     13.21938      6.96483     30.55764         2.138602     -1.328989     -1.080439
     11.53607      6.16768     32.05921         0.655832     -1.060140      0.060079
     12.72151      5.93503     31.34322         0.067860     -1.126839      0.631713
     13.26836      9.65919     33.43620         1.389731      0.525678      0.236077
     14.98551      8.65346     34.94528        -0.290064      1.072242     -0.116624
     14.17276     10.86545     35.49339        -0.042647     -0.105050     -0.081053
     12.54047      8.93047     35.68553        -0.191653      0.665951      0.426323
     12.01856     10.45260     33.34608        -1.162667      1.251293      0.312143
     11.63483     10.86639     31.92126         1.557618     -0.022431     -0.463949
     14.75328      7.26730     34.51709        -0.538213     -0.557159     -0.530926
     15.38368     11.42213     34.80935         0.470820      0.123283     -0.258129
     12.98331      8.47945     37.06863         0.311044      0.641462      0.372118
     10.74486      9.81983     31.24603        -0.630210     -0.107028      0.273781
      0.78000      3.36213     35.51287         0.643950     -1.260779      1.746629
      0.71155     12.53945     35.28922        -0.241131      0.538065      1.265416
      9.99041      3.98177     35.25338         0.191618      0.301975      0.690760
      9.59426     12.76915     35.41592        -0.455990      0.469376      0.152974
      7.95921      5.08809     35.28044        -0.849687      1.672956      2.009896
      8.35972     14.75375     35.28003        -1.331813      0.449900      2.351886
     17.68119      5.35010     35.13268        -0.379337      0.371452      1.271074
     17.51731     14.49660     35.34073        -0.005597     -0.172409      0.594782
      3.76700      8.13307     35.42316        -0.636617     -0.019900     -2.732599
      3.46915     17.43532     35.43106        -0.510672      0.472481     -2.955383
     12.80641     17.13724     35.37522        -1.179986     -1.809277     -1.941393
      5.44397      0.59662     35.41101         1.710571      1.761226     -1.964667
      5.16727      9.97648     35.34359         0.994072      2.122050     -2.215563
     14.27027      0.86654     35.49275         1.218924     -0.273413     -2.838038
      0.91917      3.62167     41.15929        -2.526834      2.328110     -0.813415
      0.89082     12.83849     41.35987        -2.407996      2.820618     -1.754670
      9.82701      3.59615     41.20229        -2.099477      2.224498     -0.012101
      9.68848     12.76054     41.26783         1.731060     -1.827042     -0.146687
      3.84370      8.15856     41.11602        -0.633878     -0.813294      2.240057
      3.61930     17.17838     41.10460         1.662671      1.683238      1.168592
     12.84056      8.29622     41.42631        -0.180336     -0.138270      0.083047
     12.59512     17.29850     41.12285         1.769629      1.475938      1.292457
      8.17933      5.27767     41.20413        -0.849969      1.879017      2.899023
      8.10251     14.43403     41.13639        -0.177098      0.194177      1.952452
     17.25679      5.21646     41.25738        -1.880337      1.730599      1.271415
     17.28664     14.52916     41.27205         0.373280     -0.082774     -1.366133
      5.28084      0.78192     41.16106         1.074506      1.145059      2.655278
      5.32085      9.99667     41.14259        -1.514220     -2.023440      1.273892
     14.41558      0.72768     41.09230         1.175546      1.120670      2.417452
     14.42585      9.98009     41.16753         2.047902      1.736664     -2.053642
      0.82731      3.68697     47.03596         0.013981     -0.020466     -0.092462
      0.82485     12.71837     47.03596         0.001713     -0.011505     -0.092691
      9.85771      3.68697     47.03596         0.017876     -0.019485     -0.090820
      9.85525     12.71837     47.03596         0.032875     -0.028300     -0.091674
      3.68432      8.20234     47.03465        -0.012863     -0.012764     -0.068866
      3.68186     17.23373     47.03465        -0.012039     -0.010576     -0.071260
     12.71472      8.20234     47.03465        -0.001172     -0.000581     -0.089205
     12.71226     17.23373     47.03465        -0.007709     -0.016205     -0.070192
      8.20068      5.34457     47.03603        -0.019883      0.018836     -0.094252
      8.19822     14.37597     47.03603        -0.010754      0.010033     -0.096373
     17.23108      5.34457     47.03603        -0.020368      0.019203     -0.091892
     17.22862     14.37597     47.03603        -0.032306      0.022426     -0.093684
      5.34365      0.82909     47.03465         0.008300      0.006423     -0.070177
      5.34119      9.86049     47.03465         0.010739      0.007346     -0.070948
     14.37405      0.82909     47.03465         0.011410      0.007494     -0.074792
     14.37159      9.86049     47.03465         0.016269      0.021271     -0.081171
     13.70357      9.56462     34.90004         0.713176     -1.590313     -0.240325
      8.92456      0.26272     34.47147        -0.016289     -0.025723      0.026259
      8.59301      9.37720     34.85595         0.083575     -0.162416     -0.091432
     18.05561     17.99781     34.50474         0.028134      0.012808     -0.050233
      0.48394      8.70940     34.37519        -0.064122      0.168072      0.066010
      4.51702      4.52435     34.46534        -0.050664     -0.064543      0.060618
      4.49147     13.55115     34.49463         0.044944     -0.015051      0.115198
     13.64479      4.03177     34.71710        -0.147260     -0.038173      0.012585
     13.19599     13.99431     34.22213        -0.274801      0.385626      0.009937
      0.09523     18.04682     40.89247        -0.114220      0.014783      0.031820
      0.15268      9.14525     40.88966        -0.007824     -0.098735     -0.010778
      9.08924      0.03334     40.89498        -0.139490     -0.029233     -0.075614
      9.05248      8.90301     40.99506         0.024383     -0.004347      0.087893
      4.48183      4.49553     40.90303         0.056638     -0.007189     -0.097229
      4.43556     13.56051     40.88964         0.045400      0.018039      0.040520
     13.41300      4.52892     40.95797         0.026928     -0.003920     -0.001104
     13.63021     13.70360     40.84601        -0.013804     -0.040840      0.105839
      2.57791      1.87776     38.08826         0.139024      0.142645      0.004762
      2.59303     10.91595     37.94524         0.084729      0.107863     -0.005123
     11.62257      1.81268     37.97609         0.113971      0.113642      0.014070
     11.24614     11.35060     38.32075         0.020123      0.022952     -0.039588
      6.38159      7.12551     38.02163        -0.116023     -0.212680     -0.046272
      6.38728     16.11185     38.02592         0.187538      0.052244     -0.075222
     15.95056      6.67389     38.34277        -0.115548     -0.009403     -0.244415
     15.45181     16.19325     37.92637         0.131818     -0.006226     -0.006241
      1.94561      6.46465     37.96781         0.148658     -0.128947      0.071845
      1.97174     15.51623     38.00587        -0.028321     -0.032807     -0.066057
     10.51797      6.04347     38.02878         0.132227     -0.025659      0.020330
     10.98132     15.54920     38.08171        -0.043174      0.073869     -0.021209
      7.01468      2.50442     37.96595         0.004115     -0.021789      0.043335
      6.94660     11.50182     38.12949         0.044547      0.053893      0.015845
     16.15507      2.50442     38.08715        -0.146760      0.132032      0.051495
     16.50153     11.92254     38.35978        -0.260039     -0.173040     -0.207321
      0.00000      0.00000     47.17356        -0.003972      0.000796      0.416390
     -0.00246      9.03140     47.17356        -0.005984      0.002100      0.402932
      9.03040      0.00000     47.17356         0.001433     -0.001259      0.454714
      9.02794      9.03140     47.17356         0.004713      0.000578      0.517030
      4.51398      4.51570     47.17425        -0.000070     -0.000325      0.460978
      4.51152     13.54710     47.17425         0.001610      0.002017      0.478341
     13.54438      4.51570     47.17425         0.000739      0.001072      0.467163
     13.54192     13.54710     47.17425         0.000755     -0.001548      0.302335
      2.45192      2.06295     44.04013         0.021006     -0.043479      0.034238
      2.44946     11.09435     44.04013         0.040834     -0.055731      0.082049
     11.48232      2.06295     44.04013         0.045442     -0.017322      0.031492
     11.47986     11.09435     44.04013         0.039713      0.024339     -0.055922
      6.57602      6.96845     44.04013         0.011886      0.005382     -0.020483
      6.57356     15.99985     44.04013        -0.000213      0.018147     -0.009845
     15.60642      6.96845     44.04013         0.026308     -0.018626     -0.035719
     15.60396     15.99985     44.04013        -0.051756      0.021459      0.045460
      2.06108      6.57881     44.04000         0.018799      0.031020     -0.052955
      2.05862     15.61021     44.04000        -0.009516      0.034509      0.020377
     11.09148      6.57881     44.04000        -0.041377     -0.040161      0.028686
     11.08902     15.61021     44.04000         0.025786     -0.028920     -0.009874
      6.96686      2.45259     44.04007        -0.033349     -0.033189     -0.037885
      6.96440     11.48399     44.04007         0.021285      0.007164     -0.005110
     15.99726      2.45259     44.04007        -0.028087     -0.030571     -0.082620
     15.99481     11.48399     44.04007        -0.014564      0.066275     -0.011052
      2.43163      2.08322     50.06849         0.002030     -0.017332      0.021757
      2.42917     11.11462     50.06849         0.000703     -0.017743      0.022855
     11.46203      2.08322     50.06849         0.010982     -0.010629      0.021105
     11.45957     11.11462     50.06849         0.029748      0.008320      0.019614
      6.59631      6.94818     50.06849        -0.010757      0.008249      0.021874
      6.59385     15.97958     50.06849        -0.006938      0.012135      0.022328
     15.62671      6.94818     50.06849        -0.005404      0.016330      0.021160
     15.62425     15.97958     50.06849        -0.021089      0.000144      0.020057
      2.08113      6.59901     50.06905        -0.019935     -0.002014      0.022635
      2.07867     15.63041     50.06905        -0.018360     -0.003119      0.023129
     11.11153      6.59901     50.06905        -0.004539     -0.013144      0.020026
     11.10907     15.63041     50.06905         0.005525     -0.025126      0.020605
      6.94681      2.43239     50.06905         0.012643      0.007620      0.022352
      6.94435     11.46379     50.06905         0.009219      0.012071      0.023126
     15.97721      2.43239     50.06905         0.013719      0.004800      0.021130
     15.97475     11.46379     50.06905        -0.000024      0.018581      0.019983
      0.02450      0.04288     37.71534        -0.144830     -0.185181      0.023520
      0.07810      9.08375     37.71324        -0.009698     -0.037244      0.036839
      9.03738      0.09478     37.61700        -0.038407     -0.150056      0.086248
      8.92728      8.95368     37.92006         0.092845      0.150151     -0.336803
      4.52028      4.44761     37.61534        -0.190212      0.134369      0.061749
      4.50649     13.54518     37.61671        -0.077923     -0.082928     -0.061072
     13.46900      4.42609     37.84447         0.117486      0.056385     -0.241389
     13.51115     13.70650     37.76585         0.004831     -0.096983     -0.107311
      0.00001      0.00001     44.04300         0.055374      0.003229      0.040040
     -0.00245      9.03141     44.04300         0.080156     -0.035331     -0.019641
      9.03041      0.00001     44.04300        -0.012556      0.040065     -0.024797
      9.02795      9.03141     44.04300        -0.069517     -0.000608      0.236960
      4.51397      4.51569     44.04275         0.005346     -0.022893      0.005015
      4.51151     13.54709     44.04275        -0.042642     -0.017607     -0.089874
     13.54437      4.51569     44.04275        -0.008881     -0.018213      0.193174
     13.54191     13.54709     44.04275        -0.048510      0.075429      0.062200
      0.00000      0.00000     50.44728         0.012996      0.008212     -0.627657
     -0.00246      9.03140     50.44728         0.012356     -0.010157     -0.623359
      9.03040      0.00000     50.44728        -0.012091      0.010113     -0.639782
      9.02794      9.03140     50.44728        -0.014088     -0.008348     -0.652759
      4.51397      4.51570     50.44728         0.008818      0.001847     -0.642232
      4.51151     13.54710     50.44728         0.008835     -0.000886     -0.646648
     13.54437      4.51570     50.44728        -0.009077      0.000212     -0.641329
     13.54191     13.54710     50.44728        -0.008905     -0.001283     -0.593569
 -----------------------------------------------------------------------------------
    total drift:                                0.043605      0.031292      0.346562


--------------------------------------------------------------------------------------------------------



  FREE ENERGIE OF THE ION-ELECTRON SYSTEM (eV)
  ---------------------------------------------------
  free  energy   TOTEN  =     -1570.66807117 eV

  energy  without entropy=    -1570.66807117  energy(sigma->0) =    -1570.66807117
 


--------------------------------------------------------------------------------------------------------


    POTLOK:  cpu time    0.5001: real time    0.5002


--------------------------------------------------------------------------------------------------------


     LOOP+:  cpu time  326.0899: real time  326.8386
 vacuum level on the upper side and lower side of the slab         2.313         1.561
    4ORBIT:  cpu time    0.0000: real time    0.0000

 total amount of memory used by VASP MPI-rank0  8653592. kBytes
=======================================================================

   base      :      30000. kBytes
   nonlr-proj:      53630. kBytes
   fftplans  :     249280. kBytes
   grid      :     701440. kBytes
   one-center:       2636. kBytes
   wavefun   :    7616606. kBytes
 
  
  
 General timing and accounting informations for this job:
 ========================================================
  
                  Total CPU time used (sec):      539.237
                            User time (sec):      432.492
                          System time (sec):      106.746
                         Elapsed time (sec):      542.114
  
                   Maximum memory used (kb):    10339324.
                   Average memory used (kb):          N/A
  
                          Minor page faults:      3817570
                          Major page faults:           14
                 Voluntary context switches:        11504
