<?xml version="1.0" encoding="ISO-8859-1"?>
<modeling>
 <generator>
  <i name="program" type="string">vasp </i>
  <i name="version" type="string">6.2.1  </i>
  <i name="subversion" type="string">16May21 (build Nov 15 2021 14:57:28) complex                          parallel </i>
  <i name="platform" type="string">LinuxPGI </i>
  <i name="date" type="string">2023 07 24 </i>
  <i name="time" type="string">21:49:03 </i>
 </generator>
 <incar>
  <i type="string" name="SYSTEM">PSC</i>
  <i type="int" name="ISTART">     1</i>
  <i type="string" name="PREC">Normal</i>
  <i name="BMIX">      0.01000000</i>
  <i name="AMIN">      0.01000000</i>
  <i type="int" name="ICHARG">     1</i>
  <i type="int" name="NELM">   600</i>
  <i type="int" name="ISYM">     0</i>
  <i name="ENCUT">    500.00000000</i>
  <i type="string" name="LREAL">Auto</i>
  <i type="int" name="ISMEAR">     0</i>
  <i name="SIGMA">      0.05000000</i>
  <i type="logical" name="LWAVE"> F  </i>
  <i type="logical" name="LVTOT"> T  </i>
  <i type="logical" name="GGA_COMPAT"> F  </i>
  <i type="logical" name="LDIPOL"> T  </i>
  <i type="int" name="IDIPOL">     3</i>
  <i type="int" name="IVDW">    12</i>
 </incar>
 <primitive_cell>
  <structure name="primitive_cell" >
   <crystal>
    <varray name="basis" >
     <v>      18.06080055       0.00000000       0.00000000 </v>
     <v>      -0.00491865      18.06279945       0.00000000 </v>
     <v>       0.00000000       0.00000000      62.48749924 </v>
    </varray>
    <i name="volume">  20385.21054034 </i>
    <varray name="rec_basis" >
     <v>       0.05536853       0.00001508      -0.00000000 </v>
     <v>       0.00000000       0.05536240       0.00000000 </v>
     <v>       0.00000000      -0.00000000       0.01600320 </v>
    </varray>
   </crystal>
   <varray name="positions" >
    <v>       0.44514852       0.30421691       0.58032158 </v>
    <v>       0.44251014       0.81665998       0.58065673 </v>
    <v>       0.96834164       0.31061717       0.57832972 </v>
    <v>       0.96971278       0.80909264       0.58216948 </v>
    <v>       0.31428516       0.02514198       0.58218206 </v>
    <v>       0.30204805       0.55092027       0.58101385 </v>
    <v>       0.77727367       0.06177797       0.58301944 </v>
    <v>       0.07087460       0.14034697       0.56183827 </v>
    <v>       0.06381928       0.65442035       0.55598504 </v>
    <v>       0.59123602       0.18805166       0.55623656 </v>
    <v>       0.56331710       0.66735304       0.55970081 </v>
    <v>       0.33960571       0.06539760       0.55741300 </v>
    <v>       0.30983671       0.59552266       0.55599432 </v>
    <v>       0.82794597       0.08294963       0.55963421 </v>
    <v>       0.03705182       0.18650762       0.58538478 </v>
    <v>       0.04529135       0.68890965       0.58154436 </v>
    <v>       0.56952822       0.23906699       0.57968412 </v>
    <v>       0.51743043       0.69501623       0.58223346 </v>
    <v>       0.21627016       0.43973887       0.58241703 </v>
    <v>       0.19492735       0.95034027       0.58239591 </v>
    <v>       0.69073560       0.95230100       0.58120487 </v>
    <v>       0.39191935       0.29442378       0.55754651 </v>
    <v>       0.44811447       0.86290142       0.55635585 </v>
    <v>       0.96232541       0.33661144       0.55182949 </v>
    <v>       0.94293783       0.84259231       0.55751532 </v>
    <v>       0.17115821       0.41567090       0.55830161 </v>
    <v>       0.14523824       0.94721576       0.55808562 </v>
    <v>       0.68862358       0.90332999       0.55650749 </v>
    <v>       0.48024760       0.21901643       0.53945366 </v>
    <v>       0.52403321       0.77398534       0.54022866 </v>
    <v>       0.02369767       0.23255186       0.53876578 </v>
    <v>       0.00032087       0.74545224       0.53826568 </v>
    <v>       0.22662115       0.51177991       0.53943175 </v>
    <v>       0.23471328       0.02049491       0.54012476 </v>
    <v>       0.77432604       0.98198128       0.54075617 </v>
    <v>       0.45633971       0.30771644       0.67581748 </v>
    <v>       0.44128013       0.80697102       0.67492845 </v>
    <v>       0.94920383       0.29437848       0.67709234 </v>
    <v>       0.94397176       0.80443456       0.67610013 </v>
    <v>       0.29681013       0.04951995       0.67563062 </v>
    <v>       0.29956312       0.55868011       0.67521543 </v>
    <v>       0.80439289       0.04804098       0.67445460 </v>
    <v>       0.80310961       0.57212694       0.67399040 </v>
    <v>       0.08283362       0.17135307       0.64897465 </v>
    <v>       0.08553869       0.68192045       0.65325706 </v>
    <v>       0.57034750       0.16220121       0.65037825 </v>
    <v>       0.57089321       0.67013500       0.65140000 </v>
    <v>       0.18257949       0.41625012       0.64919674 </v>
    <v>       0.16951665       0.91865340       0.64848096 </v>
    <v>       0.68158517       0.41805329       0.65565806 </v>
    <v>       0.66262180       0.92757862       0.64926750 </v>
    <v>       0.05553320       0.19565910       0.67465539 </v>
    <v>       0.04290344       0.70208030       0.67751326 </v>
    <v>       0.55809334       0.20390849       0.67513754 </v>
    <v>       0.54283781       0.69986523       0.67695083 </v>
    <v>       0.20780336       0.44437266       0.67485861 </v>
    <v>       0.19350119       0.94541030       0.67456418 </v>
    <v>       0.69976248       0.46421277       0.67913016 </v>
    <v>       0.69138453       0.95453302       0.67491044 </v>
    <v>       0.41502258       0.32153123       0.65112065 </v>
    <v>       0.41711502       0.83190975       0.64922586 </v>
    <v>       0.91899479       0.32309158       0.65154200 </v>
    <v>       0.93025785       0.84046002       0.65074307 </v>
    <v>       0.32663963       0.07698879       0.65047318 </v>
    <v>       0.32361291       0.58918746       0.64951797 </v>
    <v>       0.83515216       0.06931136       0.64885518 </v>
    <v>       0.83441681       0.58057442       0.64745970 </v>
    <v>       0.99929644       0.24936350       0.63266060 </v>
    <v>       0.02048432       0.76867922       0.63479390 </v>
    <v>       0.47948638       0.23179791       0.63321356 </v>
    <v>       0.49360366       0.75139325       0.63258746 </v>
    <v>       0.25131304       0.99873190       0.63155668 </v>
    <v>       0.25405221       0.50598789       0.63148959 </v>
    <v>       0.74847250       0.99429506       0.63115810 </v>
    <v>       0.76084177       0.48417510       0.63467730 </v>
    <v>       0.44874502       0.30128397       0.76888902 </v>
    <v>       0.44874501       0.80128391       0.76888902 </v>
    <v>       0.94874497       0.30128397       0.76888902 </v>
    <v>       0.94874501       0.80128391       0.76888902 </v>
    <v>       0.30127600       0.05129450       0.76887296 </v>
    <v>       0.30127601       0.55129450       0.76887296 </v>
    <v>       0.80127594       0.05129450       0.76887296 </v>
    <v>       0.80127598       0.55129450       0.76887296 </v>
    <v>       0.07877100       0.17118050       0.74344197 </v>
    <v>       0.07877101       0.67118045       0.74344197 </v>
    <v>       0.57877100       0.17118050       0.74344197 </v>
    <v>       0.57877099       0.67118045       0.74344197 </v>
    <v>       0.17119950       0.42117448       0.74342103 </v>
    <v>       0.17119950       0.92117451       0.74342103 </v>
    <v>       0.67119951       0.42117448       0.74342103 </v>
    <v>       0.67119950       0.92117451       0.74342103 </v>
    <v>       0.05125600       0.19871499       0.76888902 </v>
    <v>       0.05125600       0.69871493       0.76888902 </v>
    <v>       0.55125603       0.19871499       0.76888902 </v>
    <v>       0.55125602       0.69871493       0.76888902 </v>
    <v>       0.19872349       0.44870397       0.76887205 </v>
    <v>       0.19872349       0.94870397       0.76887205 </v>
    <v>       0.69872352       0.44870397       0.76887205 </v>
    <v>       0.69872351       0.94870397       0.76887205 </v>
    <v>       0.42123152       0.32881747       0.74344197 </v>
    <v>       0.42123151       0.82881744       0.74344197 </v>
    <v>       0.92123147       0.32881747       0.74344197 </v>
    <v>       0.92123151       0.82881744       0.74344197 </v>
    <v>       0.32880050       0.07882500       0.74342103 </v>
    <v>       0.32880049       0.57882496       0.74342103 </v>
    <v>       0.82880048       0.07882500       0.74342103 </v>
    <v>       0.82880052       0.57882496       0.74342103 </v>
    <v>       0.00000350       0.25000148       0.72582199 </v>
    <v>       0.00000350       0.75000145       0.72582199 </v>
    <v>       0.50000351       0.25000148       0.72582199 </v>
    <v>       0.50000350       0.75000145       0.72582199 </v>
    <v>       0.25000050       0.00000000       0.72580398 </v>
    <v>       0.25000052       0.50000000       0.72580398 </v>
    <v>       0.75000050       0.00000000       0.72580398 </v>
    <v>       0.75000049       0.50000000       0.72580398 </v>
    <v>       0.78179995       0.56339700       0.52665893 </v>
    <v>       0.72948645       0.47801773       0.52867196 </v>
    <v>       0.87028157       0.50596324       0.54878927 </v>
    <v>       0.84981606       0.48164630       0.57569290 </v>
    <v>       0.74024803       0.64091332       0.56733546 </v>
    <v>       0.79782608       0.59207592       0.58483389 </v>
    <v>       0.64914699       0.53684229       0.57213580 </v>
    <v>       0.67196853       0.44769289       0.56157735 </v>
    <v>       0.62018362       0.54601927       0.54023788 </v>
    <v>       0.66941340       0.63066011       0.54378107 </v>
    <v>       0.62055715       0.65769306       0.51045821 </v>
    <v>       0.69920386       0.60706809       0.50224792 </v>
    <v>       0.82771396       0.39201819       0.53549706 </v>
    <v>       0.75927965       0.38888964       0.55482875 </v>
    <v>       0.84797812       0.36219884       0.56157723 </v>
    <v>       0.85657852       0.69172060       0.55972920 </v>
    <v>       0.84915656       0.62831806       0.53976329 </v>
    <v>       0.90243315       0.60477377       0.56205010 </v>
    <v>       0.76438159       0.50544751       0.59992071 </v>
    <v>       0.74013395       0.41318125       0.59276010 </v>
    <v>       0.67283052       0.47162556       0.60486604 </v>
    <v>       0.54275662       0.54172972       0.51010743 </v>
    <v>       0.57884946       0.56279336       0.48377410 </v>
    <v>       0.72383542       0.49917915       0.47797292 </v>
    <v>       0.55321367       0.41997104       0.52125721 </v>
    <v>       0.78527212       0.37463975       0.47972550 </v>
    <v>       0.61795495       0.29785338       0.52340925 </v>
    <v>       0.73510955       0.27382333       0.50347317 </v>
    <v>       0.01658750       0.23733676       0.55605958 </v>
    <v>       0.00323549       0.74841863       0.55520932 </v>
    <v>       0.48970786       0.24144463       0.55523740 </v>
    <v>       0.50558712       0.76616879       0.55672323 </v>
    <v>       0.24098403       0.50653240       0.55645847 </v>
    <v>       0.24318561       0.00732941       0.55711405 </v>
    <v>       0.75781266       0.99215949       0.55742936 </v>
    <v>       0.00065116       0.24739982       0.64967303 </v>
    <v>       0.00753227       0.76260880       0.65131374 </v>
    <v>       0.49132057       0.24233681       0.65027997 </v>
    <v>       0.49409754       0.75121226       0.64966888 </v>
    <v>       0.25257401       0.50118510       0.64862149 </v>
    <v>       0.24923172       0.99889102       0.64874615 </v>
    <v>       0.75823213       0.49938697       0.65150500 </v>
    <v>       0.74996902       0.99936268       0.64831839 </v>
    <v>       0.49998898       0.24999498       0.74327702 </v>
    <v>       0.49998903       0.74999496       0.74327702 </v>
    <v>       0.99998898       0.24999498       0.74327702 </v>
    <v>       0.99998903       0.74999496       0.74327702 </v>
    <v>       0.25000050       0.00000100       0.74325596 </v>
    <v>       0.25000052       0.50000100       0.74325596 </v>
    <v>       0.75000050       0.00000100       0.74325596 </v>
    <v>       0.75000049       0.50000100       0.74325596 </v>
    <v>       0.63154321       0.46713855       0.49957835 </v>
    <v>       0.69744584       0.45261982       0.48756239 </v>
    <v>       0.60307315       0.40850921       0.51209336 </v>
    <v>       0.73204290       0.38558975       0.48902005 </v>
    <v>       0.63882818       0.34145774       0.51305000 </v>
    <v>       0.70446086       0.32857726       0.50159190 </v>
    <v>       0.73479535       0.53475583       0.53508615 </v>
    <v>       0.82985625       0.47907611       0.55923637 </v>
    <v>       0.78488878       0.60153743       0.56800777 </v>
    <v>       0.69448227       0.49441252       0.57108267 </v>
    <v>       0.66560774       0.57868120       0.53364397 </v>
    <v>       0.64436726       0.60158938       0.51084232 </v>
    <v>       0.81697700       0.40233523       0.55238392 </v>
    <v>       0.85194390       0.63235655       0.55706094 </v>
    <v>       0.71899464       0.46944254       0.59321673 </v>
    <v>       0.59507542       0.54364923       0.50003641 </v>
    <v>       0.04323829       0.18613585       0.56831966 </v>
    <v>       0.03958674       0.69421413       0.56474046 </v>
    <v>       0.55321430       0.22044052       0.56416686 </v>
    <v>       0.53141289       0.70693093       0.56676802 </v>
    <v>       0.44076650       0.28168865       0.56459999 </v>
    <v>       0.46308777       0.81680311       0.56459339 </v>
    <v>       0.97906242       0.29619416       0.56223526 </v>
    <v>       0.97012636       0.80256679       0.56556484 </v>
    <v>       0.20869568       0.45026631       0.56688401 </v>
    <v>       0.19234442       0.96526147       0.56701044 </v>
    <v>       0.70933046       0.94875888       0.56611671 </v>
    <v>       0.30143350       0.03303058       0.56668958 </v>
    <v>       0.28625453       0.55232189       0.56561050 </v>
    <v>       0.79013682       0.04797360       0.56799764 </v>
    <v>       0.05094771       0.20050452       0.65868039 </v>
    <v>       0.04951678       0.71076949       0.66189032 </v>
    <v>       0.54416113       0.19909147       0.65936852 </v>
    <v>       0.53662911       0.70645391       0.66041743 </v>
    <v>       0.21294278       0.45167743       0.65798799 </v>
    <v>       0.20065417       0.95103647       0.65780515 </v>
    <v>       0.71108814       0.45929878       0.66295358 </v>
    <v>       0.69763389       0.95768655       0.65809720 </v>
    <v>       0.45295732       0.29218433       0.65939794 </v>
    <v>       0.44884162       0.79910284       0.65831398 </v>
    <v>       0.95556175       0.28879554       0.66025016 </v>
    <v>       0.95735508       0.80436941       0.66048495 </v>
    <v>       0.29240435       0.04328870       0.65870865 </v>
    <v>       0.29475826       0.55343967       0.65841318 </v>
    <v>       0.79818045       0.04028610       0.65760834 </v>
    <v>       0.79888859       0.55252205       0.65881225 </v>
    <v>       0.04586250       0.20411950       0.75272599 </v>
    <v>       0.04586250       0.70411946       0.75272599 </v>
    <v>       0.54586251       0.20411950       0.75272599 </v>
    <v>       0.54586250       0.70411946       0.75272599 </v>
    <v>       0.20411900       0.45410100       0.75270499 </v>
    <v>       0.20411899       0.95410095       0.75270499 </v>
    <v>       0.70411898       0.45410100       0.75270499 </v>
    <v>       0.70411896       0.95410095       0.75270499 </v>
    <v>       0.45414002       0.29588849       0.75272697 </v>
    <v>       0.45414001       0.79588852       0.75272697 </v>
    <v>       0.95414002       0.29588849       0.75272697 </v>
    <v>       0.95414006       0.79588852       0.75272697 </v>
    <v>       0.29588249       0.04590050       0.75270499 </v>
    <v>       0.29588248       0.54590053       0.75270499 </v>
    <v>       0.79588244       0.04590050       0.75270499 </v>
    <v>       0.79588248       0.54590053       0.75270499 </v>
    <v>       0.75889083       0.52952009       0.55851241 </v>
    <v>       0.49414361       0.01454456       0.55165379 </v>
    <v>       0.47592399       0.51914439       0.55780682 </v>
    <v>       0.99998369       0.99640192       0.55218631 </v>
    <v>       0.02692620       0.48217307       0.55011308 </v>
    <v>       0.25016912       0.25047906       0.55155581 </v>
    <v>       0.24889032       0.75022410       0.55202447 </v>
    <v>       0.75555265       0.22320823       0.55558476 </v>
    <v>       0.73085345       0.77475856       0.54766356 </v>
    <v>       0.00554485       0.99911547       0.65441037 </v>
    <v>       0.00859163       0.50630310       0.65436538 </v>
    <v>       0.50325827       0.00184600       0.65445054 </v>
    <v>       0.50135674       0.49289185       0.65605212 </v>
    <v>       0.24822016       0.24888330       0.65457947 </v>
    <v>       0.24579475       0.75074220       0.65436507 </v>
    <v>       0.74272645       0.25073199       0.65545855 </v>
    <v>       0.75489137       0.75866445       0.65366687 </v>
    <v>       0.14276329       0.10395710       0.60953402 </v>
    <v>       0.14373663       0.60433343       0.60724524 </v>
    <v>       0.64355175       0.10035456       0.60773899 </v>
    <v>       0.62285363       0.62839662       0.61325462 </v>
    <v>       0.35344653       0.39448540       0.60846783 </v>
    <v>       0.35389723       0.89199068       0.60853645 </v>
    <v>       0.88325984       0.36948281       0.61360704 </v>
    <v>       0.85578827       0.89649718       0.60694336 </v>
    <v>       0.10782326       0.35789852       0.60760645 </v>
    <v>       0.10940619       0.85901583       0.60821564 </v>
    <v>       0.58245552       0.33458078       0.60858217 </v>
    <v>       0.60825418       0.86084136       0.60942927 </v>
    <v>       0.38843007       0.13865091       0.60757666 </v>
    <v>       0.38479653       0.63676838       0.61019388 </v>
    <v>       0.89452033       0.13865069       0.60951632 </v>
    <v>       0.91384512       0.66006062       0.61387919 </v>
    <v>       0.00000000       0.00000000       0.75492797 </v>
    <v>       0.00000000       0.50000000       0.75492797 </v>
    <v>       0.50000000       0.00000000       0.75492797 </v>
    <v>       0.49999999       0.50000000       0.75492797 </v>
    <v>       0.25000050       0.25000000       0.75493902 </v>
    <v>       0.25000051       0.74999997       0.75493902 </v>
    <v>       0.75000047       0.25000000       0.75493902 </v>
    <v>       0.75000046       0.74999997       0.75493902 </v>
    <v>       0.13579050       0.11421000       0.70478299 </v>
    <v>       0.13579050       0.61420998       0.70478299 </v>
    <v>       0.63579045       0.11421000       0.70478299 </v>
    <v>       0.63579049       0.61420998       0.70478299 </v>
    <v>       0.36420952       0.38578999       0.70478299 </v>
    <v>       0.36420950       0.88578996       0.70478299 </v>
    <v>       0.86420954       0.38578999       0.70478299 </v>
    <v>       0.86420953       0.88578996       0.70478299 </v>
    <v>       0.11421799       0.36421899       0.70478098 </v>
    <v>       0.11421799       0.86421899       0.70478098 </v>
    <v>       0.61421800       0.36421899       0.70478098 </v>
    <v>       0.61421799       0.86421899       0.70478098 </v>
    <v>       0.38578201       0.13578149       0.70478202 </v>
    <v>       0.38578200       0.63578149       0.70478202 </v>
    <v>       0.88578199       0.13578149       0.70478202 </v>
    <v>       0.88578203       0.63578149       0.70478202 </v>
    <v>       0.13466700       0.11533200       0.80125603 </v>
    <v>       0.13466699       0.61533199       0.80125603 </v>
    <v>       0.63466699       0.11533200       0.80125603 </v>
    <v>       0.63466698       0.61533199       0.80125603 </v>
    <v>       0.36533300       0.38466799       0.80125603 </v>
    <v>       0.36533299       0.88466796       0.80125603 </v>
    <v>       0.86533295       0.38466799       0.80125603 </v>
    <v>       0.86533294       0.88466796       0.80125603 </v>
    <v>       0.11532850       0.36533700       0.80126500 </v>
    <v>       0.11532850       0.86533698       0.80126500 </v>
    <v>       0.61532850       0.36533700       0.80126500 </v>
    <v>       0.61532849       0.86533698       0.80126500 </v>
    <v>       0.38467151       0.13466300       0.80126500 </v>
    <v>       0.38467150       0.63466297       0.80126500 </v>
    <v>       0.88467149       0.13466300       0.80126500 </v>
    <v>       0.88467153       0.63466297       0.80126500 </v>
    <v>       0.00135739       0.00237416       0.60356616 </v>
    <v>       0.00446132       0.50289833       0.60353258 </v>
    <v>       0.50038816       0.00524715       0.60199248 </v>
    <v>       0.49442535       0.49569736       0.60684232 </v>
    <v>       0.25034834       0.24623061       0.60196580 </v>
    <v>       0.24972194       0.74989359       0.60198771 </v>
    <v>       0.74582574       0.24503876       0.60563261 </v>
    <v>       0.74829921       0.75882490       0.60437442 </v>
    <v>       0.00000050       0.00000050       0.70482896 </v>
    <v>       0.00000050       0.50000048       0.70482896 </v>
    <v>       0.50000048       0.00000050       0.70482896 </v>
    <v>       0.50000046       0.50000048       0.70482896 </v>
    <v>       0.24999999       0.24999947       0.70482499 </v>
    <v>       0.25000001       0.74999950       0.70482499 </v>
    <v>       0.74999999       0.24999947       0.70482499 </v>
    <v>       0.74999998       0.74999950       0.70482499 </v>
    <v>       0.00000000       0.00000000       0.80731797 </v>
    <v>       0.00000000       0.50000000       0.80731797 </v>
    <v>       0.50000000       0.00000000       0.80731797 </v>
    <v>       0.49999999       0.50000000       0.80731797 </v>
    <v>       0.24999999       0.25000000       0.80731797 </v>
    <v>       0.25000001       0.74999997       0.80731797 </v>
    <v>       0.74999999       0.25000000       0.80731797 </v>
    <v>       0.74999998       0.74999997       0.80731797 </v>
   </varray>
  </structure>
  <varray name="primitive_index" >
   <v type="int" >        1 </v>
   <v type="int" >        2 </v>
   <v type="int" >        3 </v>
   <v type="int" >        4 </v>
   <v type="int" >        5 </v>
   <v type="int" >        6 </v>
   <v type="int" >        7 </v>
   <v type="int" >        8 </v>
   <v type="int" >        9 </v>
   <v type="int" >       10 </v>
   <v type="int" >       11 </v>
   <v type="int" >       12 </v>
   <v type="int" >       13 </v>
   <v type="int" >       14 </v>
   <v type="int" >       15 </v>
   <v type="int" >       16 </v>
   <v type="int" >       17 </v>
   <v type="int" >       18 </v>
   <v type="int" >       19 </v>
   <v type="int" >       20 </v>
   <v type="int" >       21 </v>
   <v type="int" >       22 </v>
   <v type="int" >       23 </v>
   <v type="int" >       24 </v>
   <v type="int" >       25 </v>
   <v type="int" >       26 </v>
   <v type="int" >       27 </v>
   <v type="int" >       28 </v>
   <v type="int" >       29 </v>
   <v type="int" >       30 </v>
   <v type="int" >       31 </v>
   <v type="int" >       32 </v>
   <v type="int" >       33 </v>
   <v type="int" >       34 </v>
   <v type="int" >       35 </v>
   <v type="int" >       36 </v>
   <v type="int" >       37 </v>
   <v type="int" >       38 </v>
   <v type="int" >       39 </v>
   <v type="int" >       40 </v>
   <v type="int" >       41 </v>
   <v type="int" >       42 </v>
   <v type="int" >       43 </v>
   <v type="int" >       44 </v>
   <v type="int" >       45 </v>
   <v type="int" >       46 </v>
   <v type="int" >       47 </v>
   <v type="int" >       48 </v>
   <v type="int" >       49 </v>
   <v type="int" >       50 </v>
   <v type="int" >       51 </v>
   <v type="int" >       52 </v>
   <v type="int" >       53 </v>
   <v type="int" >       54 </v>
   <v type="int" >       55 </v>
   <v type="int" >       56 </v>
   <v type="int" >       57 </v>
   <v type="int" >       58 </v>
   <v type="int" >       59 </v>
   <v type="int" >       60 </v>
   <v type="int" >       61 </v>
   <v type="int" >       62 </v>
   <v type="int" >       63 </v>
   <v type="int" >       64 </v>
   <v type="int" >       65 </v>
   <v type="int" >       66 </v>
   <v type="int" >       67 </v>
   <v type="int" >       68 </v>
   <v type="int" >       69 </v>
   <v type="int" >       70 </v>
   <v type="int" >       71 </v>
   <v type="int" >       72 </v>
   <v type="int" >       73 </v>
   <v type="int" >       74 </v>
   <v type="int" >       75 </v>
   <v type="int" >       76 </v>
   <v type="int" >       77 </v>
   <v type="int" >       78 </v>
   <v type="int" >       79 </v>
   <v type="int" >       80 </v>
   <v type="int" >       81 </v>
   <v type="int" >       82 </v>
   <v type="int" >       83 </v>
   <v type="int" >       84 </v>
   <v type="int" >       85 </v>
   <v type="int" >       86 </v>
   <v type="int" >       87 </v>
   <v type="int" >       88 </v>
   <v type="int" >       89 </v>
   <v type="int" >       90 </v>
   <v type="int" >       91 </v>
   <v type="int" >       92 </v>
   <v type="int" >       93 </v>
   <v type="int" >       94 </v>
   <v type="int" >       95 </v>
   <v type="int" >       96 </v>
   <v type="int" >       97 </v>
   <v type="int" >       98 </v>
   <v type="int" >       99 </v>
   <v type="int" >      100 </v>
   <v type="int" >      101 </v>
   <v type="int" >      102 </v>
   <v type="int" >      103 </v>
   <v type="int" >      104 </v>
   <v type="int" >      105 </v>
   <v type="int" >      106 </v>
   <v type="int" >      107 </v>
   <v type="int" >      108 </v>
   <v type="int" >      109 </v>
   <v type="int" >      110 </v>
   <v type="int" >      111 </v>
   <v type="int" >      112 </v>
   <v type="int" >      113 </v>
   <v type="int" >      114 </v>
   <v type="int" >      115 </v>
   <v type="int" >      116 </v>
   <v type="int" >      117 </v>
   <v type="int" >      118 </v>
   <v type="int" >      119 </v>
   <v type="int" >      120 </v>
   <v type="int" >      121 </v>
   <v type="int" >      122 </v>
   <v type="int" >      123 </v>
   <v type="int" >      124 </v>
   <v type="int" >      125 </v>
   <v type="int" >      126 </v>
   <v type="int" >      127 </v>
   <v type="int" >      128 </v>
   <v type="int" >      129 </v>
   <v type="int" >      130 </v>
   <v type="int" >      131 </v>
   <v type="int" >      132 </v>
   <v type="int" >      133 </v>
   <v type="int" >      134 </v>
   <v type="int" >      135 </v>
   <v type="int" >      136 </v>
   <v type="int" >      137 </v>
   <v type="int" >      138 </v>
   <v type="int" >      139 </v>
   <v type="int" >      140 </v>
   <v type="int" >      141 </v>
   <v type="int" >      142 </v>
   <v type="int" >      143 </v>
   <v type="int" >      144 </v>
   <v type="int" >      145 </v>
   <v type="int" >      146 </v>
   <v type="int" >      147 </v>
   <v type="int" >      148 </v>
   <v type="int" >      149 </v>
   <v type="int" >      150 </v>
   <v type="int" >      151 </v>
   <v type="int" >      152 </v>
   <v type="int" >      153 </v>
   <v type="int" >      154 </v>
   <v type="int" >      155 </v>
   <v type="int" >      156 </v>
   <v type="int" >      157 </v>
   <v type="int" >      158 </v>
   <v type="int" >      159 </v>
   <v type="int" >      160 </v>
   <v type="int" >      161 </v>
   <v type="int" >      162 </v>
   <v type="int" >      163 </v>
   <v type="int" >      164 </v>
   <v type="int" >      165 </v>
   <v type="int" >      166 </v>
   <v type="int" >      167 </v>
   <v type="int" >      168 </v>
   <v type="int" >      169 </v>
   <v type="int" >      170 </v>
   <v type="int" >      171 </v>
   <v type="int" >      172 </v>
   <v type="int" >      173 </v>
   <v type="int" >      174 </v>
   <v type="int" >      175 </v>
   <v type="int" >      176 </v>
   <v type="int" >      177 </v>
   <v type="int" >      178 </v>
   <v type="int" >      179 </v>
   <v type="int" >      180 </v>
   <v type="int" >      181 </v>
   <v type="int" >      182 </v>
   <v type="int" >      183 </v>
   <v type="int" >      184 </v>
   <v type="int" >      185 </v>
   <v type="int" >      186 </v>
   <v type="int" >      187 </v>
   <v type="int" >      188 </v>
   <v type="int" >      189 </v>
   <v type="int" >      190 </v>
   <v type="int" >      191 </v>
   <v type="int" >      192 </v>
   <v type="int" >      193 </v>
   <v type="int" >      194 </v>
   <v type="int" >      195 </v>
   <v type="int" >      196 </v>
   <v type="int" >      197 </v>
   <v type="int" >      198 </v>
   <v type="int" >      199 </v>
   <v type="int" >      200 </v>
   <v type="int" >      201 </v>
   <v type="int" >      202 </v>
   <v type="int" >      203 </v>
   <v type="int" >      204 </v>
   <v type="int" >      205 </v>
   <v type="int" >      206 </v>
   <v type="int" >      207 </v>
   <v type="int" >      208 </v>
   <v type="int" >      209 </v>
   <v type="int" >      210 </v>
   <v type="int" >      211 </v>
   <v type="int" >      212 </v>
   <v type="int" >      213 </v>
   <v type="int" >      214 </v>
   <v type="int" >      215 </v>
   <v type="int" >      216 </v>
   <v type="int" >      217 </v>
   <v type="int" >      218 </v>
   <v type="int" >      219 </v>
   <v type="int" >      220 </v>
   <v type="int" >      221 </v>
   <v type="int" >      222 </v>
   <v type="int" >      223 </v>
   <v type="int" >      224 </v>
   <v type="int" >      225 </v>
   <v type="int" >      226 </v>
   <v type="int" >      227 </v>
   <v type="int" >      228 </v>
   <v type="int" >      229 </v>
   <v type="int" >      230 </v>
   <v type="int" >      231 </v>
   <v type="int" >      232 </v>
   <v type="int" >      233 </v>
   <v type="int" >      234 </v>
   <v type="int" >      235 </v>
   <v type="int" >      236 </v>
   <v type="int" >      237 </v>
   <v type="int" >      238 </v>
   <v type="int" >      239 </v>
   <v type="int" >      240 </v>
   <v type="int" >      241 </v>
   <v type="int" >      242 </v>
   <v type="int" >      243 </v>
   <v type="int" >      244 </v>
   <v type="int" >      245 </v>
   <v type="int" >      246 </v>
   <v type="int" >      247 </v>
   <v type="int" >      248 </v>
   <v type="int" >      249 </v>
   <v type="int" >      250 </v>
   <v type="int" >      251 </v>
   <v type="int" >      252 </v>
   <v type="int" >      253 </v>
   <v type="int" >      254 </v>
   <v type="int" >      255 </v>
   <v type="int" >      256 </v>
   <v type="int" >      257 </v>
   <v type="int" >      258 </v>
   <v type="int" >      259 </v>
   <v type="int" >      260 </v>
   <v type="int" >      261 </v>
   <v type="int" >      262 </v>
   <v type="int" >      263 </v>
   <v type="int" >      264 </v>
   <v type="int" >      265 </v>
   <v type="int" >      266 </v>
   <v type="int" >      267 </v>
   <v type="int" >      268 </v>
   <v type="int" >      269 </v>
   <v type="int" >      270 </v>
   <v type="int" >      271 </v>
   <v type="int" >      272 </v>
   <v type="int" >      273 </v>
   <v type="int" >      274 </v>
   <v type="int" >      275 </v>
   <v type="int" >      276 </v>
   <v type="int" >      277 </v>
   <v type="int" >      278 </v>
   <v type="int" >      279 </v>
   <v type="int" >      280 </v>
   <v type="int" >      281 </v>
   <v type="int" >      282 </v>
   <v type="int" >      283 </v>
   <v type="int" >      284 </v>
   <v type="int" >      285 </v>
   <v type="int" >      286 </v>
   <v type="int" >      287 </v>
   <v type="int" >      288 </v>
   <v type="int" >      289 </v>
   <v type="int" >      290 </v>
   <v type="int" >      291 </v>
   <v type="int" >      292 </v>
   <v type="int" >      293 </v>
   <v type="int" >      294 </v>
   <v type="int" >      295 </v>
   <v type="int" >      296 </v>
   <v type="int" >      297 </v>
   <v type="int" >      298 </v>
   <v type="int" >      299 </v>
   <v type="int" >      300 </v>
   <v type="int" >      301 </v>
   <v type="int" >      302 </v>
   <v type="int" >      303 </v>
   <v type="int" >      304 </v>
   <v type="int" >      305 </v>
   <v type="int" >      306 </v>
   <v type="int" >      307 </v>
   <v type="int" >      308 </v>
   <v type="int" >      309 </v>
   <v type="int" >      310 </v>
   <v type="int" >      311 </v>
   <v type="int" >      312 </v>
   <v type="int" >      313 </v>
   <v type="int" >      314 </v>
   <v type="int" >      315 </v>
   <v type="int" >      316 </v>
   <v type="int" >      317 </v>
   <v type="int" >      318 </v>
   <v type="int" >      319 </v>
   <v type="int" >      320 </v>
   <v type="int" >      321 </v>
   <v type="int" >      322 </v>
   <v type="int" >      323 </v>
   <v type="int" >      324 </v>
   <v type="int" >      325 </v>
  </varray>
 </primitive_cell>
 <kpoints>
  <generation param="Gamma">
   <v type="int" name="divisions">       3        3        1 </v>
   <v name="usershift">      0.00000000       0.00000000       0.00000000 </v>
   <v name="genvec1">      0.33333333       0.00000000       0.00000000 </v>
   <v name="genvec2">      0.00000000       0.33333333       0.00000000 </v>
   <v name="genvec3">      0.00000000       0.00000000       1.00000000 </v>
   <v name="shift">      0.00000000       0.00000000       0.00000000 </v>
  </generation>
  <varray name="kpointlist" >
   <v>       0.00000000       0.00000000       0.00000000 </v>
   <v>       0.33333333       0.00000000       0.00000000 </v>
   <v>       0.00000000       0.33333333       0.00000000 </v>
   <v>       0.33333333       0.33333333       0.00000000 </v>
   <v>      -0.33333333       0.33333333       0.00000000 </v>
  </varray>
  <varray name="weights" >
   <v>       0.11111111 </v>
   <v>       0.22222222 </v>
   <v>       0.22222222 </v>
   <v>       0.22222222 </v>
   <v>       0.22222222 </v>
  </varray>
 </kpoints>
 <parameters>
  <separator name="general" >
   <i type="string" name="SYSTEM">PSC</i>
   <i type="logical" name="LCOMPAT"> F  </i>
  </separator>
  <separator name="electronic" >
   <i type="string" name="PREC">normal</i>
   <i name="ENMAX">    500.00000000</i>
   <i name="ENAUG">    644.87300000</i>
   <i name="EDIFF">      0.00010000</i>
   <i type="int" name="IALGO">    38</i>
   <i type="int" name="IWAVPR">    10</i>
   <i type="int" name="NBANDS">   732</i>
   <i type="int" name="NBANDSLOW">    -1</i>
   <i type="int" name="NBANDSHIGH">    -1</i>
   <i name="NELECT">   1134.00000000</i>
   <i type="int" name="TURBO">     0</i>
   <i type="int" name="IRESTART">     0</i>
   <i type="int" name="NREBOOT">     0</i>
   <i type="int" name="NMIN">     0</i>
   <i name="EREF">      0.00000000</i>
   <separator name="electronic smearing" >
    <i type="int" name="ISMEAR">     0</i>
    <i name="SIGMA">      0.05000000</i>
    <i name="KSPACING">      0.50000000</i>
    <i type="logical" name="KGAMMA"> T  </i>
    <i type="logical" name="KBLOWUP"> T  </i>
   </separator>
   <separator name="electronic projectors" >
    <i type="logical" name="LREAL"> T  </i>
    <v name="ROPT">     -0.00050000     -0.00050000     -0.00050000     -0.00050000     -0.00050000</v>
    <i type="int" name="LMAXPAW">  -100</i>
    <i type="int" name="LMAXMIX">     2</i>
    <i type="logical" name="NLSPLINE"> F  </i>
   </separator>
   <separator name="electronic startup" >
    <i type="int" name="ISTART">     0</i>
    <i type="int" name="ICHARG">     1</i>
    <i type="int" name="INIWAV">     1</i>
   </separator>
   <separator name="electronic spin" >
    <i type="int" name="ISPIN">     1</i>
    <i type="logical" name="LNONCOLLINEAR"> F  </i>
    <v name="MAGMOM">      1.00000000      1.00000000      1.00000000      1.00000000      1.00000000      1.00000000      1.00000000      1.00000000      1.00000000      1.00000000      1.00000000      1.00000000      1.00000000      1.00000000      1.00000000      1.00000000      1.00000000      1.00000000      1.00000000      1.00000000
      1.00000000      1.00000000      1.00000000      1.00000000      1.00000000      1.00000000      1.00000000      1.00000000      1.00000000      1.00000000      1.00000000      1.00000000      1.00000000      1.00000000      1.00000000      1.00000000      1.00000000      1.00000000      1.00000000      1.00000000
      1.00000000      1.00000000      1.00000000      1.00000000      1.00000000      1.00000000      1.00000000      1.00000000      1.00000000      1.00000000      1.00000000      1.00000000      1.00000000      1.00000000      1.00000000      1.00000000      1.00000000      1.00000000      1.00000000      1.00000000
      1.00000000      1.00000000      1.00000000      1.00000000      1.00000000      1.00000000      1.00000000      1.00000000      1.00000000      1.00000000      1.00000000      1.00000000      1.00000000      1.00000000      1.00000000      1.00000000      1.00000000      1.00000000      1.00000000      1.00000000
      1.00000000      1.00000000      1.00000000      1.00000000      1.00000000      1.00000000      1.00000000      1.00000000      1.00000000      1.00000000      1.00000000      1.00000000      1.00000000      1.00000000      1.00000000      1.00000000      1.00000000      1.00000000      1.00000000      1.00000000
      1.00000000      1.00000000      1.00000000      1.00000000      1.00000000      1.00000000      1.00000000      1.00000000      1.00000000      1.00000000      1.00000000      1.00000000      1.00000000      1.00000000      1.00000000      1.00000000      1.00000000      1.00000000      1.00000000      1.00000000
      1.00000000      1.00000000      1.00000000      1.00000000      1.00000000      1.00000000      1.00000000      1.00000000      1.00000000      1.00000000      1.00000000      1.00000000      1.00000000      1.00000000      1.00000000      1.00000000      1.00000000      1.00000000      1.00000000      1.00000000
      1.00000000      1.00000000      1.00000000      1.00000000      1.00000000      1.00000000      1.00000000      1.00000000      1.00000000      1.00000000      1.00000000      1.00000000      1.00000000      1.00000000      1.00000000      1.00000000      1.00000000      1.00000000      1.00000000      1.00000000
      1.00000000      1.00000000      1.00000000      1.00000000      1.00000000      1.00000000      1.00000000      1.00000000      1.00000000      1.00000000      1.00000000      1.00000000      1.00000000      1.00000000      1.00000000      1.00000000      1.00000000      1.00000000      1.00000000      1.00000000
      1.00000000      1.00000000      1.00000000      1.00000000      1.00000000      1.00000000      1.00000000      1.00000000      1.00000000      1.00000000      1.00000000      1.00000000      1.00000000      1.00000000      1.00000000      1.00000000      1.00000000      1.00000000      1.00000000      1.00000000
      1.00000000      1.00000000      1.00000000      1.00000000      1.00000000      1.00000000      1.00000000      1.00000000      1.00000000      1.00000000      1.00000000      1.00000000      1.00000000      1.00000000      1.00000000      1.00000000      1.00000000      1.00000000      1.00000000      1.00000000
      1.00000000      1.00000000      1.00000000      1.00000000      1.00000000      1.00000000      1.00000000      1.00000000      1.00000000      1.00000000      1.00000000      1.00000000      1.00000000      1.00000000      1.00000000      1.00000000      1.00000000      1.00000000      1.00000000      1.00000000
      1.00000000      1.00000000      1.00000000      1.00000000      1.00000000      1.00000000      1.00000000      1.00000000      1.00000000      1.00000000      1.00000000      1.00000000      1.00000000      1.00000000      1.00000000      1.00000000      1.00000000      1.00000000      1.00000000      1.00000000
      1.00000000      1.00000000      1.00000000      1.00000000      1.00000000      1.00000000      1.00000000      1.00000000      1.00000000      1.00000000      1.00000000      1.00000000      1.00000000      1.00000000      1.00000000      1.00000000      1.00000000      1.00000000      1.00000000      1.00000000
      1.00000000      1.00000000      1.00000000      1.00000000      1.00000000      1.00000000      1.00000000      1.00000000      1.00000000      1.00000000      1.00000000      1.00000000      1.00000000      1.00000000      1.00000000      1.00000000      1.00000000      1.00000000      1.00000000      1.00000000
      1.00000000      1.00000000      1.00000000      1.00000000      1.00000000      1.00000000      1.00000000      1.00000000      1.00000000      1.00000000      1.00000000      1.00000000      1.00000000      1.00000000      1.00000000      1.00000000      1.00000000      1.00000000      1.00000000      1.00000000
      1.00000000      1.00000000      1.00000000      1.00000000      1.00000000</v>
    <i name="NUPDOWN">     -1.00000000</i>
    <i type="logical" name="LSORBIT"> F  </i>
    <v name="SAXIS">      0.00000000      0.00000000      1.00000000</v>
    <i type="logical" name="LSPIRAL"> F  </i>
    <v name="QSPIRAL">      0.00000000      0.00000000      0.00000000</v>
    <i type="logical" name="LZEROZ"> F  </i>
   </separator>
   <separator name="electronic exchange-correlation" >
    <i type="logical" name="LASPH"> F  </i>
    <i type="logical" name="LMETAGGA"> F  </i>
   </separator>
   <separator name="electronic convergence" >
    <i type="int" name="NELM">   600</i>
    <i type="int" name="NELMDL">     0</i>
    <i type="int" name="NELMIN">     2</i>
    <i name="ENINI">    500.00000000</i>
    <separator name="electronic convergence detail" >
     <i type="logical" name="LDIAG"> T  </i>
     <i type="logical" name="LSUBROT"> F  </i>
     <i name="WEIMIN">      0.00000000</i>
     <i name="EBREAK">      0.00000003</i>
     <i name="DEPER">      0.30000000</i>
     <i type="int" name="NRMM">     4</i>
     <i name="TIME">      0.40000000</i>
    </separator>
   </separator>
   <separator name="electronic mixer" >
    <i name="AMIX">      0.40000000</i>
    <i name="BMIX">      0.01000000</i>
    <i name="AMIN">      0.01000000</i>
    <i name="AMIX_MAG">      1.60000000</i>
    <i name="BMIX_MAG">      0.01000000</i>
    <separator name="electronic mixer details" >
     <i type="int" name="IMIX">     4</i>
     <i type="logical" name="MIXFIRST"> F  </i>
     <i type="int" name="MAXMIX">   -45</i>
     <i name="WC">    100.00000000</i>
     <i type="int" name="INIMIX">     1</i>
     <i type="int" name="MIXPRE">     1</i>
     <i type="int" name="MREMOVE">     5</i>
    </separator>
   </separator>
   <separator name="electronic dipolcorrection" >
    <i type="logical" name="LDIPOL"> T  </i>
    <i type="logical" name="LMONO"> F  </i>
    <i type="int" name="IDIPOL">     3</i>
    <i name="EPSILON">      1.00000000</i>
    <v name="DIPOL">   -100.00000000   -100.00000000   -100.00000000</v>
    <i name="EFIELD">      0.00000000</i>
   </separator>
  </separator>
  <separator name="grids" >
   <i type="int" name="NGX">   100</i>
   <i type="int" name="NGY">   100</i>
   <i type="int" name="NGZ">   350</i>
   <i type="int" name="NGXF">   200</i>
   <i type="int" name="NGYF">   200</i>
   <i type="int" name="NGZF">   700</i>
   <i type="logical" name="ADDGRID"> F  </i>
  </separator>
  <separator name="ionic" >
   <i type="int" name="NSW">     0</i>
   <i type="int" name="IBRION">    -1</i>
   <i type="int" name="MDALGO">     0</i>
   <i type="int" name="ISIF">     2</i>
   <i name="PSTRESS">      0.00000000</i>
   <i name="EDIFFG">      0.00100000</i>
   <i type="int" name="NFREE">     0</i>
   <i name="POTIM">      0.50000000</i>
   <i name="SMASS">     -3.00000000</i>
   <i name="SCALEE">      1.00000000</i>
  </separator>
  <separator name="ionic md" >
   <i name="TEBEG">      0.00010000</i>
   <i name="TEEND">      0.00010000</i>
   <i type="int" name="NBLOCK">     1</i>
   <i type="int" name="KBLOCK">     1</i>
   <i type="int" name="NPACO">   256</i>
   <i name="APACO">     16.00000000</i>
  </separator>
  <separator name="symmetry" >
   <i type="int" name="ISYM">     0</i>
   <i name="SYMPREC">      0.00001000</i>
  </separator>
  <separator name="dos" >
   <i type="int" name="LORBIT">     0</i>
   <v name="RWIGS">     -1.00000000     -1.00000000     -1.00000000     -1.00000000     -1.00000000</v>
   <i type="int" name="NEDOS">   301</i>
   <i name="EMIN">     10.00000000</i>
   <i name="EMAX">    -10.00000000</i>
   <i name="EFERMI">      0.00000000</i>
  </separator>
  <separator name="writing" >
   <i type="int" name="NWRITE">     2</i>
   <i type="logical" name="LWAVE"> F  </i>
   <i type="logical" name="LDOWNSAMPLE"> F  </i>
   <i type="logical" name="LCHARG"> T  </i>
   <i type="logical" name="LPARD"> F  </i>
   <i type="logical" name="LVTOT"> T  </i>
   <i type="logical" name="LVHAR"> F  </i>
   <i type="logical" name="LELF"> F  </i>
   <i type="logical" name="LOPTICS"> F  </i>
   <v name="STM">      0.00000000      0.00000000      0.00000000      0.00000000      0.00000000      0.00000000      0.00000000</v>
  </separator>
  <separator name="performance" >
   <i type="int" name="NPAR">     4</i>
   <i type="int" name="NSIM">     4</i>
   <i type="int" name="NBLK">    -1</i>
   <i type="logical" name="LPLANE"> T  </i>
   <i type="logical" name="LSCALAPACK"> T  </i>
   <i type="logical" name="LSCAAWARE"> F  </i>
   <i type="logical" name="LSCALU"> F  </i>
   <i type="logical" name="LASYNC"> F  </i>
   <i type="logical" name="LORBITALREAL"> F  </i>
  </separator>
  <separator name="miscellaneous" >
   <i type="int" name="IDIOT">     3</i>
   <i type="int" name="PHON_NSTRUCT">    -1</i>
   <i type="logical" name="LMUSIC"> F  </i>
   <v name="POMASS">      1.00000000     12.01100000     14.00100000    126.90400000    207.20000000</v>
   <v name="DARWINR">      0.00000000      0.00000000      0.00000000      0.00000000      0.00000000</v>
   <v name="DARWINV">      1.00000000      1.00000000      1.00000000      1.00000000      1.00000000</v>
   <i type="logical" name="LCORR"> T  </i>
  </separator>
  <i type="logical" name="GGA_COMPAT"> F  </i>
  <i type="logical" name="LBERRY"> F  </i>
  <i type="int" name="ICORELEVEL">     0</i>
  <i type="logical" name="LDAU"> F  </i>
  <i type="int" name="I_CONSTRAINED_M">     0</i>
  <separator name="electronic exchange-correlation" >
   <i type="string" name="GGA">--</i>
   <i type="int" name="VOSKOWN">     0</i>
   <i type="logical" name="LHFCALC"> F  </i>
   <i type="string" name="PRECFOCK"></i>
   <i type="logical" name="LSYMGRAD"> F  </i>
   <i type="logical" name="LHFONE"> F  </i>
   <i type="logical" name="LRHFCALC"> F  </i>
   <i type="logical" name="LTHOMAS"> F  </i>
   <i type="logical" name="LMODELHF"> F  </i>
   <i type="logical" name="LFOCKACE"> F  </i>
   <i name="ENCUT4O">     -1.00000000</i>
   <i type="int" name="EXXOEP">     0</i>
   <i type="int" name="FOURORBIT">     0</i>
   <i name="AEXX">      0.00000000</i>
   <i name="HFALPHA">      0.00000000</i>
   <i name="MCALPHA">      0.00000000</i>
   <i name="ALDAX">      1.00000000</i>
   <i name="AGGAX">      1.00000000</i>
   <i name="ALDAC">      1.00000000</i>
   <i name="AGGAC">      1.00000000</i>
   <i type="int" name="NKREDX">     1</i>
   <i type="int" name="NKREDY">     1</i>
   <i type="int" name="NKREDZ">     1</i>
   <i type="logical" name="SHIFTRED"> F  </i>
   <i type="logical" name="ODDONLY"> F  </i>
   <i type="logical" name="EVENONLY"> F  </i>
   <i type="int" name="LMAXFOCK">     0</i>
   <i type="int" name="NMAXFOCKAE">     0</i>
   <i type="logical" name="LFOCKAEDFT"> F  </i>
   <i name="HFSCREEN">      0.00000000</i>
   <i name="HFSCREENC">      0.00000000</i>
   <i type="int" name="NBANDSGWLOW">     0</i>
  </separator>
  <separator name="vdW DFT" >
   <i type="logical" name="LUSE_VDW"> F  </i>
   <i name="Zab_VDW">     -0.84910000</i>
   <i name="PARAM1">      0.12340000</i>
   <i name="PARAM2">      1.00000000</i>
   <i name="PARAM3">      0.00000000</i>
  </separator>
  <separator name="model GW" >
   <i type="int" name="MODEL_GW">     0</i>
   <i name="MODEL_EPS0">     37.63423484</i>
   <i name="MODEL_ALPHA">      1.00000000</i>
  </separator>
  <separator name="linear response parameters" >
   <i type="logical" name="LEPSILON"> F  </i>
   <i type="logical" name="LRPA"> F  </i>
   <i type="logical" name="LNABLA"> F  </i>
   <i type="logical" name="LVEL"> F  </i>
   <i type="int" name="KINTER">     0</i>
   <i name="CSHIFT">      0.10000000</i>
   <i name="OMEGAMAX">     -1.00000000</i>
   <i name="DEG_THRESHOLD">      0.00200000</i>
   <i name="RTIME">     -0.10000000</i>
   <i name="WPLASMAI">      0.00000000</i>
   <v name="DFIELD">      0.00000000      0.00000000      0.00000000</v>
   <v name="WPLASMA">      0.00000000      0.00000000      0.00000000      0.00000000      0.00000000      0.00000000      0.00000000      0.00000000      0.00000000</v>
  </separator>
  <separator name="orbital magnetization" >
   <i type="logical" name="NUCIND"> F  </i>
   <v name="MAGPOS">      0.00000000      0.00000000      0.00000000</v>
   <i type="logical" name="LNICSALL"> T  </i>
   <i type="logical" name="ORBITALMAG"> F  </i>
   <i type="logical" name="LMAGBLOCH"> F  </i>
   <i type="logical" name="LCHIMAG"> F  </i>
   <i type="logical" name="LGAUGE"> T  </i>
   <i type="int" name="MAGATOM">     0</i>
   <v name="MAGDIPOL">      0.00000000      0.00000000      0.00000000</v>
   <v name="AVECCONST">      0.00000000      0.00000000      0.00000000</v>
  </separator>
  <separator name="response functions" >
   <i type="logical" name="LFINITE_TEMPERATURE"> F  </i>
   <i type="logical" name="LADDER"> F  </i>
   <i type="logical" name="LRPAFORCE"> F  </i>
   <i type="logical" name="LFXC"> F  </i>
   <i type="logical" name="LHARTREE"> T  </i>
   <i type="int" name="IBSE">     0</i>
   <v type="int" name="KPOINT">    -1     0     0     0</v>
   <i type="logical" name="LTCTC"> F  </i>
   <i type="logical" name="LTCTE"> F  </i>
   <i type="logical" name="LTETE"> F  </i>
   <i type="logical" name="LTRIPLET"> F  </i>
   <i type="logical" name="LFXCEPS"> F  </i>
   <i type="logical" name="LFXHEG"> F  </i>
   <i type="int" name="NATURALO">     2</i>
   <i type="logical" name="LHOLEGF"> F  </i>
   <i type="logical" name="L2ORDER"> F  </i>
   <i type="logical" name="LDMP1"> F  </i>
   <i type="logical" name="LMP2LT"> F  </i>
   <i type="logical" name="LSMP2LT"> F  </i>
   <i type="logical" name="LGWLF"> F  </i>
   <i name="ENCUTGW">     -2.00000000</i>
   <i name="ENCUTGWSOFT">     -2.00000000</i>
   <i name="ENCUTLF">     -1.00000000</i>
   <i type="logical" name="LESF_SPLINES"> F  </i>
   <i type="int" name="LMAXMP2">    -1</i>
   <i name="SCISSOR">      0.00000000</i>
   <i type="int" name="NOMEGA">     0</i>
   <i type="int" name="NOMEGAR">     0</i>
   <i type="int" name="NBANDSGW">    -1</i>
   <i type="int" name="NBANDSO">    -1</i>
   <i type="int" name="NBANDSV">    -1</i>
   <i type="int" name="NELM">   600</i>
   <i type="int" name="NELMHF">     1</i>
   <i type="int" name="DIM">     3</i>
   <i type="int" name="IESPILON">     4</i>
   <i type="int" name="ANTIRES">     0</i>
   <i name="OMEGAMAX">    -30.00000000</i>
   <i name="OMEGAMIN">    -30.00000000</i>
   <i name="OMEGATL">   -200.00000000</i>
   <i type="int" name="OMEGAGRID">     0</i>
   <i name="CSHIFT">     -0.10000000</i>
   <i type="logical" name="LSELFENERGY"> F  </i>
   <i type="logical" name="LSPECTRAL"> F  </i>
   <i type="logical" name="LSPECTRALGW"> F  </i>
   <i type="logical" name="LSINGLES"> F  </i>
   <i type="logical" name="LFERMIGW"> F  </i>
   <i type="logical" name="ODDONLYGW"> F  </i>
   <i type="logical" name="EVENONLYGW"> F  </i>
   <i type="int" name="NKREDLFX">     1</i>
   <i type="int" name="NKREDLFY">     1</i>
   <i type="int" name="NKREDLFZ">     1</i>
   <i type="int" name="MAXMEM">  2800</i>
   <i type="int" name="TELESCOPE">     0</i>
   <i type="int" name="NTAUPAR">    -1</i>
   <i type="int" name="NOMEGAPAR">    -1</i>
   <i name="DAMP_NEWTON">      0.80000001</i>
   <i name="LAMBDA">      1.00000000</i>
  </separator>
  <separator name="External order field" >
   <i name="OFIELD_KAPPA">      0.00000000</i>
   <v name="OFIELD_K">      0.00000000      0.00000000      0.00000000</v>
   <i name="OFIELD_Q6_NEAR">      0.00000000</i>
   <i name="OFIELD_Q6_FAR">      0.00000000</i>
   <i name="OFIELD_A">      0.00000000</i>
  </separator>
 </parameters>
 <atominfo>
  <atoms>     325 </atoms>
  <types>       5 </types>
  <array name="atoms" >
   <dimension dim="1">ion</dimension>
   <field type="string">element</field>
   <field type="int">atomtype</field>
   <set>
    <rc><c>H </c><c>   1</c></rc>
    <rc><c>H </c><c>   1</c></rc>
    <rc><c>H </c><c>   1</c></rc>
    <rc><c>H </c><c>   1</c></rc>
    <rc><c>H </c><c>   1</c></rc>
    <rc><c>H </c><c>   1</c></rc>
    <rc><c>H </c><c>   1</c></rc>
    <rc><c>H </c><c>   1</c></rc>
    <rc><c>H </c><c>   1</c></rc>
    <rc><c>H </c><c>   1</c></rc>
    <rc><c>H </c><c>   1</c></rc>
    <rc><c>H </c><c>   1</c></rc>
    <rc><c>H </c><c>   1</c></rc>
    <rc><c>H </c><c>   1</c></rc>
    <rc><c>H </c><c>   1</c></rc>
    <rc><c>H </c><c>   1</c></rc>
    <rc><c>H </c><c>   1</c></rc>
    <rc><c>H </c><c>   1</c></rc>
    <rc><c>H </c><c>   1</c></rc>
    <rc><c>H </c><c>   1</c></rc>
    <rc><c>H </c><c>   1</c></rc>
    <rc><c>H </c><c>   1</c></rc>
    <rc><c>H </c><c>   1</c></rc>
    <rc><c>H </c><c>   1</c></rc>
    <rc><c>H </c><c>   1</c></rc>
    <rc><c>H </c><c>   1</c></rc>
    <rc><c>H </c><c>   1</c></rc>
    <rc><c>H </c><c>   1</c></rc>
    <rc><c>H </c><c>   1</c></rc>
    <rc><c>H </c><c>   1</c></rc>
    <rc><c>H </c><c>   1</c></rc>
    <rc><c>H </c><c>   1</c></rc>
    <rc><c>H </c><c>   1</c></rc>
    <rc><c>H </c><c>   1</c></rc>
    <rc><c>H </c><c>   1</c></rc>
    <rc><c>H </c><c>   1</c></rc>
    <rc><c>H </c><c>   1</c></rc>
    <rc><c>H </c><c>   1</c></rc>
    <rc><c>H </c><c>   1</c></rc>
    <rc><c>H </c><c>   1</c></rc>
    <rc><c>H </c><c>   1</c></rc>
    <rc><c>H </c><c>   1</c></rc>
    <rc><c>H </c><c>   1</c></rc>
    <rc><c>H </c><c>   1</c></rc>
    <rc><c>H </c><c>   1</c></rc>
    <rc><c>H </c><c>   1</c></rc>
    <rc><c>H </c><c>   1</c></rc>
    <rc><c>H </c><c>   1</c></rc>
    <rc><c>H </c><c>   1</c></rc>
    <rc><c>H </c><c>   1</c></rc>
    <rc><c>H </c><c>   1</c></rc>
    <rc><c>H </c><c>   1</c></rc>
    <rc><c>H </c><c>   1</c></rc>
    <rc><c>H </c><c>   1</c></rc>
    <rc><c>H </c><c>   1</c></rc>
    <rc><c>H </c><c>   1</c></rc>
    <rc><c>H </c><c>   1</c></rc>
    <rc><c>H </c><c>   1</c></rc>
    <rc><c>H </c><c>   1</c></rc>
    <rc><c>H </c><c>   1</c></rc>
    <rc><c>H </c><c>   1</c></rc>
    <rc><c>H </c><c>   1</c></rc>
    <rc><c>H </c><c>   1</c></rc>
    <rc><c>H </c><c>   1</c></rc>
    <rc><c>H </c><c>   1</c></rc>
    <rc><c>H </c><c>   1</c></rc>
    <rc><c>H </c><c>   1</c></rc>
    <rc><c>H </c><c>   1</c></rc>
    <rc><c>H </c><c>   1</c></rc>
    <rc><c>H </c><c>   1</c></rc>
    <rc><c>H </c><c>   1</c></rc>
    <rc><c>H </c><c>   1</c></rc>
    <rc><c>H </c><c>   1</c></rc>
    <rc><c>H </c><c>   1</c></rc>
    <rc><c>H </c><c>   1</c></rc>
    <rc><c>H </c><c>   1</c></rc>
    <rc><c>H </c><c>   1</c></rc>
    <rc><c>H </c><c>   1</c></rc>
    <rc><c>H </c><c>   1</c></rc>
    <rc><c>H </c><c>   1</c></rc>
    <rc><c>H </c><c>   1</c></rc>
    <rc><c>H </c><c>   1</c></rc>
    <rc><c>H </c><c>   1</c></rc>
    <rc><c>H </c><c>   1</c></rc>
    <rc><c>H </c><c>   1</c></rc>
    <rc><c>H </c><c>   1</c></rc>
    <rc><c>H </c><c>   1</c></rc>
    <rc><c>H </c><c>   1</c></rc>
    <rc><c>H </c><c>   1</c></rc>
    <rc><c>H </c><c>   1</c></rc>
    <rc><c>H </c><c>   1</c></rc>
    <rc><c>H </c><c>   1</c></rc>
    <rc><c>H </c><c>   1</c></rc>
    <rc><c>H </c><c>   1</c></rc>
    <rc><c>H </c><c>   1</c></rc>
    <rc><c>H </c><c>   1</c></rc>
    <rc><c>H </c><c>   1</c></rc>
    <rc><c>H </c><c>   1</c></rc>
    <rc><c>H </c><c>   1</c></rc>
    <rc><c>H </c><c>   1</c></rc>
    <rc><c>H </c><c>   1</c></rc>
    <rc><c>H </c><c>   1</c></rc>
    <rc><c>H </c><c>   1</c></rc>
    <rc><c>H </c><c>   1</c></rc>
    <rc><c>H </c><c>   1</c></rc>
    <rc><c>H </c><c>   1</c></rc>
    <rc><c>H </c><c>   1</c></rc>
    <rc><c>H </c><c>   1</c></rc>
    <rc><c>H </c><c>   1</c></rc>
    <rc><c>H </c><c>   1</c></rc>
    <rc><c>H </c><c>   1</c></rc>
    <rc><c>H </c><c>   1</c></rc>
    <rc><c>H </c><c>   1</c></rc>
    <rc><c>H </c><c>   1</c></rc>
    <rc><c>H </c><c>   1</c></rc>
    <rc><c>H </c><c>   1</c></rc>
    <rc><c>H </c><c>   1</c></rc>
    <rc><c>H </c><c>   1</c></rc>
    <rc><c>H </c><c>   1</c></rc>
    <rc><c>H </c><c>   1</c></rc>
    <rc><c>H </c><c>   1</c></rc>
    <rc><c>H </c><c>   1</c></rc>
    <rc><c>H </c><c>   1</c></rc>
    <rc><c>H </c><c>   1</c></rc>
    <rc><c>H </c><c>   1</c></rc>
    <rc><c>H </c><c>   1</c></rc>
    <rc><c>H </c><c>   1</c></rc>
    <rc><c>H </c><c>   1</c></rc>
    <rc><c>H </c><c>   1</c></rc>
    <rc><c>H </c><c>   1</c></rc>
    <rc><c>H </c><c>   1</c></rc>
    <rc><c>H </c><c>   1</c></rc>
    <rc><c>H </c><c>   1</c></rc>
    <rc><c>H </c><c>   1</c></rc>
    <rc><c>H </c><c>   1</c></rc>
    <rc><c>H </c><c>   1</c></rc>
    <rc><c>H </c><c>   1</c></rc>
    <rc><c>H </c><c>   1</c></rc>
    <rc><c>H </c><c>   1</c></rc>
    <rc><c>H </c><c>   1</c></rc>
    <rc><c>H </c><c>   1</c></rc>
    <rc><c>H </c><c>   1</c></rc>
    <rc><c>H </c><c>   1</c></rc>
    <rc><c>C </c><c>   2</c></rc>
    <rc><c>C </c><c>   2</c></rc>
    <rc><c>C </c><c>   2</c></rc>
    <rc><c>C </c><c>   2</c></rc>
    <rc><c>C </c><c>   2</c></rc>
    <rc><c>C </c><c>   2</c></rc>
    <rc><c>C </c><c>   2</c></rc>
    <rc><c>C </c><c>   2</c></rc>
    <rc><c>C </c><c>   2</c></rc>
    <rc><c>C </c><c>   2</c></rc>
    <rc><c>C </c><c>   2</c></rc>
    <rc><c>C </c><c>   2</c></rc>
    <rc><c>C </c><c>   2</c></rc>
    <rc><c>C </c><c>   2</c></rc>
    <rc><c>C </c><c>   2</c></rc>
    <rc><c>C </c><c>   2</c></rc>
    <rc><c>C </c><c>   2</c></rc>
    <rc><c>C </c><c>   2</c></rc>
    <rc><c>C </c><c>   2</c></rc>
    <rc><c>C </c><c>   2</c></rc>
    <rc><c>C </c><c>   2</c></rc>
    <rc><c>C </c><c>   2</c></rc>
    <rc><c>C </c><c>   2</c></rc>
    <rc><c>C </c><c>   2</c></rc>
    <rc><c>C </c><c>   2</c></rc>
    <rc><c>C </c><c>   2</c></rc>
    <rc><c>C </c><c>   2</c></rc>
    <rc><c>C </c><c>   2</c></rc>
    <rc><c>C </c><c>   2</c></rc>
    <rc><c>C </c><c>   2</c></rc>
    <rc><c>C </c><c>   2</c></rc>
    <rc><c>C </c><c>   2</c></rc>
    <rc><c>C </c><c>   2</c></rc>
    <rc><c>C </c><c>   2</c></rc>
    <rc><c>C </c><c>   2</c></rc>
    <rc><c>C </c><c>   2</c></rc>
    <rc><c>C </c><c>   2</c></rc>
    <rc><c>C </c><c>   2</c></rc>
    <rc><c>C </c><c>   2</c></rc>
    <rc><c>N </c><c>   3</c></rc>
    <rc><c>N </c><c>   3</c></rc>
    <rc><c>N </c><c>   3</c></rc>
    <rc><c>N </c><c>   3</c></rc>
    <rc><c>N </c><c>   3</c></rc>
    <rc><c>N </c><c>   3</c></rc>
    <rc><c>N </c><c>   3</c></rc>
    <rc><c>N </c><c>   3</c></rc>
    <rc><c>N </c><c>   3</c></rc>
    <rc><c>N </c><c>   3</c></rc>
    <rc><c>N </c><c>   3</c></rc>
    <rc><c>N </c><c>   3</c></rc>
    <rc><c>N </c><c>   3</c></rc>
    <rc><c>N </c><c>   3</c></rc>
    <rc><c>N </c><c>   3</c></rc>
    <rc><c>N </c><c>   3</c></rc>
    <rc><c>N </c><c>   3</c></rc>
    <rc><c>N </c><c>   3</c></rc>
    <rc><c>N </c><c>   3</c></rc>
    <rc><c>N </c><c>   3</c></rc>
    <rc><c>N </c><c>   3</c></rc>
    <rc><c>N </c><c>   3</c></rc>
    <rc><c>N </c><c>   3</c></rc>
    <rc><c>N </c><c>   3</c></rc>
    <rc><c>N </c><c>   3</c></rc>
    <rc><c>N </c><c>   3</c></rc>
    <rc><c>N </c><c>   3</c></rc>
    <rc><c>N </c><c>   3</c></rc>
    <rc><c>N </c><c>   3</c></rc>
    <rc><c>N </c><c>   3</c></rc>
    <rc><c>N </c><c>   3</c></rc>
    <rc><c>N </c><c>   3</c></rc>
    <rc><c>N </c><c>   3</c></rc>
    <rc><c>N </c><c>   3</c></rc>
    <rc><c>N </c><c>   3</c></rc>
    <rc><c>N </c><c>   3</c></rc>
    <rc><c>N </c><c>   3</c></rc>
    <rc><c>N </c><c>   3</c></rc>
    <rc><c>N </c><c>   3</c></rc>
    <rc><c>N </c><c>   3</c></rc>
    <rc><c>N </c><c>   3</c></rc>
    <rc><c>N </c><c>   3</c></rc>
    <rc><c>N </c><c>   3</c></rc>
    <rc><c>N </c><c>   3</c></rc>
    <rc><c>N </c><c>   3</c></rc>
    <rc><c>N </c><c>   3</c></rc>
    <rc><c>N </c><c>   3</c></rc>
    <rc><c>I </c><c>   4</c></rc>
    <rc><c>I </c><c>   4</c></rc>
    <rc><c>I </c><c>   4</c></rc>
    <rc><c>I </c><c>   4</c></rc>
    <rc><c>I </c><c>   4</c></rc>
    <rc><c>I </c><c>   4</c></rc>
    <rc><c>I </c><c>   4</c></rc>
    <rc><c>I </c><c>   4</c></rc>
    <rc><c>I </c><c>   4</c></rc>
    <rc><c>I </c><c>   4</c></rc>
    <rc><c>I </c><c>   4</c></rc>
    <rc><c>I </c><c>   4</c></rc>
    <rc><c>I </c><c>   4</c></rc>
    <rc><c>I </c><c>   4</c></rc>
    <rc><c>I </c><c>   4</c></rc>
    <rc><c>I </c><c>   4</c></rc>
    <rc><c>I </c><c>   4</c></rc>
    <rc><c>I </c><c>   4</c></rc>
    <rc><c>I </c><c>   4</c></rc>
    <rc><c>I </c><c>   4</c></rc>
    <rc><c>I </c><c>   4</c></rc>
    <rc><c>I </c><c>   4</c></rc>
    <rc><c>I </c><c>   4</c></rc>
    <rc><c>I </c><c>   4</c></rc>
    <rc><c>I </c><c>   4</c></rc>
    <rc><c>I </c><c>   4</c></rc>
    <rc><c>I </c><c>   4</c></rc>
    <rc><c>I </c><c>   4</c></rc>
    <rc><c>I </c><c>   4</c></rc>
    <rc><c>I </c><c>   4</c></rc>
    <rc><c>I </c><c>   4</c></rc>
    <rc><c>I </c><c>   4</c></rc>
    <rc><c>I </c><c>   4</c></rc>
    <rc><c>I </c><c>   4</c></rc>
    <rc><c>I </c><c>   4</c></rc>
    <rc><c>I </c><c>   4</c></rc>
    <rc><c>I </c><c>   4</c></rc>
    <rc><c>I </c><c>   4</c></rc>
    <rc><c>I </c><c>   4</c></rc>
    <rc><c>I </c><c>   4</c></rc>
    <rc><c>I </c><c>   4</c></rc>
    <rc><c>I </c><c>   4</c></rc>
    <rc><c>I </c><c>   4</c></rc>
    <rc><c>I </c><c>   4</c></rc>
    <rc><c>I </c><c>   4</c></rc>
    <rc><c>I </c><c>   4</c></rc>
    <rc><c>I </c><c>   4</c></rc>
    <rc><c>I </c><c>   4</c></rc>
    <rc><c>I </c><c>   4</c></rc>
    <rc><c>I </c><c>   4</c></rc>
    <rc><c>I </c><c>   4</c></rc>
    <rc><c>I </c><c>   4</c></rc>
    <rc><c>I </c><c>   4</c></rc>
    <rc><c>I </c><c>   4</c></rc>
    <rc><c>I </c><c>   4</c></rc>
    <rc><c>I </c><c>   4</c></rc>
    <rc><c>I </c><c>   4</c></rc>
    <rc><c>I </c><c>   4</c></rc>
    <rc><c>I </c><c>   4</c></rc>
    <rc><c>I </c><c>   4</c></rc>
    <rc><c>I </c><c>   4</c></rc>
    <rc><c>I </c><c>   4</c></rc>
    <rc><c>I </c><c>   4</c></rc>
    <rc><c>I </c><c>   4</c></rc>
    <rc><c>I </c><c>   4</c></rc>
    <rc><c>I </c><c>   4</c></rc>
    <rc><c>I </c><c>   4</c></rc>
    <rc><c>I </c><c>   4</c></rc>
    <rc><c>I </c><c>   4</c></rc>
    <rc><c>I </c><c>   4</c></rc>
    <rc><c>I </c><c>   4</c></rc>
    <rc><c>I </c><c>   4</c></rc>
    <rc><c>Pb</c><c>   5</c></rc>
    <rc><c>Pb</c><c>   5</c></rc>
    <rc><c>Pb</c><c>   5</c></rc>
    <rc><c>Pb</c><c>   5</c></rc>
    <rc><c>Pb</c><c>   5</c></rc>
    <rc><c>Pb</c><c>   5</c></rc>
    <rc><c>Pb</c><c>   5</c></rc>
    <rc><c>Pb</c><c>   5</c></rc>
    <rc><c>Pb</c><c>   5</c></rc>
    <rc><c>Pb</c><c>   5</c></rc>
    <rc><c>Pb</c><c>   5</c></rc>
    <rc><c>Pb</c><c>   5</c></rc>
    <rc><c>Pb</c><c>   5</c></rc>
    <rc><c>Pb</c><c>   5</c></rc>
    <rc><c>Pb</c><c>   5</c></rc>
    <rc><c>Pb</c><c>   5</c></rc>
    <rc><c>Pb</c><c>   5</c></rc>
    <rc><c>Pb</c><c>   5</c></rc>
    <rc><c>Pb</c><c>   5</c></rc>
    <rc><c>Pb</c><c>   5</c></rc>
    <rc><c>Pb</c><c>   5</c></rc>
    <rc><c>Pb</c><c>   5</c></rc>
    <rc><c>Pb</c><c>   5</c></rc>
    <rc><c>Pb</c><c>   5</c></rc>
   </set>
  </array>
  <array name="atomtypes" >
   <dimension dim="1">type</dimension>
   <field type="int">atomspertype</field>
   <field type="string">element</field>
   <field>mass</field>
   <field>valence</field>
   <field type="string">pseudopotential</field>
   <set>
    <rc><c> 143</c><c>H </c><c>      1.00000000</c><c>      1.00000000</c><c>  PAW_PBE H 15Jun2001                   </c></rc>
    <rc><c>  39</c><c>C </c><c>     12.01100000</c><c>      4.00000000</c><c>  PAW_PBE C 08Apr2002                   </c></rc>
    <rc><c>  47</c><c>N </c><c>     14.00100000</c><c>      5.00000000</c><c>  PAW_PBE N 08Apr2002                   </c></rc>
    <rc><c>  72</c><c>I </c><c>    126.90400000</c><c>      7.00000000</c><c>  PAW_PBE I 08Apr2002                   </c></rc>
    <rc><c>  24</c><c>Pb</c><c>    207.20000000</c><c>      4.00000000</c><c>  PAW_PBE Pb 08Apr2002                  </c></rc>
   </set>
  </array>
 </atominfo>
 <structure name="initialpos" >
  <crystal>
   <varray name="basis" >
    <v>      18.06080055       0.00000000       0.00000000 </v>
    <v>      -0.00491865      18.06279945       0.00000000 </v>
    <v>       0.00000000       0.00000000      62.48749924 </v>
   </varray>
   <i name="volume">  20385.21054034 </i>
   <varray name="rec_basis" >
    <v>       0.05536853       0.00001508      -0.00000000 </v>
    <v>       0.00000000       0.05536240       0.00000000 </v>
    <v>       0.00000000      -0.00000000       0.01600320 </v>
   </varray>
  </crystal>
  <varray name="positions" >
   <v>       0.44514852       0.30421691       0.58032158 </v>
   <v>       0.44251014       0.81665998       0.58065673 </v>
   <v>       0.96834164       0.31061717       0.57832972 </v>
   <v>       0.96971278       0.80909264       0.58216948 </v>
   <v>       0.31428516       0.02514198       0.58218206 </v>
   <v>       0.30204805       0.55092027       0.58101385 </v>
   <v>       0.77727367       0.06177797       0.58301944 </v>
   <v>       0.07087460       0.14034697       0.56183827 </v>
   <v>       0.06381928       0.65442035       0.55598504 </v>
   <v>       0.59123602       0.18805166       0.55623656 </v>
   <v>       0.56331710       0.66735304       0.55970081 </v>
   <v>       0.33960571       0.06539760       0.55741300 </v>
   <v>       0.30983671       0.59552266       0.55599432 </v>
   <v>       0.82794597       0.08294963       0.55963421 </v>
   <v>       0.03705182       0.18650762       0.58538478 </v>
   <v>       0.04529135       0.68890965       0.58154436 </v>
   <v>       0.56952822       0.23906699       0.57968412 </v>
   <v>       0.51743043       0.69501623       0.58223346 </v>
   <v>       0.21627016       0.43973887       0.58241703 </v>
   <v>       0.19492735       0.95034027       0.58239591 </v>
   <v>       0.69073560       0.95230100       0.58120487 </v>
   <v>       0.39191935       0.29442378       0.55754651 </v>
   <v>       0.44811447       0.86290142       0.55635585 </v>
   <v>       0.96232541       0.33661144       0.55182949 </v>
   <v>       0.94293783       0.84259231       0.55751532 </v>
   <v>       0.17115821       0.41567090       0.55830161 </v>
   <v>       0.14523824       0.94721576       0.55808562 </v>
   <v>       0.68862358       0.90332999       0.55650749 </v>
   <v>       0.48024760       0.21901643       0.53945366 </v>
   <v>       0.52403321       0.77398534       0.54022866 </v>
   <v>       0.02369767       0.23255186       0.53876578 </v>
   <v>       0.00032087       0.74545224       0.53826568 </v>
   <v>       0.22662115       0.51177991       0.53943175 </v>
   <v>       0.23471328       0.02049491       0.54012476 </v>
   <v>       0.77432604       0.98198128       0.54075617 </v>
   <v>       0.45633971       0.30771644       0.67581748 </v>
   <v>       0.44128013       0.80697102       0.67492845 </v>
   <v>       0.94920383       0.29437848       0.67709234 </v>
   <v>       0.94397176       0.80443456       0.67610013 </v>
   <v>       0.29681013       0.04951995       0.67563062 </v>
   <v>       0.29956312       0.55868011       0.67521543 </v>
   <v>       0.80439289       0.04804098       0.67445460 </v>
   <v>       0.80310961       0.57212694       0.67399040 </v>
   <v>       0.08283362       0.17135307       0.64897465 </v>
   <v>       0.08553869       0.68192045       0.65325706 </v>
   <v>       0.57034750       0.16220121       0.65037825 </v>
   <v>       0.57089321       0.67013500       0.65140000 </v>
   <v>       0.18257949       0.41625012       0.64919674 </v>
   <v>       0.16951665       0.91865340       0.64848096 </v>
   <v>       0.68158517       0.41805329       0.65565806 </v>
   <v>       0.66262180       0.92757862       0.64926750 </v>
   <v>       0.05553320       0.19565910       0.67465539 </v>
   <v>       0.04290344       0.70208030       0.67751326 </v>
   <v>       0.55809334       0.20390849       0.67513754 </v>
   <v>       0.54283781       0.69986523       0.67695083 </v>
   <v>       0.20780336       0.44437266       0.67485861 </v>
   <v>       0.19350119       0.94541030       0.67456418 </v>
   <v>       0.69976248       0.46421277       0.67913016 </v>
   <v>       0.69138453       0.95453302       0.67491044 </v>
   <v>       0.41502258       0.32153123       0.65112065 </v>
   <v>       0.41711502       0.83190975       0.64922586 </v>
   <v>       0.91899479       0.32309158       0.65154200 </v>
   <v>       0.93025785       0.84046002       0.65074307 </v>
   <v>       0.32663963       0.07698879       0.65047318 </v>
   <v>       0.32361291       0.58918746       0.64951797 </v>
   <v>       0.83515216       0.06931136       0.64885518 </v>
   <v>       0.83441681       0.58057442       0.64745970 </v>
   <v>       0.99929644       0.24936350       0.63266060 </v>
   <v>       0.02048432       0.76867922       0.63479390 </v>
   <v>       0.47948638       0.23179791       0.63321356 </v>
   <v>       0.49360366       0.75139325       0.63258746 </v>
   <v>       0.25131304       0.99873190       0.63155668 </v>
   <v>       0.25405221       0.50598789       0.63148959 </v>
   <v>       0.74847250       0.99429506       0.63115810 </v>
   <v>       0.76084177       0.48417510       0.63467730 </v>
   <v>       0.44874502       0.30128397       0.76888902 </v>
   <v>       0.44874501       0.80128391       0.76888902 </v>
   <v>       0.94874497       0.30128397       0.76888902 </v>
   <v>       0.94874501       0.80128391       0.76888902 </v>
   <v>       0.30127600       0.05129450       0.76887296 </v>
   <v>       0.30127601       0.55129450       0.76887296 </v>
   <v>       0.80127594       0.05129450       0.76887296 </v>
   <v>       0.80127598       0.55129450       0.76887296 </v>
   <v>       0.07877100       0.17118050       0.74344197 </v>
   <v>       0.07877101       0.67118045       0.74344197 </v>
   <v>       0.57877100       0.17118050       0.74344197 </v>
   <v>       0.57877099       0.67118045       0.74344197 </v>
   <v>       0.17119950       0.42117448       0.74342103 </v>
   <v>       0.17119950       0.92117451       0.74342103 </v>
   <v>       0.67119951       0.42117448       0.74342103 </v>
   <v>       0.67119950       0.92117451       0.74342103 </v>
   <v>       0.05125600       0.19871499       0.76888902 </v>
   <v>       0.05125600       0.69871493       0.76888902 </v>
   <v>       0.55125603       0.19871499       0.76888902 </v>
   <v>       0.55125602       0.69871493       0.76888902 </v>
   <v>       0.19872349       0.44870397       0.76887205 </v>
   <v>       0.19872349       0.94870397       0.76887205 </v>
   <v>       0.69872352       0.44870397       0.76887205 </v>
   <v>       0.69872351       0.94870397       0.76887205 </v>
   <v>       0.42123152       0.32881747       0.74344197 </v>
   <v>       0.42123151       0.82881744       0.74344197 </v>
   <v>       0.92123147       0.32881747       0.74344197 </v>
   <v>       0.92123151       0.82881744       0.74344197 </v>
   <v>       0.32880050       0.07882500       0.74342103 </v>
   <v>       0.32880049       0.57882496       0.74342103 </v>
   <v>       0.82880048       0.07882500       0.74342103 </v>
   <v>       0.82880052       0.57882496       0.74342103 </v>
   <v>       0.00000350       0.25000148       0.72582199 </v>
   <v>       0.00000350       0.75000145       0.72582199 </v>
   <v>       0.50000351       0.25000148       0.72582199 </v>
   <v>       0.50000350       0.75000145       0.72582199 </v>
   <v>       0.25000050       0.00000000       0.72580398 </v>
   <v>       0.25000052       0.50000000       0.72580398 </v>
   <v>       0.75000050       0.00000000       0.72580398 </v>
   <v>       0.75000049       0.50000000       0.72580398 </v>
   <v>       0.78179995       0.56339700       0.52665893 </v>
   <v>       0.72948645       0.47801773       0.52867196 </v>
   <v>       0.87028157       0.50596324       0.54878927 </v>
   <v>       0.84981606       0.48164630       0.57569290 </v>
   <v>       0.74024803       0.64091332       0.56733546 </v>
   <v>       0.79782608       0.59207592       0.58483389 </v>
   <v>       0.64914699       0.53684229       0.57213580 </v>
   <v>       0.67196853       0.44769289       0.56157735 </v>
   <v>       0.62018362       0.54601927       0.54023788 </v>
   <v>       0.66941340       0.63066011       0.54378107 </v>
   <v>       0.62055715       0.65769306       0.51045821 </v>
   <v>       0.69920386       0.60706809       0.50224792 </v>
   <v>       0.82771396       0.39201819       0.53549706 </v>
   <v>       0.75927965       0.38888964       0.55482875 </v>
   <v>       0.84797812       0.36219884       0.56157723 </v>
   <v>       0.85657852       0.69172060       0.55972920 </v>
   <v>       0.84915656       0.62831806       0.53976329 </v>
   <v>       0.90243315       0.60477377       0.56205010 </v>
   <v>       0.76438159       0.50544751       0.59992071 </v>
   <v>       0.74013395       0.41318125       0.59276010 </v>
   <v>       0.67283052       0.47162556       0.60486604 </v>
   <v>       0.54275662       0.54172972       0.51010743 </v>
   <v>       0.57884946       0.56279336       0.48377410 </v>
   <v>       0.72383542       0.49917915       0.47797292 </v>
   <v>       0.55321367       0.41997104       0.52125721 </v>
   <v>       0.78527212       0.37463975       0.47972550 </v>
   <v>       0.61795495       0.29785338       0.52340925 </v>
   <v>       0.73510955       0.27382333       0.50347317 </v>
   <v>       0.01658750       0.23733676       0.55605958 </v>
   <v>       0.00323549       0.74841863       0.55520932 </v>
   <v>       0.48970786       0.24144463       0.55523740 </v>
   <v>       0.50558712       0.76616879       0.55672323 </v>
   <v>       0.24098403       0.50653240       0.55645847 </v>
   <v>       0.24318561       0.00732941       0.55711405 </v>
   <v>       0.75781266       0.99215949       0.55742936 </v>
   <v>       0.00065116       0.24739982       0.64967303 </v>
   <v>       0.00753227       0.76260880       0.65131374 </v>
   <v>       0.49132057       0.24233681       0.65027997 </v>
   <v>       0.49409754       0.75121226       0.64966888 </v>
   <v>       0.25257401       0.50118510       0.64862149 </v>
   <v>       0.24923172       0.99889102       0.64874615 </v>
   <v>       0.75823213       0.49938697       0.65150500 </v>
   <v>       0.74996902       0.99936268       0.64831839 </v>
   <v>       0.49998898       0.24999498       0.74327702 </v>
   <v>       0.49998903       0.74999496       0.74327702 </v>
   <v>       0.99998898       0.24999498       0.74327702 </v>
   <v>       0.99998903       0.74999496       0.74327702 </v>
   <v>       0.25000050       0.00000100       0.74325596 </v>
   <v>       0.25000052       0.50000100       0.74325596 </v>
   <v>       0.75000050       0.00000100       0.74325596 </v>
   <v>       0.75000049       0.50000100       0.74325596 </v>
   <v>       0.63154321       0.46713855       0.49957835 </v>
   <v>       0.69744584       0.45261982       0.48756239 </v>
   <v>       0.60307315       0.40850921       0.51209336 </v>
   <v>       0.73204290       0.38558975       0.48902005 </v>
   <v>       0.63882818       0.34145774       0.51305000 </v>
   <v>       0.70446086       0.32857726       0.50159190 </v>
   <v>       0.73479535       0.53475583       0.53508615 </v>
   <v>       0.82985625       0.47907611       0.55923637 </v>
   <v>       0.78488878       0.60153743       0.56800777 </v>
   <v>       0.69448227       0.49441252       0.57108267 </v>
   <v>       0.66560774       0.57868120       0.53364397 </v>
   <v>       0.64436726       0.60158938       0.51084232 </v>
   <v>       0.81697700       0.40233523       0.55238392 </v>
   <v>       0.85194390       0.63235655       0.55706094 </v>
   <v>       0.71899464       0.46944254       0.59321673 </v>
   <v>       0.59507542       0.54364923       0.50003641 </v>
   <v>       0.04323829       0.18613585       0.56831966 </v>
   <v>       0.03958674       0.69421413       0.56474046 </v>
   <v>       0.55321430       0.22044052       0.56416686 </v>
   <v>       0.53141289       0.70693093       0.56676802 </v>
   <v>       0.44076650       0.28168865       0.56459999 </v>
   <v>       0.46308777       0.81680311       0.56459339 </v>
   <v>       0.97906242       0.29619416       0.56223526 </v>
   <v>       0.97012636       0.80256679       0.56556484 </v>
   <v>       0.20869568       0.45026631       0.56688401 </v>
   <v>       0.19234442       0.96526147       0.56701044 </v>
   <v>       0.70933046       0.94875888       0.56611671 </v>
   <v>       0.30143350       0.03303058       0.56668958 </v>
   <v>       0.28625453       0.55232189       0.56561050 </v>
   <v>       0.79013682       0.04797360       0.56799764 </v>
   <v>       0.05094771       0.20050452       0.65868039 </v>
   <v>       0.04951678       0.71076949       0.66189032 </v>
   <v>       0.54416113       0.19909147       0.65936852 </v>
   <v>       0.53662911       0.70645391       0.66041743 </v>
   <v>       0.21294278       0.45167743       0.65798799 </v>
   <v>       0.20065417       0.95103647       0.65780515 </v>
   <v>       0.71108814       0.45929878       0.66295358 </v>
   <v>       0.69763389       0.95768655       0.65809720 </v>
   <v>       0.45295732       0.29218433       0.65939794 </v>
   <v>       0.44884162       0.79910284       0.65831398 </v>
   <v>       0.95556175       0.28879554       0.66025016 </v>
   <v>       0.95735508       0.80436941       0.66048495 </v>
   <v>       0.29240435       0.04328870       0.65870865 </v>
   <v>       0.29475826       0.55343967       0.65841318 </v>
   <v>       0.79818045       0.04028610       0.65760834 </v>
   <v>       0.79888859       0.55252205       0.65881225 </v>
   <v>       0.04586250       0.20411950       0.75272599 </v>
   <v>       0.04586250       0.70411946       0.75272599 </v>
   <v>       0.54586251       0.20411950       0.75272599 </v>
   <v>       0.54586250       0.70411946       0.75272599 </v>
   <v>       0.20411900       0.45410100       0.75270499 </v>
   <v>       0.20411899       0.95410095       0.75270499 </v>
   <v>       0.70411898       0.45410100       0.75270499 </v>
   <v>       0.70411896       0.95410095       0.75270499 </v>
   <v>       0.45414002       0.29588849       0.75272697 </v>
   <v>       0.45414001       0.79588852       0.75272697 </v>
   <v>       0.95414002       0.29588849       0.75272697 </v>
[...]
   <v>       0.59123602       0.18805166       0.55623656 </v>
   <v>       0.56331710       0.66735304       0.55970081 </v>
   <v>       0.33960571       0.06539760       0.55741300 </v>
   <v>       0.30983671       0.59552266       0.55599432 </v>
   <v>       0.82794597       0.08294963       0.55963421 </v>
   <v>       0.03705182       0.18650762       0.58538478 </v>
   <v>       0.04529135       0.68890965       0.58154436 </v>
   <v>       0.56952822       0.23906699       0.57968412 </v>
   <v>       0.51743043       0.69501623       0.58223346 </v>
   <v>       0.21627016       0.43973887       0.58241703 </v>
   <v>       0.19492735       0.95034027       0.58239591 </v>
   <v>       0.69073560       0.95230100       0.58120487 </v>
   <v>       0.39191935       0.29442378       0.55754651 </v>
   <v>       0.44811447       0.86290142       0.55635585 </v>
   <v>       0.96232541       0.33661144       0.55182949 </v>
   <v>       0.94293783       0.84259231       0.55751532 </v>
   <v>       0.17115821       0.41567090       0.55830161 </v>
   <v>       0.14523824       0.94721576       0.55808562 </v>
   <v>       0.68862358       0.90332999       0.55650749 </v>
   <v>       0.48024760       0.21901643       0.53945366 </v>
   <v>       0.52403321       0.77398534       0.54022866 </v>
   <v>       0.02369767       0.23255186       0.53876578 </v>
   <v>       0.00032087       0.74545224       0.53826568 </v>
   <v>       0.22662115       0.51177991       0.53943175 </v>
   <v>       0.23471328       0.02049491       0.54012476 </v>
   <v>       0.77432604       0.98198128       0.54075617 </v>
   <v>       0.45633971       0.30771644       0.67581748 </v>
   <v>       0.44128013       0.80697102       0.67492845 </v>
   <v>       0.94920383       0.29437848       0.67709234 </v>
   <v>       0.94397176       0.80443456       0.67610013 </v>
   <v>       0.29681013       0.04951995       0.67563062 </v>
   <v>       0.29956312       0.55868011       0.67521543 </v>
   <v>       0.80439289       0.04804098       0.67445460 </v>
   <v>       0.80310961       0.57212694       0.67399040 </v>
   <v>       0.08283362       0.17135307       0.64897465 </v>
   <v>       0.08553869       0.68192045       0.65325706 </v>
   <v>       0.57034750       0.16220121       0.65037825 </v>
   <v>       0.57089321       0.67013500       0.65140000 </v>
   <v>       0.18257949       0.41625012       0.64919674 </v>
   <v>       0.16951665       0.91865340       0.64848096 </v>
   <v>       0.68158517       0.41805329       0.65565806 </v>
   <v>       0.66262180       0.92757862       0.64926750 </v>
   <v>       0.05553320       0.19565910       0.67465539 </v>
   <v>       0.04290344       0.70208030       0.67751326 </v>
   <v>       0.55809334       0.20390849       0.67513754 </v>
   <v>       0.54283781       0.69986523       0.67695083 </v>
   <v>       0.20780336       0.44437266       0.67485861 </v>
   <v>       0.19350119       0.94541030       0.67456418 </v>
   <v>       0.69976248       0.46421277       0.67913016 </v>
   <v>       0.69138453       0.95453302       0.67491044 </v>
   <v>       0.41502258       0.32153123       0.65112065 </v>
   <v>       0.41711502       0.83190975       0.64922586 </v>
   <v>       0.91899479       0.32309158       0.65154200 </v>
   <v>       0.93025785       0.84046002       0.65074307 </v>
   <v>       0.32663963       0.07698879       0.65047318 </v>
   <v>       0.32361291       0.58918746       0.64951797 </v>
   <v>       0.83515216       0.06931136       0.64885518 </v>
   <v>       0.83441681       0.58057442       0.64745970 </v>
   <v>       0.99929644       0.24936350       0.63266060 </v>
   <v>       0.02048432       0.76867922       0.63479390 </v>
   <v>       0.47948638       0.23179791       0.63321356 </v>
   <v>       0.49360366       0.75139325       0.63258746 </v>
   <v>       0.25131304       0.99873190       0.63155668 </v>
   <v>       0.25405221       0.50598789       0.63148959 </v>
   <v>       0.74847250       0.99429506       0.63115810 </v>
   <v>       0.76084177       0.48417510       0.63467730 </v>
   <v>       0.44874502       0.30128397       0.76888902 </v>
   <v>       0.44874501       0.80128391       0.76888902 </v>
   <v>       0.94874497       0.30128397       0.76888902 </v>
   <v>       0.94874501       0.80128391       0.76888902 </v>
   <v>       0.30127600       0.05129450       0.76887296 </v>
   <v>       0.30127601       0.55129450       0.76887296 </v>
   <v>       0.80127594       0.05129450       0.76887296 </v>
   <v>       0.80127598       0.55129450       0.76887296 </v>
   <v>       0.07877100       0.17118050       0.74344197 </v>
   <v>       0.07877101       0.67118045       0.74344197 </v>
   <v>       0.57877100       0.17118050       0.74344197 </v>
   <v>       0.57877099       0.67118045       0.74344197 </v>
   <v>       0.17119950       0.42117448       0.74342103 </v>
   <v>       0.17119950       0.92117451       0.74342103 </v>
   <v>       0.67119951       0.42117448       0.74342103 </v>
   <v>       0.67119950       0.92117451       0.74342103 </v>
   <v>       0.05125600       0.19871499       0.76888902 </v>
   <v>       0.05125600       0.69871493       0.76888902 </v>
   <v>       0.55125603       0.19871499       0.76888902 </v>
   <v>       0.55125602       0.69871493       0.76888902 </v>
   <v>       0.19872349       0.44870397       0.76887205 </v>
   <v>       0.19872349       0.94870397       0.76887205 </v>
   <v>       0.69872352       0.44870397       0.76887205 </v>
   <v>       0.69872351       0.94870397       0.76887205 </v>
   <v>       0.42123152       0.32881747       0.74344197 </v>
   <v>       0.42123151       0.82881744       0.74344197 </v>
   <v>       0.92123147       0.32881747       0.74344197 </v>
   <v>       0.92123151       0.82881744       0.74344197 </v>
   <v>       0.32880050       0.07882500       0.74342103 </v>
   <v>       0.32880049       0.57882496       0.74342103 </v>
   <v>       0.82880048       0.07882500       0.74342103 </v>
   <v>       0.82880052       0.57882496       0.74342103 </v>
   <v>       0.00000350       0.25000148       0.72582199 </v>
   <v>       0.00000350       0.75000145       0.72582199 </v>
   <v>       0.50000351       0.25000148       0.72582199 </v>
   <v>       0.50000350       0.75000145       0.72582199 </v>
   <v>       0.25000050       0.00000000       0.72580398 </v>
   <v>       0.25000052       0.50000000       0.72580398 </v>
   <v>       0.75000050       0.00000000       0.72580398 </v>
   <v>       0.75000049       0.50000000       0.72580398 </v>
   <v>       0.78179995       0.56339700       0.52665893 </v>
   <v>       0.72948645       0.47801773       0.52867196 </v>
   <v>       0.87028157       0.50596324       0.54878927 </v>
   <v>       0.84981606       0.48164630       0.57569290 </v>
   <v>       0.74024803       0.64091332       0.56733546 </v>
   <v>       0.79782608       0.59207592       0.58483389 </v>
   <v>       0.64914699       0.53684229       0.57213580 </v>
   <v>       0.67196853       0.44769289       0.56157735 </v>
   <v>       0.62018362       0.54601927       0.54023788 </v>
   <v>       0.66941340       0.63066011       0.54378107 </v>
   <v>       0.62055715       0.65769306       0.51045821 </v>
   <v>       0.69920386       0.60706809       0.50224792 </v>
   <v>       0.82771396       0.39201819       0.53549706 </v>
   <v>       0.75927965       0.38888964       0.55482875 </v>
   <v>       0.84797812       0.36219884       0.56157723 </v>
   <v>       0.85657852       0.69172060       0.55972920 </v>
   <v>       0.84915656       0.62831806       0.53976329 </v>
   <v>       0.90243315       0.60477377       0.56205010 </v>
   <v>       0.76438159       0.50544751       0.59992071 </v>
   <v>       0.74013395       0.41318125       0.59276010 </v>
   <v>       0.67283052       0.47162556       0.60486604 </v>
   <v>       0.54275662       0.54172972       0.51010743 </v>
   <v>       0.57884946       0.56279336       0.48377410 </v>
   <v>       0.72383542       0.49917915       0.47797292 </v>
   <v>       0.55321367       0.41997104       0.52125721 </v>
   <v>       0.78527212       0.37463975       0.47972550 </v>
   <v>       0.61795495       0.29785338       0.52340925 </v>
   <v>       0.73510955       0.27382333       0.50347317 </v>
   <v>       0.01658750       0.23733676       0.55605958 </v>
   <v>       0.00323549       0.74841863       0.55520932 </v>
   <v>       0.48970786       0.24144463       0.55523740 </v>
   <v>       0.50558712       0.76616879       0.55672323 </v>
   <v>       0.24098403       0.50653240       0.55645847 </v>
   <v>       0.24318561       0.00732941       0.55711405 </v>
   <v>       0.75781266       0.99215949       0.55742936 </v>
   <v>       0.00065116       0.24739982       0.64967303 </v>
   <v>       0.00753227       0.76260880       0.65131374 </v>
   <v>       0.49132057       0.24233681       0.65027997 </v>
   <v>       0.49409754       0.75121226       0.64966888 </v>
   <v>       0.25257401       0.50118510       0.64862149 </v>
   <v>       0.24923172       0.99889102       0.64874615 </v>
   <v>       0.75823213       0.49938697       0.65150500 </v>
   <v>       0.74996902       0.99936268       0.64831839 </v>
   <v>       0.49998898       0.24999498       0.74327702 </v>
   <v>       0.49998903       0.74999496       0.74327702 </v>
   <v>       0.99998898       0.24999498       0.74327702 </v>
   <v>       0.99998903       0.74999496       0.74327702 </v>
   <v>       0.25000050       0.00000100       0.74325596 </v>
   <v>       0.25000052       0.50000100       0.74325596 </v>
   <v>       0.75000050       0.00000100       0.74325596 </v>
   <v>       0.75000049       0.50000100       0.74325596 </v>
   <v>       0.63154321       0.46713855       0.49957835 </v>
   <v>       0.69744584       0.45261982       0.48756239 </v>
   <v>       0.60307315       0.40850921       0.51209336 </v>
   <v>       0.73204290       0.38558975       0.48902005 </v>
   <v>       0.63882818       0.34145774       0.51305000 </v>
   <v>       0.70446086       0.32857726       0.50159190 </v>
   <v>       0.73479535       0.53475583       0.53508615 </v>
   <v>       0.82985625       0.47907611       0.55923637 </v>
   <v>       0.78488878       0.60153743       0.56800777 </v>
   <v>       0.69448227       0.49441252       0.57108267 </v>
   <v>       0.66560774       0.57868120       0.53364397 </v>
   <v>       0.64436726       0.60158938       0.51084232 </v>
   <v>       0.81697700       0.40233523       0.55238392 </v>
   <v>       0.85194390       0.63235655       0.55706094 </v>
   <v>       0.71899464       0.46944254       0.59321673 </v>
   <v>       0.59507542       0.54364923       0.50003641 </v>
   <v>       0.04323829       0.18613585       0.56831966 </v>
   <v>       0.03958674       0.69421413       0.56474046 </v>
   <v>       0.55321430       0.22044052       0.56416686 </v>
   <v>       0.53141289       0.70693093       0.56676802 </v>
   <v>       0.44076650       0.28168865       0.56459999 </v>
   <v>       0.46308777       0.81680311       0.56459339 </v>
   <v>       0.97906242       0.29619416       0.56223526 </v>
   <v>       0.97012636       0.80256679       0.56556484 </v>
   <v>       0.20869568       0.45026631       0.56688401 </v>
   <v>       0.19234442       0.96526147       0.56701044 </v>
   <v>       0.70933046       0.94875888       0.56611671 </v>
   <v>       0.30143350       0.03303058       0.56668958 </v>
   <v>       0.28625453       0.55232189       0.56561050 </v>
   <v>       0.79013682       0.04797360       0.56799764 </v>
   <v>       0.05094771       0.20050452       0.65868039 </v>
   <v>       0.04951678       0.71076949       0.66189032 </v>
   <v>       0.54416113       0.19909147       0.65936852 </v>
   <v>       0.53662911       0.70645391       0.66041743 </v>
   <v>       0.21294278       0.45167743       0.65798799 </v>
   <v>       0.20065417       0.95103647       0.65780515 </v>
   <v>       0.71108814       0.45929878       0.66295358 </v>
   <v>       0.69763389       0.95768655       0.65809720 </v>
   <v>       0.45295732       0.29218433       0.65939794 </v>
   <v>       0.44884162       0.79910284       0.65831398 </v>
   <v>       0.95556175       0.28879554       0.66025016 </v>
   <v>       0.95735508       0.80436941       0.66048495 </v>
   <v>       0.29240435       0.04328870       0.65870865 </v>
   <v>       0.29475826       0.55343967       0.65841318 </v>
   <v>       0.79818045       0.04028610       0.65760834 </v>
   <v>       0.79888859       0.55252205       0.65881225 </v>
   <v>       0.04586250       0.20411950       0.75272599 </v>
   <v>       0.04586250       0.70411946       0.75272599 </v>
   <v>       0.54586251       0.20411950       0.75272599 </v>
   <v>       0.54586250       0.70411946       0.75272599 </v>
   <v>       0.20411900       0.45410100       0.75270499 </v>
   <v>       0.20411899       0.95410095       0.75270499 </v>
   <v>       0.70411898       0.45410100       0.75270499 </v>
   <v>       0.70411896       0.95410095       0.75270499 </v>
   <v>       0.45414002       0.29588849       0.75272697 </v>
   <v>       0.45414001       0.79588852       0.75272697 </v>
   <v>       0.95414002       0.29588849       0.75272697 </v>
   <v>       0.95414006       0.79588852       0.75272697 </v>
   <v>       0.29588249       0.04590050       0.75270499 </v>
   <v>       0.29588248       0.54590053       0.75270499 </v>
   <v>       0.79588244       0.04590050       0.75270499 </v>
   <v>       0.79588248       0.54590053       0.75270499 </v>
   <v>       0.75889083       0.52952009       0.55851241 </v>
   <v>       0.49414361       0.01454456       0.55165379 </v>
   <v>       0.47592399       0.51914439       0.55780682 </v>
   <v>       0.99998369       0.99640192       0.55218631 </v>
   <v>       0.02692620       0.48217307       0.55011308 </v>
   <v>       0.25016912       0.25047906       0.55155581 </v>
   <v>       0.24889032       0.75022410       0.55202447 </v>
   <v>       0.75555265       0.22320823       0.55558476 </v>
   <v>       0.73085345       0.77475856       0.54766356 </v>
   <v>       0.00554485       0.99911547       0.65441037 </v>
   <v>       0.00859163       0.50630310       0.65436538 </v>
   <v>       0.50325827       0.00184600       0.65445054 </v>
   <v>       0.50135674       0.49289185       0.65605212 </v>
   <v>       0.24822016       0.24888330       0.65457947 </v>
   <v>       0.24579475       0.75074220       0.65436507 </v>
   <v>       0.74272645       0.25073199       0.65545855 </v>
   <v>       0.75489137       0.75866445       0.65366687 </v>
   <v>       0.14276329       0.10395710       0.60953402 </v>
   <v>       0.14373663       0.60433343       0.60724524 </v>
   <v>       0.64355175       0.10035456       0.60773899 </v>
   <v>       0.62285363       0.62839662       0.61325462 </v>
   <v>       0.35344653       0.39448540       0.60846783 </v>
   <v>       0.35389723       0.89199068       0.60853645 </v>
   <v>       0.88325984       0.36948281       0.61360704 </v>
   <v>       0.85578827       0.89649718       0.60694336 </v>
   <v>       0.10782326       0.35789852       0.60760645 </v>
   <v>       0.10940619       0.85901583       0.60821564 </v>
   <v>       0.58245552       0.33458078       0.60858217 </v>
   <v>       0.60825418       0.86084136       0.60942927 </v>
   <v>       0.38843007       0.13865091       0.60757666 </v>
   <v>       0.38479653       0.63676838       0.61019388 </v>
   <v>       0.89452033       0.13865069       0.60951632 </v>
   <v>       0.91384512       0.66006062       0.61387919 </v>
   <v>       0.00000000       0.00000000       0.75492797 </v>
   <v>       0.00000000       0.50000000       0.75492797 </v>
   <v>       0.50000000       0.00000000       0.75492797 </v>
   <v>       0.49999999       0.50000000       0.75492797 </v>
   <v>       0.25000050       0.25000000       0.75493902 </v>
   <v>       0.25000051       0.74999997       0.75493902 </v>
   <v>       0.75000047       0.25000000       0.75493902 </v>
   <v>       0.75000046       0.74999997       0.75493902 </v>
   <v>       0.13579050       0.11421000       0.70478299 </v>
   <v>       0.13579050       0.61420998       0.70478299 </v>
   <v>       0.63579045       0.11421000       0.70478299 </v>
   <v>       0.63579049       0.61420998       0.70478299 </v>
   <v>       0.36420952       0.38578999       0.70478299 </v>
   <v>       0.36420950       0.88578996       0.70478299 </v>
   <v>       0.86420954       0.38578999       0.70478299 </v>
   <v>       0.86420953       0.88578996       0.70478299 </v>
   <v>       0.11421799       0.36421899       0.70478098 </v>
   <v>       0.11421799       0.86421899       0.70478098 </v>
   <v>       0.61421800       0.36421899       0.70478098 </v>
   <v>       0.61421799       0.86421899       0.70478098 </v>
   <v>       0.38578201       0.13578149       0.70478202 </v>
   <v>       0.38578200       0.63578149       0.70478202 </v>
   <v>       0.88578199       0.13578149       0.70478202 </v>
   <v>       0.88578203       0.63578149       0.70478202 </v>
   <v>       0.13466700       0.11533200       0.80125603 </v>
   <v>       0.13466699       0.61533199       0.80125603 </v>
   <v>       0.63466699       0.11533200       0.80125603 </v>
   <v>       0.63466698       0.61533199       0.80125603 </v>
   <v>       0.36533300       0.38466799       0.80125603 </v>
   <v>       0.36533299       0.88466796       0.80125603 </v>
   <v>       0.86533295       0.38466799       0.80125603 </v>
   <v>       0.86533294       0.88466796       0.80125603 </v>
   <v>       0.11532850       0.36533700       0.80126500 </v>
   <v>       0.11532850       0.86533698       0.80126500 </v>
   <v>       0.61532850       0.36533700       0.80126500 </v>
   <v>       0.61532849       0.86533698       0.80126500 </v>
   <v>       0.38467151       0.13466300       0.80126500 </v>
   <v>       0.38467150       0.63466297       0.80126500 </v>
   <v>       0.88467149       0.13466300       0.80126500 </v>
   <v>       0.88467153       0.63466297       0.80126500 </v>
   <v>       0.00135739       0.00237416       0.60356616 </v>
   <v>       0.00446132       0.50289833       0.60353258 </v>
   <v>       0.50038816       0.00524715       0.60199248 </v>
   <v>       0.49442535       0.49569736       0.60684232 </v>
   <v>       0.25034834       0.24623061       0.60196580 </v>
   <v>       0.24972194       0.74989359       0.60198771 </v>
   <v>       0.74582574       0.24503876       0.60563261 </v>
   <v>       0.74829921       0.75882490       0.60437442 </v>
   <v>       0.00000050       0.00000050       0.70482896 </v>
   <v>       0.00000050       0.50000048       0.70482896 </v>
   <v>       0.50000048       0.00000050       0.70482896 </v>
   <v>       0.50000046       0.50000048       0.70482896 </v>
   <v>       0.24999999       0.24999947       0.70482499 </v>
   <v>       0.25000001       0.74999950       0.70482499 </v>
   <v>       0.74999999       0.24999947       0.70482499 </v>
   <v>       0.74999998       0.74999950       0.70482499 </v>
   <v>       0.00000000       0.00000000       0.80731797 </v>
   <v>       0.00000000       0.50000000       0.80731797 </v>
   <v>       0.50000000       0.00000000       0.80731797 </v>
   <v>       0.49999999       0.50000000       0.80731797 </v>
   <v>       0.24999999       0.25000000       0.80731797 </v>
   <v>       0.25000001       0.74999997       0.80731797 </v>
   <v>       0.74999999       0.25000000       0.80731797 </v>
   <v>       0.74999998       0.74999997       0.80731797 </v>
  </varray>
 </structure>
</modeling>
