 vasp.6.2.1 16May21 (build Nov 15 2021 14:57:28) complex                         
 executed on             LinuxPGI date 2023.07.30  10:12:51
 running on    4 total cores
 distrk:  each k-point on    4 cores,    1 groups
 distr:  one band on NCORE=   1 cores,    4 groups


--------------------------------------------------------------------------------------------------------


 INCAR:
   SYSTEM = PSC
   ISTART = 1
   ICHARG = 1
   PREC = Normal
   ENCUT = 500
   GGA_COMPAT = F
   NELM = 600
   ISYM = 0
   LREAL = Auto
   ISMEAR = 0
   SIGMA = 0.05
   AMIN = 0.01
   BMIX = 0.01
   LVTOT = T
   LWAVE = F
   LDIPOL = T
   IDIPOL = 3
   LVDW = T
   IVDW = 12

 POTCAR:    PAW_PBE H 15Jun2001                   
 POTCAR:    PAW_PBE C 08Apr2002                   
 POTCAR:    PAW_PBE N 08Apr2002                   
 POTCAR:    PAW_PBE I 08Apr2002                   
 POTCAR:    PAW_PBE Pb 08Apr2002                  
 WARNING: For LVTOT=.TRUE., VASP.5.x writes the TOTAL local potential to the
     file LOCPOT. If you want only the Hartree contributions, use LVHAR=.TRUE.
     instead. 

 POTCAR:    PAW_PBE H 15Jun2001                   
   SHA256 =  030f79b5d3ab3cf0e668861823c8fb652ff669f3e15e46930bd03bfd63a607b6 H/POTCAR              
   COPYR  = (c) Copyright 15Jun2001 Georg Kresse                                                    
   COPYR  = This file is part of the software VASP. Any use, copying, and all other rights are regul
   COPYR  = If you do not have a valid VASP license, you may not use, copy or distribute this file. 
   VRHFIN =H: ultrasoft test                                                                        
   LEXCH  = PE                                                                                      
   EATOM  =    12.4884 eV,    0.9179 Ry                                                             
                                                                                                    
   TITEL  = PAW_PBE H 15Jun2001                                                                     
   LULTRA =        F    use ultrasoft PP ?                                                          
   IUNSCR =        0    unscreen: 0-lin 1-nonlin 2-no                                               
   RPACOR =    0.000    partial core radius                                                         
   POMASS =    1.000; ZVAL   =    1.000    mass and valenz                                          
   RCORE  =    1.100    outmost cutoff radius                                                       
   RWIGS  =    0.700; RWIGS  =    0.370    wigner-seitz radius (au A)                               
   ENMAX  =  250.000; ENMIN  =  200.000 eV                                                          
   RCLOC  =    0.701    cutoff for local pot                                                        
   LCOR   =        T    correct aug charges                                                         
   LPAW   =        T    paw PP                                                                      
   EAUG   =  400.000                                                                                
   RMAX   =    1.123    core radius for proj-oper                                                   
   RAUG   =    1.200    factor for augmentation sphere                                              
   RDEP   =    1.112    radius for radial grids                                                     
   RDEPT  =    0.926    core radius for aug-charge                                                  
                                                                                                    
   Atomic configuration                                                                             
    2 entries                                                                                       
     n  l   j            E        occ.                                                              
     1  0  0.50        -6.4927   1.0000                                                             
     2  1  0.50        -3.4015   0.0000                                                             
   Description                                                                                      
     l       E           TYP  RCUT    TYP  RCUT                                                     
     0     -6.4927494     23  1.100                                                                 
     0      6.8029130     23  1.100                                                                 
     1     -4.0817478     23  1.100                                                                 
  local pseudopotential read in
  atomic valenz-charges read in
  non local Contribution for L=            0  read in
    real space projection operators read in
  non local Contribution for L=            0  read in
    real space projection operators read in
  non local Contribution for L=            1  read in
    real space projection operators read in
    PAW grid and wavefunctions read in
 
   number of l-projection  operators is LMAX  =            3
   number of lm-projection operators is LMMAX =            5
 
 POTCAR:    PAW_PBE C 08Apr2002                   
   SHA256 =  253f7b50bb8d59471dbedb8285d89021f4a42ed1a2c5d38a03a736e69125dd95 C/POTCAR              
   COPYR  = (c) Copyright 08Apr2002 Georg Kresse                                                    
   COPYR  = This file is part of the software VASP. Any use, copying, and all other rights are regul
   COPYR  = If you do not have a valid VASP license, you may not use, copy or distribute this file. 
   VRHFIN =C: s2p2                                                                                  
   LEXCH  = PE                                                                                      
   EATOM  =   147.1560 eV,   10.8157 Ry                                                             
                                                                                                    
   TITEL  = PAW_PBE C 08Apr2002                                                                     
   LULTRA =        F    use ultrasoft PP ?                                                          
   IUNSCR =        1    unscreen: 0-lin 1-nonlin 2-no                                               
   RPACOR =    1.200    partial core radius                                                         
   POMASS =   12.011; ZVAL   =    4.000    mass and valenz                                          
   RCORE  =    1.500    outmost cutoff radius                                                       
   RWIGS  =    1.630; RWIGS  =    0.863    wigner-seitz radius (au A)                               
   ENMAX  =  400.000; ENMIN  =  300.000 eV                                                          
   ICORE  =        2    local potential                                                             
   LCOR   =        T    correct aug charges                                                         
   LPAW   =        T    paw PP                                                                      
   EAUG   =  644.873                                                                                
   DEXC   =    0.000                                                                                
   RMAX   =    1.529    core radius for proj-oper                                                   
   RAUG   =    1.300    factor for augmentation sphere                                              
   RDEP   =    1.501    radius for radial grids                                                     
   RDEPT  =    1.300    core radius for aug-charge                                                  
                                                                                                    
   Atomic configuration                                                                             
    4 entries                                                                                       
     n  l   j            E        occ.                                                              
     1  0  0.50      -273.3789   2.0000                                                             
     2  0  0.50       -13.7508   2.0000                                                             
     2  1  0.50        -5.2854   2.0000                                                             
     3  2  1.50        -5.4423   0.0000                                                             
   Description                                                                                      
     l       E           TYP  RCUT    TYP  RCUT                                                     
     0    -13.7508458     23  1.200                                                                 
     0     -8.2022199     23  1.200                                                                 
     1     -5.2854383     23  1.500                                                                 
     1     34.0145650     23  1.500                                                                 
     2     -5.4423304      7  1.500                                                                 
  local pseudopotential read in
  partial core-charges read in
  partial kinetic energy density read in
  atomic valenz-charges read in
  non local Contribution for L=            0  read in
    real space projection operators read in
  non local Contribution for L=            0  read in
    real space projection operators read in
  non local Contribution for L=            1  read in
    real space projection operators read in
  non local Contribution for L=            1  read in
    real space projection operators read in
    PAW grid and wavefunctions read in
 
   number of l-projection  operators is LMAX  =            4
   number of lm-projection operators is LMMAX =            8
 
 POTCAR:    PAW_PBE N 08Apr2002                   
   SHA256 =  e053789ff3a61a86a1b75d8a110fcc91f86041011e7b0817c7c99e4e8a6349d7 N/POTCAR              
   COPYR  = (c) Copyright 08Apr2002 Georg Kresse                                                    
   COPYR  = This file is part of the software VASP. Any use, copying, and all other rights are regul
   COPYR  = If you do not have a valid VASP license, you may not use, copy or distribute this file. 
   VRHFIN =N: s2p3                                                                                  
   LEXCH  = PE                                                                                      
   EATOM  =   264.5486 eV,   19.4438 Ry                                                             
                                                                                                    
   TITEL  = PAW_PBE N 08Apr2002                                                                     
   LULTRA =        F    use ultrasoft PP ?                                                          
   IUNSCR =        1    unscreen: 0-lin 1-nonlin 2-no                                               
   RPACOR =    1.200    partial core radius                                                         
   POMASS =   14.001; ZVAL   =    5.000    mass and valenz                                          
   RCORE  =    1.500    outmost cutoff radius                                                       
   RWIGS  =    1.400; RWIGS  =    0.741    wigner-seitz radius (au A)                               
   ENMAX  =  400.000; ENMIN  =  300.000 eV                                                          
   ICORE  =        2    local potential                                                             
   LCOR   =        T    correct aug charges                                                         
   LPAW   =        T    paw PP                                                                      
   EAUG   =  627.112                                                                                
   DEXC   =    0.000                                                                                
   RMAX   =    1.529    core radius for proj-oper                                                   
   RAUG   =    1.300    factor for augmentation sphere                                              
   RDEP   =    1.514    radius for radial grids                                                     
   RDEPT  =    1.338    core radius for aug-charge                                                  
                                                                                                    
   Atomic configuration                                                                             
    4 entries                                                                                       
     n  l   j            E        occ.                                                              
     1  0  0.50      -384.7179   2.0000                                                             
     2  0  0.50       -18.5828   2.0000                                                             
     2  1  0.50        -7.0898   3.0000                                                             
     3  2  1.50        -6.8029   0.0000                                                             
   Description                                                                                      
     l       E           TYP  RCUT    TYP  RCUT                                                     
     0    -18.5828119     23  1.200                                                                 
     0    -13.5018863     23  1.200                                                                 
     1     -7.0897853     23  1.500                                                                 
     1      9.5240782     23  1.500                                                                 
     2     -6.8029130      7  1.500                                                                 
  local pseudopotential read in
  partial core-charges read in
  partial kinetic energy density read in
  atomic valenz-charges read in
  non local Contribution for L=            0  read in
    real space projection operators read in
  non local Contribution for L=            0  read in
    real space projection operators read in
  non local Contribution for L=            1  read in
    real space projection operators read in
  non local Contribution for L=            1  read in
    real space projection operators read in
    PAW grid and wavefunctions read in
 
   number of l-projection  operators is LMAX  =            4
   number of lm-projection operators is LMMAX =            8
 
 POTCAR:    PAW_PBE I 08Apr2002                   
   SHA256 =  e40f3f59b681c1fc3e3091736183c4589116986673d2b852a5012aec72758799 I/POTCAR              
   COPYR  = (c) Copyright 08Apr2002 Georg Kresse                                                    
   COPYR  = This file is part of the software VASP. Any use, copying, and all other rights are regul
   COPYR  = If you do not have a valid VASP license, you may not use, copy or distribute this file. 
   VRHFIN =I : s2p5                                                                                 
   LEXCH  = PE                                                                                      
   EATOM  =   315.8678 eV,   23.2156 Ry                                                             
                                                                                                    
   TITEL  = PAW_PBE I 08Apr2002                                                                     
   LULTRA =        F    use ultrasoft PP ?                                                          
   IUNSCR =        1    unscreen: 0-lin 1-nonlin 2-no                                               
   RPACOR =    2.200    partial core radius                                                         
   POMASS =  126.904; ZVAL   =    7.000    mass and valenz                                          
   RCORE  =    2.300    outmost cutoff radius                                                       
   RWIGS  =    2.810; RWIGS  =    1.487    wigner-seitz radius (au A)                               
   ENMAX  =  175.647; ENMIN  =  131.735 eV                                                          
   ICORE  =        3    local potential                                                             
   LCOR   =        T    correct aug charges                                                         
   LPAW   =        T    paw PP                                                                      
   EAUG   =  370.139                                                                                
   DEXC   =    0.000                                                                                
   RMAX   =    2.359    core radius for proj-oper                                                   
   RAUG   =    1.300    factor for augmentation sphere                                              
   RDEP   =    2.392    radius for radial grids                                                     
   RDEPT  =    2.170    core radius for aug-charge                                                  
                                                                                                    
   Atomic configuration                                                                             
   13 entries                                                                                       
     n  l   j            E        occ.                                                              
     1  0  0.50    -32976.3739   2.0000                                                             
     2  0  0.50     -5094.5933   2.0000                                                             
     2  1  1.50     -4572.0131   6.0000                                                             
     3  0  0.50     -1028.2813   2.0000                                                             
     3  1  1.50      -859.0250   6.0000                                                             
     3  2  2.50      -605.7620  10.0000                                                             
     4  0  0.50      -180.5540   2.0000                                                             
     4  1  1.50      -127.5306   6.0000                                                             
     4  2  2.50       -50.2720  10.0000                                                             
     5  0  0.50       -17.4058   2.0000                                                             
     5  1  0.50        -7.0851   5.0000                                                             
     5  2  1.50        -7.0750   0.0000                                                             
     4  3  2.50        -7.0750   0.0000                                                             
   Description                                                                                      
     l       E           TYP  RCUT    TYP  RCUT                                                     
     0    -17.4058016     23  2.300                                                                 
     0    -18.7663842     23  2.300                                                                 
     1     -7.0850686     23  2.300                                                                 
     1     -4.2150896     23  2.300                                                                 
     2     -7.0750295     23  2.300                                                                 
     3     -1.3605826     23  2.300                                                                 
  local pseudopotential read in
  partial core-charges read in
  partial kinetic energy density read in
  atomic valenz-charges read in
  non local Contribution for L=            0  read in
    real space projection operators read in
  non local Contribution for L=            0  read in
    real space projection operators read in
  non local Contribution for L=            1  read in
    real space projection operators read in
  non local Contribution for L=            1  read in
    real space projection operators read in
  non local Contribution for L=            2  read in
    real space projection operators read in
    PAW grid and wavefunctions read in
 
   number of l-projection  operators is LMAX  =            5
   number of lm-projection operators is LMMAX =           13
 
 POTCAR:    PAW_PBE Pb 08Apr2002                  
   SHA256 =  797118a27cf1bcd06b9881c67a26cdde129e3cd1a551dd4a281f9681ce847303 Pb/POTCAR             
   COPYR  = (c) Copyright 08Apr2002 Georg Kresse                                                    
   COPYR  = This file is part of the software VASP. Any use, copying, and all other rights are regul
   COPYR  = If you do not have a valid VASP license, you may not use, copy or distribute this file. 
   VRHFIN =Pb:                                                                                      
   LEXCH  = PE                                                                                      
   EATOM  =    96.9868 eV,    7.1283 Ry                                                             
                                                                                                    
   TITEL  = PAW_PBE Pb 08Apr2002                                                                    
   LULTRA =        F    use ultrasoft PP ?                                                          
   IUNSCR =        1    unscreen: 0-lin 1-nonlin 2-no                                               
   RPACOR =    2.200    partial core radius                                                         
   POMASS =  207.200; ZVAL   =    4.000    mass and valenz                                          
   RCORE  =    3.100    outmost cutoff radius                                                       
   RWIGS  =    3.260; RWIGS  =    1.725    wigner-seitz radius (au A)                               
   ENMAX  =   97.973; ENMIN  =   73.480 eV                                                          
   ICORE  =        3    local potential                                                             
   LCOR   =        T    correct aug charges                                                         
   LPAW   =        T    paw PP                                                                      
   EAUG   =  234.873                                                                                
   DEXC   =    0.000                                                                                
   RMAX   =    3.158    core radius for proj-oper                                                   
   RAUG   =    1.300    factor for augmentation sphere                                              
   RDEP   =    3.202    radius for radial grids                                                     
   RDEPT  =    2.659    core radius for aug-charge                                                  
                                                                                                    
   Atomic configuration                                                                             
   17 entries                                                                                       
     n  l   j            E        occ.                                                              
     1  0  0.50    -88091.8466   2.0000                                                             
     2  0  0.50    -15753.4197   2.0000                                                             
     2  1  1.50    -13508.1797   6.0000                                                             
     3  0  0.50     -3781.7194   2.0000                                                             
     3  1  1.50     -3138.2529   6.0000                                                             
     3  2  2.50     -2483.2977  10.0000                                                             
     4  0  0.50      -856.2895   2.0000                                                             
     4  1  1.50      -645.4943   6.0000                                                             
     4  2  2.50      -401.8768  10.0000                                                             
     4  3  3.50      -132.9059  14.0000                                                             
     5  0  0.50      -144.0950   2.0000                                                             
     5  1  1.50       -85.7879   6.0000                                                             
     5  2  2.50       -21.1769  10.0000                                                             
     6  0  0.50       -12.0372   2.0000                                                             
     6  1  1.50        -3.4971   2.0000                                                             
     6  2  2.50        -1.3606   0.0000                                                             
     5  3  2.50        -2.7212   0.0000                                                             
   Description                                                                                      
     l       E           TYP  RCUT    TYP  RCUT                                                     
     0    -12.0371566     23  3.100                                                                 
     0    -13.3977392     23  3.100                                                                 
     1     -3.4971341     23  3.100                                                                 
     1     -5.4423304     23  3.100                                                                 
     2     -1.3605826     23  3.100                                                                 
     3     -1.3605826     23  3.100                                                                 
  local pseudopotential read in
  partial core-charges read in
  partial kinetic energy density read in
  atomic valenz-charges read in
  non local Contribution for L=            0  read in
    real space projection operators read in
  non local Contribution for L=            0  read in
    real space projection operators read in
  non local Contribution for L=            1  read in
    real space projection operators read in
  non local Contribution for L=            1  read in
    real space projection operators read in
  non local Contribution for L=            2  read in
    real space projection operators read in
    PAW grid and wavefunctions read in
 
   number of l-projection  operators is LMAX  =            5
   number of lm-projection operators is LMMAX =           13
 
 Optimization of the real space projectors (new method)

 maximal supplied QI-value         = 34.20
 optimisation between [QCUT,QGAM] = [ 11.29, 22.57] = [ 35.68,142.71] Ry 
 Optimized for a Real-space Cutoff    1.16 Angstroem

   l    n(q)    QCUT    max X(q) W(low)/X(q) W(high)/X(q)  e(spline) 
   0      8    11.287    19.460    0.40E-03    0.73E-03    0.16E-06
   0      8    11.287    12.209    0.38E-03    0.70E-03    0.15E-06
   1      7    11.287     4.655    0.22E-03    0.25E-04    0.22E-06
 Optimization of the real space projectors (new method)

 maximal supplied QI-value         = 25.13
 optimisation between [QCUT,QGAM] = [ 11.31, 22.87] = [ 35.82,146.48] Ry 
 Optimized for a Real-space Cutoff    1.00 Angstroem

   l    n(q)    QCUT    max X(q) W(low)/X(q) W(high)/X(q)  e(spline) 
   0      7    11.310   115.676    0.43E-03    0.13E-02    0.19E-06
   0      7    11.310    87.132    0.43E-03    0.13E-02    0.18E-06
   1      6    11.310     4.429    0.42E-03    0.74E-03    0.11E-06
   1      6    11.310     2.733    0.34E-03    0.55E-03    0.92E-07
 Optimization of the real space projectors (new method)

 maximal supplied QI-value         = 25.13
 optimisation between [QCUT,QGAM] = [ 11.31, 22.87] = [ 35.82,146.48] Ry 
 Optimized for a Real-space Cutoff    1.27 Angstroem

   l    n(q)    QCUT    max X(q) W(low)/X(q) W(high)/X(q)  e(spline) 
   0      9    11.310    79.467    0.75E-04    0.16E-03    0.36E-06
   0      9    11.310    66.151    0.74E-04    0.16E-03    0.36E-06
   1      8    11.310    17.416    0.35E-03    0.12E-03    0.95E-06
   1      8    11.310    12.382    0.37E-03    0.13E-03    0.98E-06
 Optimization of the real space projectors (new method)

 maximal supplied QI-value         = 16.25
 optimisation between [QCUT,QGAM] = [ 11.38, 22.75] = [ 36.24,144.96] Ry 
 Optimized for a Real-space Cutoff    1.31 Angstroem

   l    n(q)    QCUT    max X(q) W(low)/X(q) W(high)/X(q)  e(spline) 
   0      9    11.376   194.483    0.24E-03    0.23E-03    0.67E-07
   0      9    11.376   190.334    0.23E-03    0.22E-03    0.65E-07
   1      8    11.376   116.687    0.25E-03    0.63E-04    0.16E-06
   1      8    11.376    88.696    0.25E-03    0.61E-04    0.16E-06
   2      8    11.376     4.877    0.17E-03    0.14E-03    0.29E-07
 Optimization of the real space projectors (new method)

 maximal supplied QI-value         = 12.09
 optimisation between [QCUT,QGAM] = [ 11.37, 22.86] = [ 36.19,146.31] Ry 
 Optimized for a Real-space Cutoff    1.66 Angstroem

   l    n(q)    QCUT    max X(q) W(low)/X(q) W(high)/X(q)  e(spline) 
   0     11    11.369   135.111    0.12E-03    0.69E-04    0.19E-05
   0     11    11.369   146.850    0.11E-03    0.65E-04    0.18E-05
   1     11    11.369   148.016    0.17E-03    0.32E-03    0.89E-06
   1     11    11.369   122.989    0.17E-03    0.32E-03    0.91E-06
   2     10    11.369     8.916    0.12E-03    0.45E-04    0.33E-06
  PAW_PBE H 15Jun2001                   :
 energy of atom  1       EATOM=  -12.4884
 kinetic energy error for atom=    0.0020 (will be added to EATOM!!)
  PAW_PBE C 08Apr2002                   :
 energy of atom  2       EATOM= -147.1560
 kinetic energy error for atom=    0.0076 (will be added to EATOM!!)
  PAW_PBE N 08Apr2002                   :
 energy of atom  3       EATOM= -264.5486
 kinetic energy error for atom=    0.0138 (will be added to EATOM!!)
  PAW_PBE I 08Apr2002                   :
 energy of atom  4       EATOM= -315.8678
 kinetic energy error for atom=    0.0009 (will be added to EATOM!!)
  PAW_PBE Pb 08Apr2002                  :
 energy of atom  5       EATOM=  -96.9868
 kinetic energy error for atom=    0.0000 (will be added to EATOM!!)
 
 
 POSCAR:  H  C  N  I Pb
  positions in cartesian coordinates
  No initial velocities read in
 exchange correlation table for  LEXCH =        8
   RHO(1)=    0.500       N(1)  =     2000
   RHO(2)=  100.500       N(2)  =     4000
 


--------------------------------------------------------------------------------------------------------


 ion  position               nearest neighbor table
   1  0.431  0.268  0.583- 187 1.01
   2  0.423  0.761  0.580- 188 1.04
   3  0.938  0.294  0.583- 189 1.03
   4  0.950  0.806  0.581- 190 1.02
   5  0.306  0.052  0.582- 194 1.02
   6  0.304  0.570  0.577- 195 1.03
   7  0.778  0.068  0.582- 196 1.02
   8  0.096  0.184  0.562- 183 0.99
   9  0.087  0.679  0.561- 184 1.01
  10  0.597  0.188  0.562- 185 1.02
  11  0.612  0.732  0.561- 186 1.04
  12  0.365  0.031  0.560- 194 1.03
  13  0.291  0.603  0.551- 195 1.01
  14  0.839  0.072  0.561- 196 1.01
  15  0.070  0.229  0.585- 183 1.03
  16  0.026  0.691  0.582- 184 1.02
  17  0.540  0.184  0.584- 185 1.02
  18  0.555  0.706  0.582- 186 1.02
  19  0.249  0.444  0.584- 191 1.03
  20  0.180  0.999  0.581- 192 1.03
  21  0.686  0.967  0.582- 193 1.02
  22  0.416  0.319  0.560- 187 1.01
  23  0.402  0.815  0.558- 188 1.02
  24  0.896  0.277  0.559- 189 1.01
  25  0.961  0.864  0.559- 190 1.02
  26  0.203  0.401  0.563- 191 1.02
  27  0.157  0.947  0.558- 192 1.01
  28  0.690  0.904  0.560- 193 1.04
  29  0.521  0.271  0.544- 146 1.09
  30  0.519  0.800  0.544- 147 1.09
  31  0.989  0.209  0.544- 144 1.10
  32  0.051  0.789  0.544- 145 1.08
  33  0.226  0.500  0.540- 148 1.09
  34  0.274  0.963  0.543- 149 1.10
  35  0.787  0.967  0.544- 150 1.10
  36  0.438  0.290  0.675- 205 1.02
  37  0.436  0.820  0.672- 206 1.04
  38  0.960  0.284  0.680- 207 1.02
  39  0.940  0.799  0.676- 208 1.01
  40  0.301  0.050  0.676- 209 1.04
  41  0.299  0.555  0.676- 210 1.04
  42  0.805  0.053  0.676- 211 1.04
  43  0.809  0.554  0.675- 212 1.02
  44  0.085  0.171  0.646- 197 1.02
  45  0.090  0.687  0.653- 198 1.01
  46  0.579  0.174  0.648- 199 1.02
  47  0.563  0.668  0.658- 200 1.00
  48  0.181  0.414  0.651- 201 0.99
  49  0.171  0.924  0.649- 202 0.98
  50  0.666  0.420  0.656- 203 1.04
  51  0.666  0.931  0.651- 204 0.99
  52  0.067  0.186  0.673- 197 1.02
  53  0.044  0.695  0.677- 198 1.03
  54  0.539  0.185  0.673- 199 1.02
  55  0.528  0.712  0.681- 200 1.05
  56  0.206  0.444  0.676- 201 1.04
  57  0.195  0.952  0.675- 202 1.04
  58  0.706  0.449  0.680- 203 1.02
  59  0.693  0.961  0.676- 204 1.04
  60  0.422  0.333  0.651- 205 1.02
  61  0.425  0.836  0.644- 206 1.02
  62  0.922  0.320  0.656- 207 1.01
  63  0.931  0.843  0.652- 208 1.02
  64  0.334  0.075  0.651- 209 0.98
  65  0.324  0.586  0.651- 210 1.01
  66  0.838  0.073  0.650- 211 1.01
  67  0.817  0.584  0.649- 212 1.03
  68  0.994  0.256  0.634- 151 1.09
  69  0.026  0.780  0.636- 152 1.07
  70  0.509  0.268  0.632- 153 1.09
  71  0.505  0.742  0.634- 154 1.08
  72  0.258  0.998  0.632- 156 1.08
  73  0.252  0.502  0.633- 155 1.09
  74  0.756  0.998  0.633- 158 1.09
  75  0.731  0.504  0.635- 157 1.09
  76  0.449  0.301  0.769- 221 1.02
  77  0.449  0.801  0.769- 222 1.02
  78  0.949  0.301  0.769- 223 1.02
  79  0.949  0.801  0.769- 224 1.02
  80  0.301  0.051  0.769- 225 1.02
  81  0.301  0.551  0.769- 226 1.02
  82  0.801  0.051  0.769- 227 1.02
  83  0.801  0.551  0.769- 228 1.02
  84  0.079  0.171  0.743- 213 1.02
  85  0.079  0.671  0.743- 214 1.02
  86  0.579  0.171  0.743- 215 1.02
  87  0.579  0.671  0.743- 216 1.02
  88  0.171  0.421  0.743- 217 1.02
  89  0.171  0.921  0.743- 218 1.02
  90  0.671  0.421  0.743- 219 1.02
  91  0.671  0.921  0.743- 220 1.02
  92  0.051  0.199  0.769- 213 1.02
  93  0.051  0.699  0.769- 214 1.02
  94  0.551  0.199  0.769- 215 1.02
  95  0.551  0.699  0.769- 216 1.02
  96  0.199  0.449  0.769- 217 1.02
  97  0.199  0.949  0.769- 218 1.02
  98  0.699  0.449  0.769- 219 1.02
  99  0.699  0.949  0.769- 220 1.02
 100  0.421  0.329  0.743- 221 1.02
 101  0.421  0.829  0.743- 222 1.02
 102  0.921  0.329  0.743- 223 1.02
 103  0.921  0.829  0.743- 224 1.02
 104  0.329  0.079  0.743- 225 1.02
 105  0.329  0.579  0.743- 226 1.02
 106  0.829  0.079  0.743- 227 1.02
 107  0.829  0.579  0.743- 228 1.02
 108  0.000  0.250  0.726- 161 1.09
 109  0.000  0.750  0.726- 162 1.09
 110  0.500  0.250  0.726- 159 1.09
 111  0.500  0.750  0.726- 160 1.09
 112  0.250  0.000  0.726- 163 1.09
 113  0.250  0.500  0.726- 164 1.09
 114  0.750  0.000  0.726- 165 1.09
 115  0.750  0.500  0.726- 166 1.09
 116  0.779  0.510  0.521- 173 1.09
 117  0.868  0.512  0.534- 173 1.09
 118  0.762  0.630  0.540- 174 1.08
 119  0.768  0.631  0.568- 174 1.10
 120  0.679  0.461  0.560- 175 1.09
 121  0.676  0.555  0.567- 175 1.09
 122  0.807  0.431  0.573- 176 1.08
 123  0.873  0.501  0.574- 176 1.10
 124  0.859  0.389  0.544- 177 1.08
 125  0.762  0.382  0.540- 177 1.10
 126  0.773  0.388  0.502- 178 1.09
 127  0.863  0.424  0.503- 178 1.11
 128  0.892  0.625  0.534- 179 1.10
 129  0.912  0.612  0.561- 179 1.08
 130  0.871  0.696  0.552- 179 1.09
 131  0.593  0.529  0.536- 180 1.11
 132  0.665  0.483  0.522- 180 1.10
 133  0.670  0.581  0.527- 180 1.09
 134  0.732  0.480  0.600- 181 1.11
 135  0.753  0.571  0.593- 181 1.07
 136  0.817  0.521  0.607- 181 1.07
 137  0.836  0.270  0.519- 182 1.08
 138  0.843  0.285  0.492- 182 1.09
 139  0.937  0.181  0.504- 168 1.10
 140  0.975  0.417  0.514- 169 1.09
 141  0.072  0.161  0.504- 170 1.08
 142  0.105  0.395  0.516- 171 1.09
 143  0.160  0.267  0.512- 172 1.11
 144  0.995  0.229  0.561-  31 1.10 183 1.30 189 1.32
 145  0.026  0.772  0.559-  32 1.08 184 1.32 190 1.32
 146  0.505  0.253  0.560-  29 1.09 187 1.29 185 1.31
 147  0.507  0.772  0.559-  30 1.09 188 1.30 186 1.30
 148  0.246  0.503  0.556-  33 1.09 195 1.31 191 1.32
 149  0.261  0.989  0.558-  34 1.10 194 1.31 192 1.32
 150  0.764  0.989  0.560-  35 1.10 193 1.31 196 1.32
 151  0.004  0.246  0.651-  68 1.09 197 1.32 207 1.33
 152  0.011  0.765  0.652-  69 1.07 208 1.32 198 1.32
 153  0.500  0.254  0.649-  70 1.09 205 1.31 199 1.34
 154  0.495  0.752  0.651-  71 1.08 206 1.30 200 1.31
 155  0.252  0.500  0.650-  73 1.09 210 1.30 201 1.33
 156  0.252  1.000  0.649-  72 1.08 202 1.33 209 1.34
 157  0.741  0.502  0.652-  75 1.09 212 1.30 203 1.30
 158  0.752  0.002  0.650-  74 1.09 211 1.30 204 1.34
 159  0.500  0.250  0.743- 110 1.09 221 1.31 215 1.31
 160  0.500  0.750  0.743- 111 1.09 222 1.31 216 1.31
 161  1.000  0.250  0.743- 108 1.09 223 1.31 213 1.31
 162  1.000  0.750  0.743- 109 1.09 224 1.31 214 1.31
 163  0.250  0.000  0.743- 112 1.09 225 1.31 218 1.31
 164  0.250  0.500  0.743- 113 1.09 226 1.31 217 1.31
 165  0.750  0.000  0.743- 114 1.09 227 1.31 220 1.31
 166  0.750  0.500  0.743- 115 1.09 228 1.31 219 1.31
 167  0.945  0.301  0.508- 169 1.38 168 1.43 182 1.53
 168  0.975  0.229  0.506- 139 1.10 170 1.39 167 1.43
 169  0.993  0.360  0.511- 140 1.09 167 1.38 171 1.42
 170  0.051  0.217  0.507- 141 1.08 168 1.39 172 1.40
 171  0.070  0.347  0.512- 142 1.09 172 1.40 169 1.42
 172  0.099  0.276  0.510- 143 1.11 170 1.40 171 1.40
 173  0.812  0.490  0.535- 117 1.09 116 1.09 177 1.51 229 1.52
 174  0.794  0.608  0.554- 118 1.08 119 1.10 179 1.50 229 1.53
 175  0.694  0.516  0.555- 120 1.09 121 1.09 180 1.52 229 1.55
 176  0.813  0.490  0.574- 122 1.08 123 1.10 181 1.50 229 1.51
 177  0.814  0.407  0.534- 124 1.08 125 1.10 173 1.51 178 1.52
 178  0.825  0.383  0.511- 126 1.09 127 1.11 177 1.52 182 1.53
 179  0.872  0.636  0.550- 129 1.08 130 1.09 128 1.10 174 1.50
 180  0.654  0.528  0.533- 133 1.09 132 1.10 131 1.11 175 1.52
 181  0.777  0.517  0.594- 136 1.07 135 1.07 134 1.11 176 1.50
 182  0.860  0.306  0.508- 137 1.08 138 1.09 178 1.53 167 1.53
 183  0.057  0.213  0.570-   8 0.99  15 1.03 144 1.30
 184  0.047  0.710  0.568-   9 1.01  16 1.02 145 1.32
 185  0.548  0.203  0.569-  17 1.02  10 1.02 146 1.31
 186  0.558  0.732  0.567-  18 1.02  11 1.04 147 1.30
 187  0.447  0.281  0.569-   1 1.01  22 1.01 146 1.29
 188  0.441  0.783  0.566-  23 1.02   2 1.04 147 1.30
 189  0.940  0.269  0.568-  24 1.01   3 1.03 144 1.32
 190  0.974  0.816  0.567-  25 1.02   4 1.02 145 1.32
 191  0.231  0.447  0.569-  26 1.02  19 1.03 148 1.32
 192  0.195  0.977  0.566-  27 1.01  20 1.03 149 1.32
 193  0.708  0.952  0.568-  21 1.02  28 1.04 150 1.31
 194  0.314  0.027  0.567-   5 1.02  12 1.03 149 1.31
 195  0.282  0.563  0.562-  13 1.01   6 1.03 148 1.31
 196  0.797  0.046  0.568-  14 1.01   7 1.02 150 1.32
 197  0.054  0.198  0.657-  44 1.02  52 1.02 151 1.32
 198  0.050  0.713  0.662-  45 1.01  53 1.03 152 1.32
 199  0.542  0.201  0.658-  54 1.02  46 1.02 153 1.34
 200  0.530  0.708  0.664-  47 1.00  55 1.05 154 1.31
 201  0.210  0.449  0.660-  48 0.99  56 1.04 155 1.33
 202  0.202  0.955  0.658-  49 0.98  57 1.04 156 1.33
 203  0.703  0.455  0.663-  58 1.02  50 1.04 157 1.30
 204  0.700  0.962  0.659-  51 0.99  59 1.04 158 1.34
 205  0.451  0.294  0.659-  60 1.02  36 1.02 153 1.31
 206  0.449  0.805  0.656-  61 1.02  37 1.04 154 1.30
 207  0.959  0.286  0.663-  62 1.01  38 1.02 151 1.33
 208  0.958  0.804  0.661-  39 1.01  63 1.02 152 1.32
 209  0.300  0.045  0.659-  64 0.98  40 1.04 156 1.34
 210  0.294  0.549  0.660-  65 1.01  41 1.04 155 1.30
 211  0.801  0.045  0.659-  66 1.01  42 1.04 158 1.30
 212  0.791  0.549  0.659-  43 1.02  67 1.03 157 1.30
 213  0.046  0.204  0.753-  92 1.02  84 1.02 161 1.31
 214  0.046  0.704  0.753-  93 1.02  85 1.02 162 1.31
 215  0.546  0.204  0.753-  94 1.02  86 1.02 159 1.31
 216  0.546  0.704  0.753-  95 1.02  87 1.02 160 1.31
 217  0.204  0.454  0.753-  96 1.02  88 1.02 164 1.31
 218  0.204  0.954  0.753-  97 1.02  89 1.02 163 1.31
 219  0.704  0.454  0.753-  98 1.02  90 1.02 166 1.31
 220  0.704  0.954  0.753-  99 1.02  91 1.02 165 1.31
 221  0.454  0.296  0.753-  76 1.02 100 1.02 159 1.31
 222  0.454  0.796  0.753-  77 1.02 101 1.02 160 1.31
 223  0.954  0.296  0.753-  78 1.02 102 1.02 161 1.31
 224  0.954  0.796  0.753-  79 1.02 103 1.02 162 1.31
 225  0.296  0.046  0.753-  80 1.02 104 1.02 163 1.31
 226  0.296  0.546  0.753-  81 1.02 105 1.02 164 1.31
 227  0.796  0.046  0.753-  82 1.02 106 1.02 165 1.31
 228  0.796  0.546  0.753-  83 1.02 107 1.02 166 1.31
 229  0.780  0.525  0.555- 176 1.51 173 1.52 174 1.53 175 1.55
 230  0.499  0.001  0.552- 304 3.15
 231  0.465  0.479  0.556- 305 3.10
 232  0.989  0.009  0.551- 302 3.21
 233  0.030  0.492  0.559- 303 3.09
 234  0.253  0.246  0.555- 306 3.10
 235  0.245  0.761  0.552- 307 3.19
 236  0.739  0.228  0.555- 308 3.16
 237  0.719  0.782  0.546- 309 3.76
 238  0.005  0.999  0.654- 310 3.16 302 3.24
 239  0.000  0.505  0.657- 311 3.00 303 3.07
 240  0.500  0.001  0.655- 312 3.14 304 3.25
 241  0.498  0.498  0.655- 313 3.12 305 3.18
 242  0.251  0.246  0.655- 314 3.09 306 3.20
 243  0.252  0.749  0.654- 315 3.15 307 3.23
 244  0.743  0.247  0.655- 308 3.11 316 3.11
 245  0.753  0.759  0.653- 309 3.04 317 3.22
 246  0.148  0.102  0.608- 302 3.25 306 3.27
 247  0.151  0.606  0.608- 303 3.14 307 3.24
 248  0.641  0.106  0.609- 304 3.20 308 3.26
 249  0.613  0.638  0.615- 309 3.32 305 3.35
 250  0.360  0.389  0.612- 305 3.21 306 3.21
 251  0.361  0.893  0.608- 304 3.20 307 3.22
 252  0.886  0.366  0.615- 308 3.31 303 3.38
 253  0.858  0.895  0.607- 309 3.19 302 3.23
 254  0.114  0.356  0.610- 306 3.22 303 3.29
 255  0.110  0.864  0.607- 307 3.19 302 3.24
 256  0.616  0.367  0.607- 305 3.20 308 3.21
 257  0.612  0.865  0.610- 304 3.17 309 3.18
 258  0.396  0.142  0.610- 306 3.22 304 3.25
 259  0.386  0.645  0.606- 307 3.21 305 3.33
 260  0.889  0.135  0.611- 302 3.14 308 3.28
 261  0.914  0.664  0.614- 303 3.38 309 3.45
 262  0.000  0.000  0.755- 310 3.13 318 3.27
 263  0.000  0.500  0.755- 311 3.13 319 3.27
 264  0.500  0.000  0.755- 312 3.13 320 3.27
 265  0.500  0.500  0.755- 313 3.13 321 3.27
 266  0.250  0.250  0.755- 314 3.13 322 3.27
 267  0.250  0.750  0.755- 315 3.13 323 3.27
 268  0.750  0.250  0.755- 316 3.13 324 3.27
 269  0.750  0.750  0.755- 317 3.13 325 3.27
 270  0.136  0.114  0.705- 310 3.20 314 3.20
 271  0.136  0.614  0.705- 311 3.20 315 3.20
 272  0.636  0.114  0.705- 312 3.20 316 3.20
 273  0.636  0.614  0.705- 313 3.20 317 3.20
 274  0.364  0.386  0.705- 313 3.20 314 3.20
 275  0.364  0.886  0.705- 312 3.20 315 3.20
 276  0.864  0.386  0.705- 311 3.20 316 3.20
 277  0.864  0.886  0.705- 310 3.20 317 3.20
 278  0.114  0.364  0.705- 314 3.21 311 3.21
 279  0.114  0.864  0.705- 315 3.21 310 3.21
 280  0.614  0.364  0.705- 316 3.21 313 3.21
 281  0.614  0.864  0.705- 317 3.21 312 3.21
 282  0.386  0.136  0.705- 314 3.21 312 3.21
 283  0.386  0.636  0.705- 315 3.21 313 3.21
 284  0.886  0.136  0.705- 316 3.21 310 3.21
 285  0.886  0.636  0.705- 317 3.21 311 3.21
 286  0.135  0.115  0.801- 318 3.22 322 3.22
 287  0.135  0.615  0.801- 319 3.22 323 3.22
 288  0.635  0.115  0.801- 320 3.22 324 3.22
 289  0.635  0.615  0.801- 321 3.22 325 3.22
 290  0.365  0.385  0.801- 321 3.22 322 3.22
 291  0.365  0.885  0.801- 320 3.22 323 3.22
 292  0.865  0.385  0.801- 319 3.22 324 3.22
 293  0.865  0.885  0.801- 318 3.22 325 3.22
 294  0.115  0.365  0.801- 319 3.23 322 3.23
 295  0.115  0.865  0.801- 318 3.23 323 3.23
 296  0.615  0.365  0.801- 321 3.23 324 3.23
 297  0.615  0.865  0.801- 320 3.23 325 3.23
 298  0.385  0.135  0.801- 320 3.23 322 3.23
 299  0.385  0.635  0.801- 321 3.23 323 3.23
 300  0.885  0.135  0.801- 318 3.23 324 3.23
 301  0.885  0.635  0.801- 319 3.23 325 3.23
 302  0.999  0.004  0.602- 260 3.14 232 3.21 253 3.23 238 3.24 255 3.24 246 3.25
 303  0.010  0.505  0.608- 239 3.07 233 3.09 247 3.14 254 3.29 252 3.38 261 3.38
 304  0.502  0.999  0.603- 230 3.15 257 3.17 251 3.20 248 3.20 240 3.25 258 3.25
 305  0.497  0.498  0.604- 231 3.10 241 3.18 256 3.20 250 3.21 259 3.33 249 3.35
 306  0.254  0.248  0.604- 234 3.10 242 3.20 250 3.21 258 3.22 254 3.22 246 3.27
 307  0.248  0.756  0.603- 255 3.19 235 3.19 259 3.21 251 3.22 243 3.23 247 3.24
 308  0.749  0.250  0.605- 244 3.11 236 3.16 256 3.21 248 3.26 260 3.28 252 3.31
 309  0.749  0.756  0.605- 245 3.04 257 3.18 253 3.19 249 3.32 261 3.45 237 3.76
 310  0.000  0.000  0.705- 262 3.13 238 3.16 270 3.20 277 3.20 279 3.21 284 3.21
 311  0.000  0.500  0.705- 239 3.00 263 3.13 271 3.20 276 3.20 278 3.21 285 3.21
 312  0.500  0.000  0.705- 264 3.13 240 3.14 272 3.20 275 3.20 281 3.21 282 3.21
 313  0.500  0.500  0.705- 241 3.12 265 3.13 273 3.20 274 3.20 280 3.21 283 3.21
 314  0.250  0.250  0.705- 242 3.09 266 3.13 270 3.20 274 3.20 282 3.21 278 3.21
 315  0.250  0.750  0.705- 267 3.13 243 3.15 271 3.20 275 3.20 283 3.21 279 3.21
 316  0.750  0.250  0.705- 244 3.11 268 3.13 272 3.20 276 3.20 284 3.21 280 3.21
 317  0.750  0.750  0.705- 269 3.13 273 3.20 277 3.20 285 3.21 281 3.21 245 3.22
 318  0.000  0.000  0.807- 286 3.22 293 3.22 300 3.23 295 3.23 262 3.27
 319  0.000  0.500  0.807- 287 3.22 292 3.22 301 3.23 294 3.23 263 3.27
 320  0.500  0.000  0.807- 288 3.22 291 3.22 298 3.23 297 3.23 264 3.27
 321  0.500  0.500  0.807- 289 3.22 290 3.22 299 3.23 296 3.23 265 3.27
 322  0.250  0.250  0.807- 290 3.22 286 3.22 294 3.23 298 3.23 266 3.27
 323  0.250  0.750  0.807- 291 3.22 287 3.22 299 3.23 295 3.23 267 3.27
 324  0.750  0.250  0.807- 292 3.22 288 3.22 296 3.23 300 3.23 268 3.27
 325  0.750  0.750  0.807- 293 3.22 289 3.22 297 3.23 301 3.23 269 3.27
 

IMPORTANT INFORMATION: All symmetrisations will be switched off!
NOSYMM: (Re-)initialisation of all symmetry stuff for point group C_1.


----------------------------------------------------------------------------------------

                                     Primitive cell                                     

  volume of cell :   20385.2105

  direct lattice vectors                    reciprocal lattice vectors
    18.060800552  0.000000000  0.000000000     0.055368531  0.000015077 -0.000000000
    -0.004918649 18.062799454  0.000000000     0.000000000  0.055362404  0.000000000
     0.000000000  0.000000000 62.487499237     0.000000000 -0.000000000  0.016003201

  length of vectors
    18.060800552 18.062800123 62.487499237     0.055368533  0.055362404  0.016003201

  position of ions in fractional coordinates (direct lattice)
     0.431231036  0.267563077  0.583493293
     0.422553745  0.761284004  0.580464794
     0.938089120  0.293975497  0.583135860
     0.949677058  0.805802922  0.581348455
     0.306285807  0.052054938  0.581900262
     0.303902008  0.569514089  0.577012810
     0.778074728  0.067885979  0.582384550
     0.095824672  0.184454424  0.562372247
     0.086936857  0.678768692  0.560555844
     0.597199764  0.187875939  0.561598411
     0.612099975  0.731740416  0.561378945
     0.364974491  0.031398220  0.560092433
     0.291278890  0.603413804  0.551162485
     0.839209928  0.071545890  0.560752599
     0.070160829  0.229241844  0.585380938
     0.025867520  0.691070134  0.581847639
     0.540033906  0.184389945  0.583828382
     0.554812272  0.706240340  0.581834636
     0.248662268  0.444271708  0.584421091
     0.180237017  0.999151394  0.580851956
     0.685741746  0.967007851  0.581992138
     0.416179921  0.318873679  0.560387292
     0.402376198  0.815116595  0.558361679
     0.895706723  0.277494404  0.558868922
     0.960672467  0.863656057  0.559110791
     0.202542991  0.401425184  0.563221111
     0.157020879  0.946788126  0.558146548
     0.689835420  0.904287090  0.560062703
     0.520598279  0.271392916  0.543899253
     0.519216390  0.800247019  0.543572039
     0.989113579  0.208553130  0.543947908
     0.051296964  0.789163198  0.543894796
     0.226259411  0.499522762  0.539796748
     0.273745922  0.963192679  0.542824148
     0.786969376  0.967242273  0.544457714
     0.438272628  0.290347450  0.674828516
     0.435644847  0.819620714  0.671632259
     0.959725704  0.284016847  0.679552423
     0.939602410  0.799469256  0.676346337
     0.300793530  0.050037660  0.675868764
     0.298647805  0.554826982  0.676339805
     0.804617961  0.052563753  0.675595638
     0.808848722  0.554286704  0.674893227
     0.084511140  0.171209566  0.646162382
     0.089571112  0.686519553  0.653182097
     0.578567951  0.173808982  0.648182379
     0.563477408  0.667541208  0.658350672
     0.180782132  0.414451486  0.650808759
     0.171250869  0.923965177  0.648980634
     0.665816140  0.420410077  0.655557450
     0.665842368  0.931361772  0.650652966
     0.066942224  0.186279033  0.672957720
     0.044210697  0.695339515  0.677140624
     0.539296156  0.185242324  0.673244765
     0.528265736  0.711761554  0.680754445
     0.205645884  0.444218118  0.676284679
     0.194775569  0.952204375  0.674693846
     0.706220579  0.448561521  0.679628427
     0.693211195  0.960675063  0.675980847
     0.422319505  0.333452498  0.650586241
     0.424600271  0.836192329  0.644456048
     0.922477289  0.319953947  0.655996136
     0.931334372  0.843485751  0.652292332
     0.334310456  0.075075350  0.650774450
     0.323847451  0.585650440  0.651115338
     0.838268919  0.073496580  0.650243216
     0.816733796  0.584045759  0.649042475
     0.993846397  0.255606667  0.633853524
     0.025655194  0.779952638  0.636014784
     0.508516324  0.267795862  0.631997196
     0.504529120  0.742406502  0.634047716
     0.257523774  0.997896828  0.632092246
     0.251743776  0.501755312  0.633002402
     0.756008725  0.998346853  0.632567073
     0.731131579  0.503928255  0.635079660
     0.448745018  0.301283966  0.768889017
     0.448745007  0.801283913  0.768889017
     0.948744965  0.301283966  0.768889017
     0.948745007  0.801283913  0.768889017
     0.301275995  0.051294496  0.768872961
     0.301276011  0.551294499  0.768872961
     0.801275943  0.051294496  0.768872961
     0.801275984  0.551294499  0.768872961
     0.078771004  0.171180501  0.743441971
     0.078771006  0.671180448  0.743441971
     0.578771004  0.171180501  0.743441971
     0.578770992  0.671180448  0.743441971
     0.171199499  0.421174482  0.743421032
     0.171199501  0.921174508  0.743421032
     0.671199512  0.421174482  0.743421032
     0.671199501  0.921174508  0.743421032
     0.051256000  0.198714991  0.768889017
     0.051256002  0.698714925  0.768889017
     0.551256027  0.198714991  0.768889017
     0.551256016  0.698714925  0.768889017
     0.198723491  0.448703970  0.768872046
     0.198723493  0.948703970  0.768872046
     0.698723518  0.448703970  0.768872046
     0.698723507  0.948703970  0.768872046
     0.421231519  0.328817467  0.743441971
     0.421231508  0.828817440  0.743441971
     0.921231466  0.328817467  0.743441971
     0.921231508  0.828817440  0.743441971
     0.328800503  0.078824997  0.743421032
     0.328800492  0.578824964  0.743421032
     0.828800477  0.078824997  0.743421032
     0.828800519  0.578824964  0.743421032
     0.000003500  0.250001478  0.725821992
     0.000003500  0.750001452  0.725821992
     0.500003506  0.250001478  0.725821992
     0.500003495  0.750001452  0.725821992
     0.250000502  0.000000000  0.725803983
     0.250000517  0.500000000  0.725803983
     0.750000502  0.000000000  0.725803983
     0.750000490  0.500000000  0.725803983
     0.779141107  0.510384094  0.521018883
     0.868094111  0.511516868  0.534132224
     0.761787370  0.630169674  0.540331095
     0.768038757  0.630853563  0.567982195
     0.678918660  0.460953406  0.560253598
     0.675738546  0.554530471  0.566898909
     0.806650172  0.430895410  0.573174945
     0.873180359  0.501042332  0.573566197
     0.859140555  0.388873613  0.543617519
     0.762212033  0.381664720  0.539925680
     0.772655600  0.388365329  0.502070574
     0.862699736  0.424395881  0.503247201
     0.891980690  0.624931983  0.534149195
     0.912259989  0.612104253  0.561124622
     0.871131825  0.696214162  0.551624248
     0.593329810  0.528604898  0.536462585
     0.664740851  0.483432398  0.522041304
     0.669584854  0.581408303  0.526693419
     0.732100572  0.479674363  0.599862839
     0.752621853  0.570710010  0.592809121
     0.817122048  0.521376364  0.607042803
     0.835712139  0.270176193  0.519475545
     0.843471616  0.284894979  0.491933232
     0.937360576  0.181275553  0.503512177
     0.975465482  0.416532481  0.514002892
     0.071696525  0.160840308  0.504456183
     0.105474066  0.394900735  0.516095169
     0.159620717  0.266910787  0.511536396
     0.994939139  0.228556398  0.560519459
     0.025632987  0.772192643  0.558797191
     0.505188954  0.252646986  0.559886398
     0.506719462  0.772066245  0.558615514
     0.246298305  0.502918974  0.556299255
     0.260850028  0.988786070  0.558329019
     0.764156123  0.988538734  0.559554301
     0.003513795  0.246021086  0.650911135
     0.010944362  0.765245363  0.652107724
     0.500011255  0.254219170  0.648856281
     0.495017239  0.752070066  0.650798686
     0.252461663  0.500092343  0.650380450
     0.252331064  0.999607445  0.649337334
     0.741467132  0.502368822  0.652309425
     0.752390860  0.002111800  0.649935720
     0.499988984  0.249994984  0.743277021
     0.499989025  0.749994958  0.743277021
     0.999988984  0.249994984  0.743277021
     0.999989025  0.749994958  0.743277021
     0.250000502  0.000001000  0.743255960
     0.250000517  0.500001003  0.743255960
     0.750000502  0.000001000  0.743255960
     0.750000491  0.500001003  0.743255960
     0.944827419  0.301483146  0.508347220
     0.975169235  0.228778333  0.505501467
     0.993018176  0.359735775  0.511266444
     0.050922195  0.216523405  0.506602028
     0.070332624  0.347415378  0.512326532
     0.099216906  0.275687218  0.510110695
     0.811687345  0.490144886  0.534530497
     0.794100803  0.608401762  0.553511100
     0.694174044  0.515693642  0.554571004
     0.813447898  0.490448368  0.574240343
     0.813585943  0.406557992  0.533647263
     0.825366419  0.382531975  0.510553289
     0.871585792  0.635776843  0.550370884
     0.653839086  0.528421215  0.533493973
     0.777203125  0.517025200  0.594459903
     0.860140962  0.306050992  0.507613614
     0.057056813  0.212672763  0.570129292
     0.047304346  0.709532752  0.567673112
     0.548465456  0.203337140  0.568673861
     0.557987684  0.731705886  0.567251091
     0.446966586  0.281477594  0.568525821
     0.440623851  0.783360572  0.565986556
     0.940325737  0.269025388  0.568259838
     0.973901490  0.815738552  0.566817716
     0.230648225  0.446569675  0.568871838
     0.194616891  0.976525785  0.566369018
     0.708435703  0.951873112  0.567649914
     0.313915815  0.027145223  0.567363785
     0.282156175  0.562776521  0.561879656
     0.797119100  0.046099819  0.568307943
     0.054068473  0.198461681  0.657408406
     0.049912983  0.712598979  0.661592654
     0.541724541  0.201345874  0.657665965
     0.530397750  0.707752941  0.663955248
     0.209831757  0.449079836  0.659708671
     0.202255468  0.955304992  0.658232912
     0.702806266  0.455214929  0.663454232
     0.700015849  0.961523113  0.659425594
     0.450917075  0.294438031  0.658884654
     0.449458150  0.805084820  0.656024462
     0.958903170  0.285920811  0.663282323
     0.957658217  0.804137365  0.661086510
     0.299512452  0.045342321  0.659295991
     0.293574420  0.549324670  0.659873560
     0.801397634  0.044625829  0.659126829
     0.790505019  0.548608311  0.659476874
     0.045862501  0.204119496  0.752725994
     0.045862500  0.704119456  0.752725994
     0.545862507  0.204119496  0.752725994
     0.545862496  0.704119456  0.752725994
     0.204119002  0.454101003  0.752704994
     0.204118991  0.954100951  0.752704994
     0.704118976  0.454101003  0.752704994
     0.704118964  0.954100951  0.752704994
     0.454140018  0.295888490  0.752726971
     0.454140007  0.795888516  0.752726971
     0.954140018  0.295888490  0.752726971
     0.954140060  0.795888516  0.752726971
     0.295882492  0.045900498  0.752704994
     0.295882481  0.545900528  0.752704994
     0.795882439  0.045900498  0.752704994
     0.795882481  0.545900528  0.752704994
     0.779589390  0.524855522  0.554574362
     0.498615619  0.001441039  0.552161892
     0.464695187  0.479130652  0.555650871
     0.989313086  0.008768201  0.551156564
     0.029626070  0.492309698  0.558796703
     0.253171808  0.246449803  0.554643284
     0.244718187  0.760993036  0.551702571
     0.738665836  0.227572486  0.555255894
     0.719035445  0.781951084  0.545556323
     0.005429241  0.998988640  0.654210379
     0.000312956  0.504949151  0.656798726
     0.499627622  0.000554558  0.654601937
     0.497541890  0.497717397  0.654903511
     0.251033276  0.246203977  0.655345677
     0.252472465  0.749254787  0.654389370
     0.743139201  0.246793094  0.655041295
     0.753298960  0.759389623  0.653304985
     0.148248543  0.101885918  0.608241529
     0.150686296  0.606284468  0.608359778
     0.641132792  0.106065437  0.608889547
     0.613369563  0.637821064  0.615040191
     0.360277765  0.388510576  0.611852603
     0.360781308  0.892847062  0.608020843
     0.886324571  0.366227780  0.615267592
     0.858010964  0.894862034  0.606833471
     0.113804845  0.355892657  0.610071240
     0.109559692  0.863815717  0.606943601
     0.616231732  0.366785720  0.607217520
     0.612482568  0.865249650  0.609973565
     0.395817472  0.142136920  0.609858063
     0.386496705  0.644828586  0.606203401
     0.888533703  0.134881420  0.611368558
     0.913549617  0.664284698  0.614272032
     0.000000000  0.000000000  0.754927972
     0.000000000  0.500000000  0.754927972
     0.500000000  0.000000000  0.754927972
     0.499999989  0.500000000  0.754927972
     0.250000496  0.250000000  0.754939022
     0.250000511  0.749999974  0.754939022
     0.750000470  0.250000000  0.754939022
     0.750000458  0.749999974  0.754939022
     0.135790500  0.114209997  0.704782994
     0.135790502  0.614209984  0.704782994
     0.635790447  0.114209997  0.704782994
     0.635790488  0.614209984  0.704782994
     0.364209516  0.385789989  0.704782994
     0.364209505  0.885789963  0.704782994
     0.864209542  0.385789989  0.704782994
     0.864209531  0.885789963  0.704782994
     0.114217990  0.364218986  0.704780979
     0.114217992  0.864218986  0.704780979
     0.614218004  0.364218986  0.704780979
     0.614217992  0.864218986  0.704780979
     0.385782012  0.135781489  0.704782017
     0.385782001  0.635781489  0.704782017
     0.885781985  0.135781489  0.704782017
     0.885782027  0.635781489  0.704782017
     0.134667000  0.115332001  0.801256025
     0.134666989  0.615331988  0.801256025
     0.634666987  0.115332001  0.801256025
     0.634666976  0.615331988  0.801256025
     0.365333002  0.384667985  0.801256025
     0.365332990  0.884667959  0.801256025
     0.865332949  0.384667985  0.801256025
     0.865332938  0.884667959  0.801256025
     0.115328503  0.365337004  0.801264999
     0.115328505  0.865336978  0.801264999
     0.615328503  0.365337004  0.801264999
     0.615328492  0.865336978  0.801264999
     0.384671513  0.134662996  0.801264999
     0.384671501  0.634662970  0.801264999
     0.884671486  0.134662996  0.801264999
     0.884671528  0.634662970  0.801264999
     0.998832354  0.004041739  0.602482320
     0.009543877  0.504981991  0.607727083
     0.501764215  0.998628264  0.602545809
     0.497424113  0.497818452  0.603990068
     0.254236424  0.248260500  0.604216920
     0.248260393  0.755510892  0.602784505
     0.749475495  0.249606314  0.605309851
     0.749396467  0.755918913  0.604619894
     0.000000500  0.000000500  0.704828963
     0.000000500  0.500000475  0.704828963
     0.500000475  0.000000500  0.704828963
     0.500000464  0.500000475  0.704828963
     0.249999994  0.249999472  0.704824995
     0.250000010  0.749999498  0.704824995
     0.749999994  0.249999472  0.704824995
     0.749999983  0.749999498  0.704824995
     0.000000000  0.000000000  0.807317968
     0.000000000  0.500000000  0.807317968
     0.500000000  0.000000000  0.807317968
     0.499999989  0.500000000  0.807317968
     0.249999994  0.250000000  0.807317968
     0.250000010  0.749999974  0.807317968
     0.749999994  0.250000000  0.807317968
     0.749999983  0.749999974  0.807317968

  ion indices of the primitive-cell ions
   primitive index   ion index
                 1           1
                 2           2
                 3           3
                 4           4
                 5           5
                 6           6
                 7           7
                 8           8
                 9           9
                10          10
                11          11
                12          12
                13          13
                14          14
                15          15
                16          16
                17          17
                18          18
                19          19
                20          20
                21          21
                22          22
                23          23
                24          24
                25          25
                26          26
                27          27
                28          28
                29          29
                30          30
                31          31
                32          32
                33          33
                34          34
                35          35
                36          36
                37          37
                38          38
                39          39
                40          40
                41          41
                42          42
                43          43
                44          44
                45          45
                46          46
                47          47
                48          48
                49          49
                50          50
                51          51
                52          52
                53          53
                54          54
                55          55
                56          56
                57          57
                58          58
                59          59
                60          60
                61          61
                62          62
                63          63
                64          64
                65          65
                66          66
                67          67
                68          68
                69          69
                70          70
                71          71
                72          72
                73          73
                74          74
                75          75
                76          76
                77          77
                78          78
                79          79
                80          80
                81          81
                82          82
                83          83
                84          84
                85          85
                86          86
                87          87
                88          88
                89          89
                90          90
                91          91
                92          92
                93          93
                94          94
                95          95
                96          96
                97          97
                98          98
                99          99
               100         100
               101         101
               102         102
               103         103
               104         104
               105         105
               106         106
               107         107
               108         108
               109         109
               110         110
               111         111
               112         112
               113         113
               114         114
               115         115
               116         116
               117         117
               118         118
               119         119
               120         120
               121         121
               122         122
               123         123
               124         124
               125         125
               126         126
               127         127
               128         128
               129         129
               130         130
               131         131
               132         132
               133         133
               134         134
               135         135
               136         136
               137         137
               138         138
               139         139
               140         140
               141         141
               142         142
               143         143
               144         144
               145         145
               146         146
               147         147
               148         148
               149         149
               150         150
               151         151
               152         152
               153         153
               154         154
               155         155
               156         156
               157         157
               158         158
               159         159
               160         160
               161         161
               162         162
               163         163
               164         164
               165         165
               166         166
               167         167
               168         168
               169         169
               170         170
               171         171
               172         172
               173         173
               174         174
               175         175
               176         176
               177         177
               178         178
               179         179
               180         180
               181         181
               182         182
               183         183
               184         184
               185         185
               186         186
               187         187
               188         188
               189         189
               190         190
               191         191
               192         192
               193         193
               194         194
               195         195
               196         196
               197         197
               198         198
               199         199
               200         200
               201         201
               202         202
               203         203
               204         204
               205         205
               206         206
               207         207
               208         208
               209         209
               210         210
               211         211
               212         212
               213         213
               214         214
               215         215
               216         216
               217         217
               218         218
               219         219
               220         220
               221         221
               222         222
               223         223
               224         224
               225         225
               226         226
               227         227
               228         228
               229         229
               230         230
               231         231
               232         232
               233         233
               234         234
               235         235
               236         236
               237         237
               238         238
               239         239
               240         240
               241         241
               242         242
               243         243
               244         244
               245         245
               246         246
               247         247
               248         248
               249         249
               250         250
               251         251
               252         252
               253         253
               254         254
               255         255
               256         256
               257         257
               258         258
               259         259
               260         260
               261         261
               262         262
               263         263
               264         264
               265         265
               266         266
               267         267
               268         268
               269         269
               270         270
               271         271
               272         272
               273         273
               274         274
               275         275
               276         276
               277         277
               278         278
               279         279
               280         280
               281         281
               282         282
               283         283
               284         284
               285         285
               286         286
               287         287
               288         288
               289         289
               290         290
               291         291
               292         292
               293         293
               294         294
               295         295
               296         296
               297         297
               298         298
               299         299
               300         300
               301         301
               302         302
               303         303
               304         304
               305         305
               306         306
               307         307
               308         308
               309         309
               310         310
               311         311
               312         312
               313         313
               314         314
               315         315
               316         316
               317         317
               318         318
               319         319
               320         320
               321         321
               322         322
               323         323
               324         324
               325         325

----------------------------------------------------------------------------------------

 
 
 KPOINTS: Automatic Mesh                          

Automatic generation of k-mesh.
 Grid dimensions read from file:
 generate k-points for:    3    3    1

 Generating k-lattice:

  Cartesian coordinates                     Fractional coordinates (reciprocal lattice)
     0.018456177  0.000005026 -0.000000000     0.333333333  0.000000000  0.000000000
     0.000000000  0.018454135  0.000000000     0.000000000  0.333333333  0.000000000
     0.000000000 -0.000000000  0.016003201     0.000000000  0.000000000  1.000000000

  Length of vectors
     0.018456178  0.018454135  0.016003201

  Shift w.r.t. Gamma in fractional coordinates (k-lattice)
     0.000000000  0.000000000  0.000000000

 
 Subroutine IBZKPT returns following result:
 ===========================================
 
 Found      5 irreducible k-points:
 
 Following reciprocal coordinates:
            Coordinates               Weight
  0.000000  0.000000  0.000000      1.000000
  0.333333  0.000000  0.000000      2.000000
  0.000000  0.333333  0.000000      2.000000
  0.333333  0.333333  0.000000      2.000000
 -0.333333  0.333333  0.000000      2.000000
 
 Following cartesian coordinates:
            Coordinates               Weight
  0.000000  0.000000  0.000000      1.000000
  0.018456  0.000005  0.000000      2.000000
  0.000000  0.018454  0.000000      2.000000
  0.018456  0.018459  0.000000      2.000000
 -0.018456  0.018449  0.000000      2.000000
 


--------------------------------------------------------------------------------------------------------




 Dimension of arrays:
   k-points           NKPTS =      5   k-points in BZ     NKDIM =      5   number of bands    NBANDS=    732
   number of dos      NEDOS =    301   number of ions     NIONS =    325
   non local maximal  LDIM  =      5   non local SUM 2l+1 LMDIM =     13
   total plane-waves  NPLWV = ******
   max r-space proj   IRMAX =   3336   max aug-charges    IRDMAX=  19845
   dimension x,y,z NGX =   100 NGY =  100 NGZ =  350
   dimension x,y,z NGXF=   200 NGYF=  200 NGZF=  700
   support grid    NGXF=   200 NGYF=  200 NGZF=  700
   ions per type =             143  39  47  72  24
   NGX,Y,Z   is equivalent  to a cutoff of   9.20,  9.20,  9.31 a.u.
   NGXF,Y,Z  is equivalent  to a cutoff of  18.41, 18.41, 18.62 a.u.

 SYSTEM =  PSC                                     
 POSCAR =   H  C  N  I Pb                          

 Startparameter for this run:
   NWRITE =      2    write-flag & timer
   PREC   = normal    normal or accurate (medium, high low for compatibility)
   ISTART =      0    job   : 0-new  1-cont  2-samecut
   ICHARG =      1    charge: 1-file 2-atom 10-const
   ISPIN  =      1    spin polarized calculation?
   LNONCOLLINEAR =      F non collinear calculations
   LSORBIT =      F    spin-orbit coupling
   INIWAV =      1    electr: 0-lowe 1-rand  2-diag
   LASPH  =      F    aspherical Exc in radial PAW
 Electronic Relaxation 1
   ENCUT  =  500.0 eV  36.75 Ry    6.06 a.u.  32.93 32.93113.93*2*pi/ulx,y,z
   ENINI  =  500.0     initial cutoff
   ENAUG  =  644.9 eV  augmentation charge cutoff
   NELM   =    600;   NELMIN=  2; NELMDL=  0     # of ELM steps 
   EDIFF  = 0.1E-03   stopping-criterion for ELM
   LREAL  =      T    real-space projection
   NLSPLINE    = F    spline interpolate recip. space projectors
   LCOMPAT=      F    compatible to vasp.4.4
   GGA_COMPAT  = F    GGA compatible to vasp.4.4-vasp.4.6
   LMAXPAW     = -100 max onsite density
   LMAXMIX     =    2 max onsite mixed and CHGCAR
   VOSKOWN=      0    Vosko Wilk Nusair interpolation
   ROPT   =   -0.00050  -0.00050  -0.00050  -0.00050
   ROPT   =   -0.00050
 Ionic relaxation
   EDIFFG = 0.1E-02   stopping-criterion for IOM
   NSW    =      0    number of steps for IOM
   NBLOCK =      1;   KBLOCK =      1    inner block; outer block 
   IBRION =     -1    ionic relax: 0-MD 1-quasi-New 2-CG
   NFREE  =      0    steps in history (QN), initial steepest desc. (CG)
   ISIF   =      2    stress and relaxation
   IWAVPR =     10    prediction:  0-non 1-charg 2-wave 3-comb
   ISYM   =      0    0-nonsym 1-usesym 2-fastsym
   LCORR  =      T    Harris-Foulkes like correction to forces

   POTIM  = 0.5000    time-step for ionic-motion
   TEIN   =    0.0    initial temperature
   TEBEG  =    0.0;   TEEND  =   0.0 temperature during run
   SMASS  =  -3.00    Nose mass-parameter (am)
   estimated Nose-frequenzy (Omega)   =  0.10E-29 period in steps = 0.13E+47 mass=  -0.745E-26a.u.
   SCALEE = 1.0000    scale energy and forces
   NPACO  =    256;   APACO  = 16.0  distance and # of slots for P.C.
   PSTRESS=    0.0 pullay stress

  Mass of Ions in am
   POMASS =   1.00 12.01 14.00126.90207.20
  Ionic Valenz
   ZVAL   =   1.00  4.00  5.00  7.00  4.00
  Atomic Wigner-Seitz radii
   RWIGS  =  -1.00 -1.00 -1.00 -1.00 -1.00
  virtual crystal weights 
   VCA    =   1.00  1.00  1.00  1.00  1.00
   NELECT =    1134.0000    total number of electrons
   NUPDOWN=      -1.0000    fix difference up-down

 DOS related values:
   EMIN   =  10.00;   EMAX   =-10.00  energy-range for DOS
   EFERMI =   0.00
   ISMEAR =     0;   SIGMA  =   0.05  broadening in eV -4-tet -1-fermi 0-gaus

 Electronic relaxation 2 (details)
   IALGO  =     38    algorithm
   LDIAG  =      T    sub-space diagonalisation (order eigenvalues)
   LSUBROT=      F    optimize rotation matrix (better conditioning)
   TURBO    =      0    0=normal 1=particle mesh
   IRESTART =      0    0=no restart 2=restart with 2 vectors
   NREBOOT  =      0    no. of reboots
   NMIN     =      0    reboot dimension
   EREF     =   0.00    reference energy to select bands
   IMIX   =      4    mixing-type and parameters
     AMIX     =   0.40;   BMIX     =  0.01
     AMIX_MAG =   1.60;   BMIX_MAG =  0.01
     AMIN     =   0.01
     WC   =   100.;   INIMIX=   1;  MIXPRE=   1;  MAXMIX= -45

 Intra band minimization:
   WEIMIN = 0.0000     energy-eigenvalue tresh-hold
   EBREAK =  0.34E-07  absolut break condition
   DEPER  =   0.30     relativ break condition  

   TIME   =   0.40     timestep for ELM

  volume/ion in A,a.u.               =      62.72       423.28
  Fermi-wavevector in a.u.,A,eV,Ry     =   0.624944  1.180972  5.313816  0.390554
  Thomas-Fermi vector in A             =   1.685677
 
 Write flags
   LWAVE        =      F    write WAVECAR
   LDOWNSAMPLE  =      F    k-point downsampling of WAVECAR
   LCHARG       =      T    write CHGCAR
   LVTOT        =      T    write LOCPOT, total local potential
   LVHAR        =      F    write LOCPOT, Hartree potential only
   LELF         =      F    write electronic localiz. function (ELF)
   LORBIT       =      0    0 simple, 1 ext, 2 COOP (PROOUT), +10 PAW based schemes


 Dipole corrections
   LMONO  =      F    monopole corrections only (constant potential shift)
   LDIPOL =      T    correct potential (dipole corrections)
   IDIPOL =      3    1-x, 2-y, 3-z, 4-all directions 
   EPSILON=  1.0000000 bulk dielectric constant

 Exchange correlation treatment:
   GGA     =    --    GGA type
   LEXCH   =     8    internal setting for exchange type
   VOSKOWN=      0    Vosko Wilk Nusair interpolation
   LHFCALC =     F    Hartree Fock is set to
   LHFONE  =     F    Hartree Fock one center treatment
   AEXX    =    0.0000 exact exchange contribution

 Linear response parameters
   LEPSILON=     F    determine dielectric tensor
   LRPA    =     F    only Hartree local field effects (RPA)
   LNABLA  =     F    use nabla operator in PAW spheres
   LVEL    =     F    velocity operator in full k-point grid
   LINTERFAST=   F  fast interpolation
   KINTER  =     0    interpolate to denser k-point grid
   CSHIFT  =0.1000    complex shift for real part using Kramers Kronig
   OMEGAMAX=  -1.0    maximum frequency
   DEG_THRESHOLD= 0.2000000E-02 threshold for treating states as degnerate
   RTIME   =   -0.100 relaxation time in fs
  (WPLASMAI=    0.000 imaginary part of plasma frequency in eV, 0.658/RTIME)
   DFIELD  = 0.0000000 0.0000000 0.0000000 field for delta impulse in time
 
 Orbital magnetization related:
   ORBITALMAG=     F  switch on orbital magnetization
   LCHIMAG   =     F  perturbation theory with respect to B field
   DQ        =  0.001000  dq finite difference perturbation B field
   LLRAUG    =     F  two centre corrections for induced B field



--------------------------------------------------------------------------------------------------------


 Static calculation
 charge density and potential will be updated during run
 non-spin polarized calculation
 Variant of blocked Davidson
 Davidson routine will perform the subspace rotation
 perform sub-space diagonalisation
    after iterative eigenvector-optimisation
 modified Broyden-mixing scheme, WC =      100.0
 initial mixing is a Kerker type mixing with AMIX =  0.4000 and BMIX =      0.0100
 Hartree-type preconditioning will be used
 using additional bands           165
 real space projection scheme for non local part
[...]
     13.54561      0.00000     45.35368        -0.003577      0.001311      0.012132
     13.54315      9.03140     45.35368         0.000358      0.000360      0.019548
     14.06940      9.21897     32.55717         0.093918      0.375443     -0.041297
     15.67596      9.23943     33.37659         0.240210      0.017767     -0.333159
     13.75539     11.38263     33.76394        -0.456419     -0.102752     -0.270395
     13.86829     11.39498     35.49179         0.183969      0.015888     -0.003638
     12.25955      8.32611     35.00885         0.365381     -0.467355      0.290675
     12.20165     10.01637     35.42410        -0.178352      0.097817     -0.000201
     14.56663      7.78318     35.81627        -0.064573     -0.341936     -0.265532
     15.76787      9.05023     35.84072         0.027876      0.171127     -0.086434
     15.51485      7.02415     33.96930         0.439588     -0.428462      0.344402
     13.76428      6.89393     33.73861         0.157893      0.001450      0.034530
     13.95287      7.01497     31.37313        -0.127850     -0.212760     -0.161542
     15.57896      7.66578     31.44666        -0.158138     -0.179637     -0.147552
     16.10681     11.28802     33.37765        -0.032366     -0.112555     -0.130551
     16.47313     11.05632     35.06327         0.212899     -0.014990      0.431713
     15.72991     12.57558     34.46962        -0.128637      0.080400      0.270895
     10.71341      9.54808     33.52221         0.358663      0.013661      0.128390
     12.00337      8.73214     32.62106        -0.017591      0.127648     -0.004567
     12.09038     10.50186     32.91175        -0.053276      0.357762     -0.389917
     13.21996      8.66426     37.48393         0.294355      0.133158     -0.217548
     13.59015     10.30862     37.04316        -0.253832      0.785374     -0.005016
     14.75531      9.41752     37.93259         0.588869      0.009572      0.596262
     15.09230      4.88014     32.46073        -0.164476     -0.681205      0.419689
     15.23237      5.14600     30.73968        -0.118484     -0.188494     -0.159426
     16.92859      3.27434     31.46322         0.168570      0.318766     -0.056077
     17.61564      7.52374     32.11876        -0.302088      0.034483     -0.025548
      1.29411      2.90523     31.52221         0.188996     -0.288174      0.029325
      1.90300      7.13301     32.24950         0.093739     -0.135696     -0.116977
      2.88157      4.82116     31.96463        -0.506572     -0.000043     -0.053662
     17.96827      4.12837     35.02546        -0.396261      0.414069     -0.439932
      0.45915     13.94796     34.91784        -0.432320     -0.230598      0.589898
      9.12287      4.56351     34.98590         0.944915     -0.132012     -0.853798
      9.14796     13.94568     34.90649         0.343765      0.507865     -0.948589
      4.44587      9.08412     34.76175        -0.432672     -0.434134     -0.187718
      4.70630     17.86024     34.88858         0.157136     -0.327208     -0.426814
     13.79641     17.85578     34.96515         0.507132     -0.173184     -0.363865
      0.06225      4.44383     40.67381        -0.543444      0.347135      0.631885
      0.19390     13.82247     40.74858        -0.109764     -0.311035      1.212507
      9.02935      4.59191     40.54541         0.719437     -0.681166      0.557827
      8.93671     13.58449     40.66678         0.038275     -0.196037      0.321966
      4.55720      9.03307     40.64065        -0.947368     -0.949881     -0.001200
      4.55238     18.05571     40.57547         0.471388      0.262560      0.832863
     13.38902      9.07419     40.76118        -0.358175     -0.175108     -0.673512
     13.58877      0.03815     40.61286        -0.808720     -0.815155     -0.029444
      9.02897      4.51561     46.44552         0.011740      0.005161      0.039851
      9.02651     13.54701     46.44552         0.005959      0.009030      0.057285
     18.05937      4.51561     46.44552         0.004966      0.012640      0.055264
     18.05691     13.54701     46.44552         0.032537     -0.014199      0.051653
      4.51521      0.00002     46.44421        -0.002089     -0.001924      0.063287
      4.51275      9.03142     46.44421        -0.010271     -0.008916      0.057543
     13.54561      0.00002     46.44421         0.001193      0.003799      0.053400
     13.54315      9.03142     46.44421        -0.014397     -0.015724      0.057566
     17.06286      5.44563     31.76535        -0.751159     -1.521939     -0.228621
     17.61121      4.13238     31.58752        -0.549291      0.502299      0.320568
     17.93293      6.49784     31.94776         1.095302      0.310090      0.287235
      0.91863      3.91102     31.65629        -0.095495      0.099066     -0.194163
      1.26855      6.27529     32.01400        -0.377800     -0.434746      0.105748
      1.79058      4.97968     31.87554         0.545710      0.701913      0.098298
     14.65731      8.85339     33.40147         0.077245      0.104062      0.268272
     14.33910     10.98944     34.58752        -0.446906     -0.088413      0.295566
     12.53480      9.31487     34.65376        -0.179125      0.136910      0.207436
     14.68911      8.85887     35.88284        -0.102496      0.073200      0.012413
     14.69201      7.34358     33.34628        -0.549968      0.101547      0.238746
     14.90490      6.90960     31.90320         0.743638      0.634599     -0.242510
     15.73841     11.48391     34.39130         0.461607     -0.190288     -0.421427
     11.80626      9.54477     33.33670         0.297106     -0.140630      0.176426
     14.03437      9.33892     37.14631        -0.757478     -0.605388      0.151305
     15.53333      5.52814     31.71951         0.383599      0.867917     -0.491198
      1.02945      3.84147     35.62595        -0.540024      0.463379      0.943742
      0.85086     12.81615     35.47247        -0.307396      0.569792     -0.250437
      9.90473      3.67284     35.53501         0.079987     -0.218840      0.186487
     10.07411     13.21666     35.44610         0.876721     -0.738207      0.447797
      8.07119      5.08427     35.52576        -0.509548      0.239854      0.101530
      7.95417     14.14968     35.36708        -1.282852     -0.189605      1.293366
     16.98171      4.85935     35.50914         0.465705     -0.120765      0.048835
     17.58543     14.73452     35.41902         0.290878     -0.612531     -0.224746
      4.16350      8.06630     35.54738         0.196778      0.184538     -0.013963
      3.51013     17.63879     35.39098         0.646343      0.393420      0.120849
     12.79023     17.19349     35.47102        -0.216541      0.381060      0.115047
      5.66944      0.49032     35.45314        -0.549247      0.126339      0.056210
      5.09320     10.16532     35.11045         0.069603     -0.398311      0.594777
     14.39638      0.83269     35.51214        -0.871409     -0.445391      0.199385
      0.97554      3.58477     41.07981        -0.278458      0.303159     -0.491061
      0.89796     12.87153     41.34127        -0.580727      0.467535      0.058429
      9.78299      3.63687     41.09590        -0.509415      0.743794     -0.855032
      9.57593     12.78400     41.48890        -0.349548      0.611308      1.816647
      3.78752      8.11164     41.22355         1.481888      1.798741      1.342757
      3.64820     17.25548     41.13133         1.814586      1.768785      1.425902
     12.69100      8.22246     41.45760        -0.750076     -0.872874     -0.363574
     12.63812     17.36780     41.20586         1.802454      1.594216      1.310568
      8.14248      5.31838     41.17205        -0.160024     -0.002820      0.407128
      8.11361     14.54209     40.99333        -0.297234      0.409039      0.855691
     17.31715      5.16453     41.44685         0.994639     -0.873164     -0.081371
     17.29212     14.52497     41.30964         0.219970     -0.108395     -0.569237
      5.40921      0.81901     41.19776        -2.345259     -2.018354      1.263076
      5.29949      9.92234     41.23385         0.215969      0.163096      1.100366
     14.47366      0.80607     41.18719        -0.240943     -0.039172      1.420789
     14.27446      9.90940     41.20906         1.115374      1.069887     -0.013348
      0.82731      3.68697     47.03596         0.020584     -0.028798     -0.097766
      0.82485     12.71837     47.03596         0.005461     -0.007501     -0.099892
      9.85771      3.68697     47.03596         0.018716     -0.022043     -0.089143
      9.85525     12.71837     47.03596         0.024776     -0.020426     -0.093012
      3.68432      8.20234     47.03465        -0.003708     -0.004523     -0.083273
      3.68186     17.23373     47.03465        -0.008425     -0.005327     -0.077289
     12.71472      8.20234     47.03465        -0.001376      0.000102     -0.079573
     12.71226     17.23373     47.03465        -0.007594     -0.016317     -0.077242
      8.20068      5.34457     47.03603        -0.018747      0.017604     -0.093908
      8.19822     14.37597     47.03603        -0.015665      0.012879     -0.103044
     17.23108      5.34457     47.03603        -0.015796      0.009776     -0.102043
     17.22862     14.37597     47.03603        -0.034357      0.025087     -0.091344
      5.34365      0.82909     47.03465         0.010550      0.010095     -0.086092
      5.34119      9.86049     47.03465         0.014631      0.015392     -0.076974
     14.37405      0.82909     47.03465         0.010363      0.006385     -0.080788
     14.37159      9.86049     47.03465         0.013779      0.025127     -0.080429
     14.07743      9.48036     34.65396        -0.582265     -0.047065     -1.029781
      9.00539      0.02603     34.50322         0.043489     -0.055315      0.079154
      8.39041      8.65444     34.72123        -0.016803     -0.013186     -0.034532
     17.86774      0.15838     34.44040         0.050176     -0.016358     -0.010688
      0.53265      8.89249     34.91781        -0.046885      0.046268     -0.259716
      4.57127      4.45157     34.65827        -0.045291     -0.005453     -0.013917
      4.41606     13.74566     34.47451        -0.016808      0.044885     -0.024709
     13.33978      4.11060     34.69655         0.057347      0.025209     -0.065247
     12.98251     14.12423     34.09045         0.231208      0.073125     -0.027064
      0.09314     18.04453     40.87997        -0.054845      0.019167     -0.022047
      0.00317      9.12080     41.04171         0.021055     -0.010339     -0.005401
      9.02367      0.01002     40.90444        -0.012839      0.031878      0.051515
      8.98356      8.99017     40.92328        -0.015738      0.010470      0.106637
      4.53265      4.44713     40.95091         0.013697     -0.033963      0.034892
      4.55617     13.53364     40.89116        -0.014011      0.032472     -0.013663
     13.42048      4.45777     40.93189         0.003999      0.002027      0.119996
     13.60145     13.71670     40.82339         0.010233     -0.020536      0.074904
      2.67699      1.84034     38.00749         0.020246      0.099217      0.075507
      2.71853     10.95119     38.01488         0.030282      0.017075      0.042531
     11.57885      1.91584     38.04799         0.165409      0.011064      0.082405
     11.07481     11.52083     38.43232         0.242164     -0.222021     -0.243710
      6.50499      7.01759     38.23314        -0.006439      0.003029      0.027421
      6.51161     16.12732     37.99370        -0.050977     -0.045138      0.048519
     16.00593      6.61510     38.44653        -0.144367      0.008751     -0.129271
     15.49196     16.16371     37.91951         0.012298     -0.026684      0.063240
      2.05366      6.42842     38.12183         0.046096      0.014323      0.047360
      1.97449     15.60293     37.92639         0.064135      0.031885      0.080708
     11.12783      6.62518     37.94350         0.004768      0.012772     -0.005406
     11.05767     15.62883     38.11572         0.054752     -0.044655      0.086703
      7.14808      2.56739     38.10851         0.026226     -0.015319     -0.007967
      6.97727     11.64741     37.88013         0.019354     -0.136190      0.051619
     16.04697      2.43634     38.20289        -0.051802      0.094921      0.044522
     16.49617     11.99884     38.38432        -0.077805     -0.122975     -0.339071
      0.00000      0.00000     47.17356        -0.002205      0.000043      0.406535
     -0.00246      9.03140     47.17356        -0.004039      0.004120      0.578632
      9.03040      0.00000     47.17356        -0.001655     -0.002622      0.463300
      9.02794      9.03140     47.17356         0.000745      0.003498      0.470839
      4.51398      4.51570     47.17425        -0.000186     -0.004764      0.498571
      4.51152     13.54710     47.17425         0.001883      0.002648      0.434575
     13.54438      4.51570     47.17425         0.000922     -0.002494      0.445485
     13.54192     13.54710     47.17425         0.000874      0.001100      0.239047
      2.45192      2.06295     44.04013         0.000278     -0.037679     -0.002433
      2.44946     11.09435     44.04013         0.050026     -0.016317      0.041287
     11.48232      2.06295     44.04013        -0.017839     -0.032329     -0.022975
     11.47986     11.09435     44.04013         0.064275      0.018227     -0.001203
      6.57602      6.96845     44.04013        -0.026644     -0.000812     -0.003982
      6.57356     15.99985     44.04013         0.007178      0.000945     -0.037622
     15.60642      6.96845     44.04013        -0.067799      0.029869      0.007478
     15.60396     15.99985     44.04013        -0.071834      0.032715      0.059195
      2.06108      6.57881     44.04000        -0.001666     -0.024532      0.010317
      2.05862     15.61021     44.04000         0.018874      0.034678      0.007441
     11.09148      6.57881     44.04000        -0.062662     -0.070061      0.112512
     11.08902     15.61021     44.04000         0.011225     -0.029992     -0.003215
      6.96686      2.45259     44.04007         0.043859      0.018590      0.004331
      6.96440     11.48399     44.04007        -0.006005      0.011712      0.037933
     15.99726      2.45259     44.04007         0.020004     -0.004358      0.005016
     15.99481     11.48399     44.04007        -0.034054      0.064647     -0.033766
      2.43163      2.08322     50.06849        -0.003282     -0.023679      0.020606
      2.42917     11.11462     50.06849         0.018271      0.001536      0.021575
     11.46203      2.08322     50.06849         0.008493     -0.013719      0.021649
     11.45957     11.11462     50.06849         0.029483      0.010493      0.019810
      6.59631      6.94818     50.06849        -0.004581      0.015810      0.022435
      6.59385     15.97958     50.06849        -0.008969      0.010427      0.020451
     15.62671      6.94818     50.06849        -0.018972      0.002324      0.021637
     15.62425     15.97958     50.06849        -0.023332     -0.001719      0.019138
      2.08113      6.59901     50.06905        -0.008642     -0.011821      0.022549
      2.07867     15.63041     50.06905        -0.016095     -0.004641      0.020959
     11.11153      6.59901     50.06905        -0.008829     -0.009563      0.021875
     11.10907     15.63041     50.06905         0.006948     -0.027031      0.019745
      6.94681      2.43239     50.06905         0.017419      0.000573      0.021552
      6.94435     11.46379     50.06905         0.008918      0.013616      0.021923
     15.97721      2.43239     50.06905         0.015512      0.002160      0.020875
     15.97475     11.46379     50.06905        -0.017871      0.038268      0.020240
     18.03969      0.07301     37.64761        -0.080483     -0.054309      0.091238
      0.16989      9.12139     37.97535         0.009564     -0.034203     -0.210989
      9.05735     18.03802     37.65158        -0.086033     -0.044709     -0.038503
      8.98143      8.99199     37.74183        -0.007398      0.094091     -0.120940
      4.59049      4.48428     37.75600        -0.087123      0.023876      0.064375
      4.48007     13.64664     37.66650        -0.110182      0.009685      0.063303
     13.53490      4.50859     37.82430         0.094595      0.067064      0.003448
     13.53098     13.65401     37.78119         0.043652      0.020147      0.014826
      0.00001      0.00001     44.04300         0.023132     -0.024478      0.002501
     -0.00245      9.03141     44.04300         0.060116     -0.070201      0.322341
      9.03041      0.00001     44.04300         0.014740      0.006993     -0.004100
      9.02795      9.03141     44.04300        -0.003063     -0.045566      0.040909
      4.51397      4.51569     44.04275        -0.004718      0.042827      0.086487
      4.51151     13.54709     44.04275        -0.042451      0.009931     -0.003370
     13.54437      4.51569     44.04275        -0.034927      0.018074      0.100978
     13.54191     13.54709     44.04275        -0.066453      0.008055      0.123194
      0.00000      0.00000     50.44728         0.014700      0.015055     -0.623769
     -0.00246      9.03140     50.44728         0.012598     -0.016405     -0.670145
      9.03040      0.00000     50.44728        -0.013025      0.017744     -0.640344
      9.02794      9.03140     50.44728        -0.015756     -0.015195     -0.643213
      4.51397      4.51570     50.44728        -0.001950      0.010818     -0.649575
      4.51151     13.54710     50.44728        -0.001218     -0.010823     -0.632778
     13.54437      4.51570     50.44728        -0.000240      0.010661     -0.636523
     13.54191     13.54710     50.44728         0.002080     -0.010201     -0.577697
 -----------------------------------------------------------------------------------
    total drift:                                0.101622     -0.073349      0.619017


--------------------------------------------------------------------------------------------------------



  FREE ENERGIE OF THE ION-ELECTRON SYSTEM (eV)
  ---------------------------------------------------
  free  energy   TOTEN  =     -1573.37748513 eV

  energy  without entropy=    -1573.37748513  energy(sigma->0) =    -1573.37748513
 


--------------------------------------------------------------------------------------------------------


    POTLOK:  cpu time    0.4996: real time    0.4995


--------------------------------------------------------------------------------------------------------


     LOOP+:  cpu time  302.6038: real time  303.6163
 vacuum level on the upper side and lower side of the slab         2.302         1.586
    4ORBIT:  cpu time    0.0000: real time    0.0000

 total amount of memory used by VASP MPI-rank0  8653589. kBytes
=======================================================================

   base      :      30000. kBytes
   nonlr-proj:      53627. kBytes
   fftplans  :     249280. kBytes
   grid      :     701440. kBytes
   one-center:       2636. kBytes
   wavefun   :    7616606. kBytes
 
  
  
 General timing and accounting informations for this job:
 ========================================================
  
                  Total CPU time used (sec):      515.203
                            User time (sec):      415.890
                          System time (sec):       99.313
                         Elapsed time (sec):      518.375
  
                   Maximum memory used (kb):    10308120.
                   Average memory used (kb):          N/A
  
                          Minor page faults:      3684947
                          Major page faults:           12
                 Voluntary context switches:        11348
