<?xml version="1.0" encoding="ISO-8859-1"?>
<modeling>
 <generator>
  <i name="program" type="string">vasp </i>
  <i name="version" type="string">6.2.1  </i>
  <i name="subversion" type="string">16May21 (build Nov 15 2021 14:57:28) complex                          parallel </i>
  <i name="platform" type="string">LinuxPGI </i>
  <i name="date" type="string">2023 07 30 </i>
  <i name="time" type="string">21:10:44 </i>
 </generator>
 <incar>
  <i type="string" name="SYSTEM">PSC</i>
  <i type="int" name="ISTART">     1</i>
  <i type="string" name="PREC">Normal</i>
  <i name="BMIX">      0.01000000</i>
  <i name="AMIN">      0.01000000</i>
  <i type="int" name="ICHARG">     1</i>
  <i type="int" name="NELM">   600</i>
  <i type="int" name="ISYM">     0</i>
  <i name="ENCUT">    500.00000000</i>
  <i type="string" name="LREAL">Auto</i>
  <i type="int" name="ISMEAR">     0</i>
  <i name="SIGMA">      0.05000000</i>
  <i type="logical" name="LWAVE"> F  </i>
  <i type="logical" name="LVTOT"> T  </i>
  <i type="logical" name="GGA_COMPAT"> F  </i>
  <i type="logical" name="LDIPOL"> T  </i>
  <i type="int" name="IDIPOL">     3</i>
  <i type="int" name="IVDW">    12</i>
 </incar>
 <primitive_cell>
  <structure name="primitive_cell" >
   <crystal>
    <varray name="basis" >
     <v>      18.06080055       0.00000000       0.00000000 </v>
     <v>      -0.00491865      18.06279945       0.00000000 </v>
     <v>       0.00000000       0.00000000      62.48749924 </v>
    </varray>
    <i name="volume">  20385.21054034 </i>
    <varray name="rec_basis" >
     <v>       0.05536853       0.00001508      -0.00000000 </v>
     <v>       0.00000000       0.05536240       0.00000000 </v>
     <v>       0.00000000      -0.00000000       0.01600320 </v>
    </varray>
   </crystal>
   <varray name="positions" >
    <v>       0.47355443       0.33671616       0.56813970 </v>
    <v>       0.44641832       0.83229955       0.57404243 </v>
    <v>       0.92294208       0.25354690       0.58002434 </v>
    <v>       0.93998577       0.81884691       0.57433906 </v>
    <v>       0.31868919       0.07653026       0.56945679 </v>
    <v>       0.34794615       0.55494340       0.56356945 </v>
    <v>       0.80010281       0.09298875       0.56998058 </v>
    <v>       0.10534671       0.24677905       0.55711961 </v>
    <v>       0.07928824       0.67403205       0.57511973 </v>
    <v>       0.54524582       0.14985887       0.56066750 </v>
    <v>       0.50021558       0.64500271       0.55998468 </v>
    <v>       0.36965005       0.01198176       0.55514051 </v>
    <v>       0.29354405       0.63032743       0.55521084 </v>
    <v>       0.87301234       0.03569983       0.56078447 </v>
    <v>       0.05779713       0.25499223       0.58099188 </v>
    <v>       0.99419778       0.69624030       0.58647155 </v>
    <v>       0.57399548       0.23876066       0.56915937 </v>
    <v>       0.45114396       0.69535203       0.57891718 </v>
    <v>       0.27733255       0.43929655       0.57288424 </v>
    <v>       0.18271492       0.06001386       0.57185132 </v>
    <v>       0.67707066       0.03021224       0.57341755 </v>
    <v>       0.38701961       0.30627536       0.55853743 </v>
    <v>       0.50232157       0.87060117       0.55418750 </v>
    <v>       0.87782420       0.23979919       0.55580483 </v>
    <v>       0.98884577       0.86666706       0.55512135 </v>
    <v>       0.18395925       0.43892771       0.56598442 </v>
    <v>       0.14453396       0.98675978       0.55813684 </v>
    <v>       0.67351086       0.93754091       0.56466049 </v>
    <v>       0.42737414       0.18780848       0.55165966 </v>
    <v>       0.54410389       0.75420103       0.54267885 </v>
    <v>       0.99363121       0.23483016       0.53714912 </v>
    <v>       0.08288781       0.77662015       0.55323541 </v>
    <v>       0.18449136       0.55985105       0.55436442 </v>
    <v>       0.26142651       0.94233063       0.54670969 </v>
    <v>       0.79531488       0.93392853       0.55588694 </v>
    <v>       0.45655218       0.30591916       0.67346881 </v>
    <v>       0.44285451       0.80787465       0.67255639 </v>
    <v>       0.94354064       0.27711764       0.67502790 </v>
    <v>       0.92317368       0.73031789       0.67170607 </v>
    <v>       0.30754534       0.04946236       0.67201313 </v>
    <v>       0.29568382       0.55389120       0.67539449 </v>
    <v>       0.80046104       0.05405113       0.67445961 </v>
    <v>       0.84258668       0.47139658       0.66375831 </v>
    <v>       0.09234682       0.17358389       0.64877716 </v>
    <v>       0.11251840       0.71908618       0.65166739 </v>
    <v>       0.58047303       0.16907228       0.64945717 </v>
    <v>       0.57125371       0.66919937       0.65110844 </v>
    <v>       0.18580728       0.41103122       0.64835020 </v>
    <v>       0.16627333       0.92987453       0.64759773 </v>
    <v>       0.64261182       0.47483197       0.65790857 </v>
    <v>       0.67678100       0.91802862       0.64966021 </v>
    <v>       0.05384688       0.18649975       0.67407605 </v>
    <v>       0.05245877       0.67473405       0.66913292 </v>
    <v>       0.55774505       0.20548653       0.67426566 </v>
    <v>       0.53824690       0.70041702       0.67557146 </v>
    <v>       0.20246732       0.44334416       0.67399351 </v>
    <v>       0.19821132       0.95571913       0.67281316 </v>
    <v>       0.71596368       0.42004744       0.66733971 </v>
    <v>       0.70260730       0.95049481       0.67496514 </v>
    <v>       0.41997974       0.32476918       0.64826375 </v>
    <v>       0.42228305       0.83371100       0.64640981 </v>
    <v>       0.92272966       0.31831086       0.65030182 </v>
    <v>       0.90688445       0.80838035       0.65580347 </v>
    <v>       0.33636027       0.07403312       0.64650956 </v>
    <v>       0.32546293       0.58410980       0.65051268 </v>
    <v>       0.82895192       0.08115165       0.64896324 </v>
    <v>       0.85087369       0.55544498       0.65030457 </v>
    <v>       0.01319934       0.25740232       0.63216978 </v>
    <v>       0.02670930       0.80775955       0.64152712 </v>
    <v>       0.49611388       0.24065119       0.63089474 </v>
    <v>       0.50145709       0.74851419       0.63108338 </v>
    <v>       0.24987865       0.00064643       0.62938724 </v>
    <v>       0.26160339       0.49556341       0.63178060 </v>
    <v>       0.75394097       0.99690211       0.63163567 </v>
    <v>       0.72350131       0.56616529       0.64523550 </v>
    <v>       0.44874502       0.30128397       0.76888902 </v>
    <v>       0.44874501       0.80128391       0.76888902 </v>
    <v>       0.94874497       0.30128397       0.76888902 </v>
    <v>       0.94874501       0.80128391       0.76888902 </v>
    <v>       0.30127600       0.05129450       0.76887296 </v>
    <v>       0.30127601       0.55129450       0.76887296 </v>
    <v>       0.80127594       0.05129450       0.76887296 </v>
    <v>       0.80127598       0.55129450       0.76887296 </v>
    <v>       0.07877100       0.17118050       0.74344197 </v>
    <v>       0.07877101       0.67118045       0.74344197 </v>
    <v>       0.57877100       0.17118050       0.74344197 </v>
    <v>       0.57877099       0.67118045       0.74344197 </v>
    <v>       0.17119950       0.42117448       0.74342103 </v>
    <v>       0.17119950       0.92117451       0.74342103 </v>
    <v>       0.67119951       0.42117448       0.74342103 </v>
    <v>       0.67119950       0.92117451       0.74342103 </v>
    <v>       0.05125600       0.19871499       0.76888902 </v>
    <v>       0.05125600       0.69871493       0.76888902 </v>
    <v>       0.55125603       0.19871499       0.76888902 </v>
    <v>       0.55125602       0.69871493       0.76888902 </v>
    <v>       0.19872349       0.44870397       0.76887205 </v>
    <v>       0.19872349       0.94870397       0.76887205 </v>
    <v>       0.69872352       0.44870397       0.76887205 </v>
    <v>       0.69872351       0.94870397       0.76887205 </v>
    <v>       0.42123152       0.32881747       0.74344197 </v>
    <v>       0.42123151       0.82881744       0.74344197 </v>
    <v>       0.92123147       0.32881747       0.74344197 </v>
    <v>       0.92123151       0.82881744       0.74344197 </v>
    <v>       0.32880050       0.07882500       0.74342103 </v>
    <v>       0.32880049       0.57882496       0.74342103 </v>
    <v>       0.82880048       0.07882500       0.74342103 </v>
    <v>       0.82880052       0.57882496       0.74342103 </v>
    <v>       0.00000350       0.25000148       0.72582199 </v>
    <v>       0.00000350       0.75000145       0.72582199 </v>
    <v>       0.50000351       0.25000148       0.72582199 </v>
    <v>       0.50000350       0.75000145       0.72582199 </v>
    <v>       0.25000050       0.00000000       0.72580398 </v>
    <v>       0.25000052       0.50000000       0.72580398 </v>
    <v>       0.75000050       0.00000000       0.72580398 </v>
    <v>       0.75000049       0.50000000       0.72580398 </v>
    <v>       0.72028467       0.44245908       0.54097142 </v>
    <v>       0.73716313       0.49291566       0.51752337 </v>
    <v>       0.66010139       0.55212564       0.55812335 </v>
    <v>       0.70699741       0.63773775       0.55598065 </v>
    <v>       0.85090450       0.50744009       0.56851758 </v>
    <v>       0.78910894       0.57689410       0.57823180 </v>
    <v>       0.87299371       0.56253059       0.53062401 </v>
    <v>       0.79992421       0.62400369       0.52292094 </v>
    <v>       0.87100947       0.46291674       0.51871282 </v>
    <v>       0.86326323       0.42276868       0.54422793 </v>
    <v>       0.87284597       0.32621676       0.51882966 </v>
    <v>       0.78355734       0.32273961       0.52985592 </v>
    <v>       0.63539673       0.55023158       0.51884584 </v>
    <v>       0.68875791       0.63351024       0.51554342 </v>
    <v>       0.60662141       0.63407549       0.53066083 </v>
    <v>       0.75509008       0.46824456       0.59654217 </v>
    <v>       0.75433578       0.41084118       0.57348800 </v>
    <v>       0.68395167       0.47779408       0.57781937 </v>
    <v>       0.81698348       0.69176912       0.55859903 </v>
    <v>       0.89888329       0.68859503       0.54340398 </v>
    <v>       0.88845969       0.62705572       0.56520924 </v>
    <v>       0.82060465       0.38059699       0.48511809 </v>
    <v>       0.78549765       0.29304613       0.49164631 </v>
    <v>       0.66321397       0.30559661       0.51908570 </v>
    <v>       0.73197773       0.46099913       0.47086762 </v>
    <v>       0.53661437       0.35800552       0.51810003 </v>
    <v>       0.60457988       0.51253813       0.46956166 </v>
    <v>       0.50659229       0.46234684       0.49366722 </v>
    <v>       0.99228219       0.24258897       0.55437419 </v>
    <v>       0.03493347       0.76787870       0.56356224 </v>
    <v>       0.46656708       0.22787668       0.55822774 </v>
    <v>       0.50478723       0.75737629       0.55588328 </v>
    <v>       0.23669414       0.53473207       0.55950272 </v>
    <v>       0.25737414       0.99396123       0.55573121 </v>
    <v>       0.77330887       0.98599790       0.56203533 </v>
    <v>       0.00758794       0.24613252       0.64937115 </v>
    <v>       0.01080259       0.76575085       0.65313985 </v>
    <v>       0.50085317       0.24690980       0.64830160 </v>
    <v>       0.49667363       0.75087863       0.64841381 </v>
    <v>       0.25643496       0.49674133       0.64914851 </v>
    <v>       0.25108612       0.00165353       0.64687774 </v>
    <v>       0.74593503       0.51798005       0.65332336 </v>
    <v>       0.75284742       0.99908399       0.64907599 </v>
    <v>       0.49998898       0.24999498       0.74327702 </v>
    <v>       0.49998903       0.74999496       0.74327702 </v>
    <v>       0.99998898       0.24999498       0.74327702 </v>
    <v>       0.99998903       0.74999496       0.74327702 </v>
    <v>       0.25000050       0.00000100       0.74325596 </v>
    <v>       0.25000052       0.50000100       0.74325596 </v>
    <v>       0.75000050       0.00000100       0.74325596 </v>
    <v>       0.75000049       0.50000100       0.74325596 </v>
    <v>       0.70677723       0.38049335       0.49500318 </v>
    <v>       0.65055448       0.35095681       0.50799614 </v>
    <v>       0.68888972       0.43828490       0.48104980 </v>
    <v>       0.57899295       0.38064031       0.50749610 </v>
    <v>       0.61722529       0.46724003       0.48032984 </v>
    <v>       0.56206364       0.43932058       0.49377283 </v>
    <v>       0.76206882       0.47604711       0.53275719 </v>
    <v>       0.69553520       0.58545123       0.54767131 </v>
    <v>       0.79236927       0.52521687       0.56907262 </v>
    <v>       0.82781294       0.59764750       0.53655129 </v>
    <v>       0.83297037       0.43170541       0.52910387 </v>
    <v>       0.81888579       0.35502062       0.51904785 </v>
    <v>       0.65579687       0.60050175       0.52680941 </v>
    <v>       0.74360664       0.46713306       0.57931735 </v>
    <v>       0.85908108       0.65406227       0.55210780 </v>
    <v>       0.78514416       0.35150717       0.49644698 </v>
    <v>       0.05532370       0.24642486       0.56478197 </v>
    <v>       0.03510365       0.70871866       0.57554126 </v>
    <v>       0.53448445       0.20546908       0.56220589 </v>
    <v>       0.48443447       0.69589458       0.56554183 </v>
    <v>       0.44215805       0.29608949       0.56098965 </v>
    <v>       0.48060778       0.82360800       0.56112920 </v>
    <v>       0.92707039       0.24743263       0.56373611 </v>
    <v>       0.98085075       0.81689857       0.56278566 </v>
    <v>       0.23352261       0.46516872       0.56560013 </v>
    <v>       0.19132247       0.01571013       0.56169615 </v>
    <v>       0.70215362       0.98602748       0.56620761 </v>
    <v>       0.31879999       0.03047135       0.55980118 </v>
    <v>       0.29693523       0.57518440       0.55896672 </v>
    <v>       0.81863800       0.04155704       0.56497677 </v>
    <v>       0.05319867       0.19900903       0.65817779 </v>
    <v>       0.06006289       0.71611958       0.65816790 </v>
    <v>       0.54922392       0.20564051       0.65817626 </v>
    <v>       0.53728763       0.70375832       0.65923030 </v>
    <v>       0.21354317       0.44699855       0.65797071 </v>
    <v>       0.20219869       0.96040224       0.65664336 </v>
    <v>       0.69877508       0.46739636       0.65979737 </v>
    <v>       0.70861760       0.95281680       0.65875664 </v>
    <v>       0.45669560       0.29587822       0.65746451 </v>
    <v>       0.45128532       0.80025879       0.65657352 </v>
    <v>       0.95495680       0.28280707       0.65913733 </v>
    <v>       0.94329023       0.76931475       0.66105220 </v>
    <v>       0.30150641       0.04394370       0.65598002 </v>
    <v>       0.29481205       0.54755336       0.65921700 </v>
    <v>       0.79638604       0.04809074       0.65837772 </v>
    <v>       0.81798358       0.51453521       0.65615626 </v>
    <v>       0.04586250       0.20411950       0.75272599 </v>
    <v>       0.04586250       0.70411946       0.75272599 </v>
    <v>       0.54586251       0.20411950       0.75272599 </v>
    <v>       0.54586250       0.70411946       0.75272599 </v>
    <v>       0.20411900       0.45410100       0.75270499 </v>
    <v>       0.20411899       0.95410095       0.75270499 </v>
    <v>       0.70411898       0.45410100       0.75270499 </v>
    <v>       0.70411896       0.95410095       0.75270499 </v>
    <v>       0.45414002       0.29588849       0.75272697 </v>
    <v>       0.45414001       0.79588852       0.75272697 </v>
    <v>       0.95414002       0.29588849       0.75272697 </v>
    <v>       0.95414006       0.79588852       0.75272697 </v>
    <v>       0.29588249       0.04590050       0.75270499 </v>
    <v>       0.29588248       0.54590053       0.75270499 </v>
    <v>       0.79588244       0.04590050       0.75270499 </v>
    <v>       0.79588248       0.54590053       0.75270499 </v>
    <v>       0.76976069       0.54578105       0.54624787 </v>
    <v>       0.51022779       0.01282211       0.55143634 </v>
    <v>       0.48428434       0.50294580       0.55434885 </v>
    <v>       0.00340223       0.00913507       0.55163493 </v>
    <v>       0.02918755       0.50372261       0.55503985 </v>
    <v>       0.25126252       0.24725315       0.55282236 </v>
    <v>       0.24820211       0.76668674       0.55272225 </v>
    <v>       0.73329779       0.21074435       0.55590013 </v>
    <v>       0.69950047       0.79596697       0.55492404 </v>
    <v>       0.99537180       0.98445417       0.65436660 </v>
    <v>       0.01458894       0.49480766       0.65578503 </v>
    <v>       0.49908743       0.00437420       0.65435988 </v>
    <v>       0.50214416       0.49565016       0.65487293 </v>
    <v>       0.25679110       0.24443050       0.65438198 </v>
    <v>       0.25495820       0.75510456       0.65448375 </v>
    <v>       0.74708245       0.26670540       0.65503629 </v>
    <v>       0.74605713       0.74278992       0.65463045 </v>
    <v>       0.12963545       0.12184631       0.60742233 </v>
    <v>       0.15332046       0.60577640       0.60853718 </v>
    <v>       0.64037487       0.11370530       0.61062769 </v>
    <v>       0.62978697       0.62015865       0.60899552 </v>
    <v>       0.36436158       0.38741869       0.60731428 </v>
    <v>       0.37257930       0.88254459       0.60634399 </v>
    <v>       0.88765535       0.37059500       0.60913392 </v>
    <v>       0.86780876       0.88164782       0.60620676 </v>
    <v>       0.12285492       0.36529690       0.60822596 </v>
    <v>       0.12313099       0.87575724       0.60680283 </v>
    <v>       0.59641226       0.34728497       0.60156887 </v>
    <v>       0.61525733       0.86693722       0.61288192 </v>
    <v>       0.38577943       0.13290193       0.60600439 </v>
    <v>       0.38438661       0.63297154       0.61086998 </v>
    <v>       0.88232761       0.13609463       0.61273584 </v>
    <v>       0.90227796       0.64256093       0.61482506 </v>
    <v>       0.00000000       0.00000000       0.75492797 </v>
    <v>       0.00000000       0.50000000       0.75492797 </v>
    <v>       0.50000000       0.00000000       0.75492797 </v>
    <v>       0.49999999       0.50000000       0.75492797 </v>
    <v>       0.25000050       0.25000000       0.75493902 </v>
    <v>       0.25000051       0.74999997       0.75493902 </v>
    <v>       0.75000047       0.25000000       0.75493902 </v>
    <v>       0.75000046       0.74999997       0.75493902 </v>
    <v>       0.13579050       0.11421000       0.70478299 </v>
    <v>       0.13579050       0.61420998       0.70478299 </v>
    <v>       0.63579045       0.11421000       0.70478299 </v>
    <v>       0.63579049       0.61420998       0.70478299 </v>
    <v>       0.36420952       0.38578999       0.70478299 </v>
    <v>       0.36420950       0.88578996       0.70478299 </v>
    <v>       0.86420954       0.38578999       0.70478299 </v>
    <v>       0.86420953       0.88578996       0.70478299 </v>
    <v>       0.11421799       0.36421899       0.70478098 </v>
    <v>       0.11421799       0.86421899       0.70478098 </v>
    <v>       0.61421800       0.36421899       0.70478098 </v>
    <v>       0.61421799       0.86421899       0.70478098 </v>
    <v>       0.38578201       0.13578149       0.70478202 </v>
    <v>       0.38578200       0.63578149       0.70478202 </v>
    <v>       0.88578199       0.13578149       0.70478202 </v>
    <v>       0.88578203       0.63578149       0.70478202 </v>
    <v>       0.13466700       0.11533200       0.80125603 </v>
    <v>       0.13466699       0.61533199       0.80125603 </v>
    <v>       0.63466699       0.11533200       0.80125603 </v>
    <v>       0.63466698       0.61533199       0.80125603 </v>
    <v>       0.36533300       0.38466799       0.80125603 </v>
    <v>       0.36533299       0.88466796       0.80125603 </v>
    <v>       0.86533295       0.38466799       0.80125603 </v>
    <v>       0.86533294       0.88466796       0.80125603 </v>
    <v>       0.11532850       0.36533700       0.80126500 </v>
    <v>       0.11532850       0.86533698       0.80126500 </v>
    <v>       0.61532850       0.36533700       0.80126500 </v>
    <v>       0.61532849       0.86533698       0.80126500 </v>
    <v>       0.38467151       0.13466300       0.80126500 </v>
    <v>       0.38467150       0.63466297       0.80126500 </v>
    <v>       0.88467149       0.13466300       0.80126500 </v>
    <v>       0.88467153       0.63466297       0.80126500 </v>
    <v>       0.99707735       0.00401259       0.60481109 </v>
    <v>       0.00671705       0.50384388       0.60477788 </v>
    <v>       0.50341055       0.00238835       0.60444017 </v>
    <v>       0.50261594       0.49985380       0.60409641 </v>
    <v>       0.25313414       0.25083903       0.60411753 </v>
    <v>       0.24838970       0.75190323       0.60346115 </v>
    <v>       0.74666430       0.25451317       0.60513294 </v>
    <v>       0.74231474       0.75696647       0.60375119 </v>
    <v>       0.00000050       0.00000050       0.70482896 </v>
    <v>       0.00000050       0.50000048       0.70482896 </v>
    <v>       0.50000048       0.00000050       0.70482896 </v>
    <v>       0.50000046       0.50000048       0.70482896 </v>
    <v>       0.24999999       0.24999947       0.70482499 </v>
    <v>       0.25000001       0.74999950       0.70482499 </v>
    <v>       0.74999999       0.24999947       0.70482499 </v>
    <v>       0.74999998       0.74999950       0.70482499 </v>
    <v>       0.00000000       0.00000000       0.80731797 </v>
    <v>       0.00000000       0.50000000       0.80731797 </v>
    <v>       0.50000000       0.00000000       0.80731797 </v>
    <v>       0.49999999       0.50000000       0.80731797 </v>
    <v>       0.24999999       0.25000000       0.80731797 </v>
    <v>       0.25000001       0.74999997       0.80731797 </v>
    <v>       0.74999999       0.25000000       0.80731797 </v>
    <v>       0.74999998       0.74999997       0.80731797 </v>
   </varray>
  </structure>
  <varray name="primitive_index" >
   <v type="int" >        1 </v>
   <v type="int" >        2 </v>
   <v type="int" >        3 </v>
   <v type="int" >        4 </v>
   <v type="int" >        5 </v>
   <v type="int" >        6 </v>
   <v type="int" >        7 </v>
   <v type="int" >        8 </v>
   <v type="int" >        9 </v>
   <v type="int" >       10 </v>
   <v type="int" >       11 </v>
   <v type="int" >       12 </v>
   <v type="int" >       13 </v>
   <v type="int" >       14 </v>
   <v type="int" >       15 </v>
   <v type="int" >       16 </v>
   <v type="int" >       17 </v>
   <v type="int" >       18 </v>
   <v type="int" >       19 </v>
   <v type="int" >       20 </v>
   <v type="int" >       21 </v>
   <v type="int" >       22 </v>
   <v type="int" >       23 </v>
   <v type="int" >       24 </v>
   <v type="int" >       25 </v>
   <v type="int" >       26 </v>
   <v type="int" >       27 </v>
   <v type="int" >       28 </v>
   <v type="int" >       29 </v>
   <v type="int" >       30 </v>
   <v type="int" >       31 </v>
   <v type="int" >       32 </v>
   <v type="int" >       33 </v>
   <v type="int" >       34 </v>
   <v type="int" >       35 </v>
   <v type="int" >       36 </v>
   <v type="int" >       37 </v>
   <v type="int" >       38 </v>
   <v type="int" >       39 </v>
   <v type="int" >       40 </v>
   <v type="int" >       41 </v>
   <v type="int" >       42 </v>
   <v type="int" >       43 </v>
   <v type="int" >       44 </v>
   <v type="int" >       45 </v>
   <v type="int" >       46 </v>
   <v type="int" >       47 </v>
   <v type="int" >       48 </v>
   <v type="int" >       49 </v>
   <v type="int" >       50 </v>
   <v type="int" >       51 </v>
   <v type="int" >       52 </v>
   <v type="int" >       53 </v>
   <v type="int" >       54 </v>
   <v type="int" >       55 </v>
   <v type="int" >       56 </v>
   <v type="int" >       57 </v>
   <v type="int" >       58 </v>
   <v type="int" >       59 </v>
   <v type="int" >       60 </v>
   <v type="int" >       61 </v>
   <v type="int" >       62 </v>
   <v type="int" >       63 </v>
   <v type="int" >       64 </v>
   <v type="int" >       65 </v>
   <v type="int" >       66 </v>
   <v type="int" >       67 </v>
   <v type="int" >       68 </v>
   <v type="int" >       69 </v>
   <v type="int" >       70 </v>
   <v type="int" >       71 </v>
   <v type="int" >       72 </v>
   <v type="int" >       73 </v>
   <v type="int" >       74 </v>
   <v type="int" >       75 </v>
   <v type="int" >       76 </v>
   <v type="int" >       77 </v>
   <v type="int" >       78 </v>
   <v type="int" >       79 </v>
   <v type="int" >       80 </v>
   <v type="int" >       81 </v>
   <v type="int" >       82 </v>
   <v type="int" >       83 </v>
   <v type="int" >       84 </v>
   <v type="int" >       85 </v>
   <v type="int" >       86 </v>
   <v type="int" >       87 </v>
   <v type="int" >       88 </v>
   <v type="int" >       89 </v>
   <v type="int" >       90 </v>
   <v type="int" >       91 </v>
   <v type="int" >       92 </v>
   <v type="int" >       93 </v>
   <v type="int" >       94 </v>
   <v type="int" >       95 </v>
   <v type="int" >       96 </v>
   <v type="int" >       97 </v>
   <v type="int" >       98 </v>
   <v type="int" >       99 </v>
   <v type="int" >      100 </v>
   <v type="int" >      101 </v>
   <v type="int" >      102 </v>
   <v type="int" >      103 </v>
   <v type="int" >      104 </v>
   <v type="int" >      105 </v>
   <v type="int" >      106 </v>
   <v type="int" >      107 </v>
   <v type="int" >      108 </v>
   <v type="int" >      109 </v>
   <v type="int" >      110 </v>
   <v type="int" >      111 </v>
   <v type="int" >      112 </v>
   <v type="int" >      113 </v>
   <v type="int" >      114 </v>
   <v type="int" >      115 </v>
   <v type="int" >      116 </v>
   <v type="int" >      117 </v>
   <v type="int" >      118 </v>
   <v type="int" >      119 </v>
   <v type="int" >      120 </v>
   <v type="int" >      121 </v>
   <v type="int" >      122 </v>
   <v type="int" >      123 </v>
   <v type="int" >      124 </v>
   <v type="int" >      125 </v>
   <v type="int" >      126 </v>
   <v type="int" >      127 </v>
   <v type="int" >      128 </v>
   <v type="int" >      129 </v>
   <v type="int" >      130 </v>
   <v type="int" >      131 </v>
   <v type="int" >      132 </v>
   <v type="int" >      133 </v>
   <v type="int" >      134 </v>
   <v type="int" >      135 </v>
   <v type="int" >      136 </v>
   <v type="int" >      137 </v>
   <v type="int" >      138 </v>
   <v type="int" >      139 </v>
   <v type="int" >      140 </v>
   <v type="int" >      141 </v>
   <v type="int" >      142 </v>
   <v type="int" >      143 </v>
   <v type="int" >      144 </v>
   <v type="int" >      145 </v>
   <v type="int" >      146 </v>
   <v type="int" >      147 </v>
   <v type="int" >      148 </v>
   <v type="int" >      149 </v>
   <v type="int" >      150 </v>
   <v type="int" >      151 </v>
   <v type="int" >      152 </v>
   <v type="int" >      153 </v>
   <v type="int" >      154 </v>
   <v type="int" >      155 </v>
   <v type="int" >      156 </v>
   <v type="int" >      157 </v>
   <v type="int" >      158 </v>
   <v type="int" >      159 </v>
   <v type="int" >      160 </v>
   <v type="int" >      161 </v>
   <v type="int" >      162 </v>
   <v type="int" >      163 </v>
   <v type="int" >      164 </v>
   <v type="int" >      165 </v>
   <v type="int" >      166 </v>
   <v type="int" >      167 </v>
   <v type="int" >      168 </v>
   <v type="int" >      169 </v>
   <v type="int" >      170 </v>
   <v type="int" >      171 </v>
   <v type="int" >      172 </v>
   <v type="int" >      173 </v>
   <v type="int" >      174 </v>
   <v type="int" >      175 </v>
   <v type="int" >      176 </v>
   <v type="int" >      177 </v>
   <v type="int" >      178 </v>
   <v type="int" >      179 </v>
   <v type="int" >      180 </v>
   <v type="int" >      181 </v>
   <v type="int" >      182 </v>
   <v type="int" >      183 </v>
   <v type="int" >      184 </v>
   <v type="int" >      185 </v>
   <v type="int" >      186 </v>
   <v type="int" >      187 </v>
   <v type="int" >      188 </v>
   <v type="int" >      189 </v>
   <v type="int" >      190 </v>
   <v type="int" >      191 </v>
   <v type="int" >      192 </v>
   <v type="int" >      193 </v>
   <v type="int" >      194 </v>
   <v type="int" >      195 </v>
   <v type="int" >      196 </v>
   <v type="int" >      197 </v>
   <v type="int" >      198 </v>
   <v type="int" >      199 </v>
   <v type="int" >      200 </v>
   <v type="int" >      201 </v>
   <v type="int" >      202 </v>
   <v type="int" >      203 </v>
   <v type="int" >      204 </v>
   <v type="int" >      205 </v>
   <v type="int" >      206 </v>
   <v type="int" >      207 </v>
   <v type="int" >      208 </v>
   <v type="int" >      209 </v>
   <v type="int" >      210 </v>
   <v type="int" >      211 </v>
   <v type="int" >      212 </v>
   <v type="int" >      213 </v>
   <v type="int" >      214 </v>
   <v type="int" >      215 </v>
   <v type="int" >      216 </v>
   <v type="int" >      217 </v>
   <v type="int" >      218 </v>
   <v type="int" >      219 </v>
   <v type="int" >      220 </v>
   <v type="int" >      221 </v>
   <v type="int" >      222 </v>
   <v type="int" >      223 </v>
   <v type="int" >      224 </v>
   <v type="int" >      225 </v>
   <v type="int" >      226 </v>
   <v type="int" >      227 </v>
   <v type="int" >      228 </v>
   <v type="int" >      229 </v>
   <v type="int" >      230 </v>
   <v type="int" >      231 </v>
   <v type="int" >      232 </v>
   <v type="int" >      233 </v>
   <v type="int" >      234 </v>
   <v type="int" >      235 </v>
   <v type="int" >      236 </v>
   <v type="int" >      237 </v>
   <v type="int" >      238 </v>
   <v type="int" >      239 </v>
   <v type="int" >      240 </v>
   <v type="int" >      241 </v>
   <v type="int" >      242 </v>
   <v type="int" >      243 </v>
   <v type="int" >      244 </v>
   <v type="int" >      245 </v>
   <v type="int" >      246 </v>
   <v type="int" >      247 </v>
   <v type="int" >      248 </v>
   <v type="int" >      249 </v>
   <v type="int" >      250 </v>
   <v type="int" >      251 </v>
   <v type="int" >      252 </v>
   <v type="int" >      253 </v>
   <v type="int" >      254 </v>
   <v type="int" >      255 </v>
   <v type="int" >      256 </v>
   <v type="int" >      257 </v>
   <v type="int" >      258 </v>
   <v type="int" >      259 </v>
   <v type="int" >      260 </v>
   <v type="int" >      261 </v>
   <v type="int" >      262 </v>
   <v type="int" >      263 </v>
   <v type="int" >      264 </v>
   <v type="int" >      265 </v>
   <v type="int" >      266 </v>
   <v type="int" >      267 </v>
   <v type="int" >      268 </v>
   <v type="int" >      269 </v>
   <v type="int" >      270 </v>
   <v type="int" >      271 </v>
   <v type="int" >      272 </v>
   <v type="int" >      273 </v>
   <v type="int" >      274 </v>
   <v type="int" >      275 </v>
   <v type="int" >      276 </v>
   <v type="int" >      277 </v>
   <v type="int" >      278 </v>
   <v type="int" >      279 </v>
   <v type="int" >      280 </v>
   <v type="int" >      281 </v>
   <v type="int" >      282 </v>
   <v type="int" >      283 </v>
   <v type="int" >      284 </v>
   <v type="int" >      285 </v>
   <v type="int" >      286 </v>
   <v type="int" >      287 </v>
   <v type="int" >      288 </v>
   <v type="int" >      289 </v>
   <v type="int" >      290 </v>
   <v type="int" >      291 </v>
   <v type="int" >      292 </v>
   <v type="int" >      293 </v>
   <v type="int" >      294 </v>
   <v type="int" >      295 </v>
   <v type="int" >      296 </v>
   <v type="int" >      297 </v>
   <v type="int" >      298 </v>
   <v type="int" >      299 </v>
   <v type="int" >      300 </v>
   <v type="int" >      301 </v>
   <v type="int" >      302 </v>
   <v type="int" >      303 </v>
   <v type="int" >      304 </v>
   <v type="int" >      305 </v>
   <v type="int" >      306 </v>
   <v type="int" >      307 </v>
   <v type="int" >      308 </v>
   <v type="int" >      309 </v>
   <v type="int" >      310 </v>
   <v type="int" >      311 </v>
   <v type="int" >      312 </v>
   <v type="int" >      313 </v>
   <v type="int" >      314 </v>
   <v type="int" >      315 </v>
   <v type="int" >      316 </v>
   <v type="int" >      317 </v>
   <v type="int" >      318 </v>
   <v type="int" >      319 </v>
   <v type="int" >      320 </v>
   <v type="int" >      321 </v>
   <v type="int" >      322 </v>
   <v type="int" >      323 </v>
   <v type="int" >      324 </v>
   <v type="int" >      325 </v>
  </varray>
 </primitive_cell>
 <kpoints>
  <generation param="Gamma">
   <v type="int" name="divisions">       3        3        1 </v>
   <v name="usershift">      0.00000000       0.00000000       0.00000000 </v>
   <v name="genvec1">      0.33333333       0.00000000       0.00000000 </v>
   <v name="genvec2">      0.00000000       0.33333333       0.00000000 </v>
   <v name="genvec3">      0.00000000       0.00000000       1.00000000 </v>
   <v name="shift">      0.00000000       0.00000000       0.00000000 </v>
  </generation>
  <varray name="kpointlist" >
   <v>       0.00000000       0.00000000       0.00000000 </v>
   <v>       0.33333333       0.00000000       0.00000000 </v>
   <v>       0.00000000       0.33333333       0.00000000 </v>
   <v>       0.33333333       0.33333333       0.00000000 </v>
   <v>      -0.33333333       0.33333333       0.00000000 </v>
  </varray>
  <varray name="weights" >
   <v>       0.11111111 </v>
   <v>       0.22222222 </v>
   <v>       0.22222222 </v>
   <v>       0.22222222 </v>
   <v>       0.22222222 </v>
  </varray>
 </kpoints>
 <parameters>
  <separator name="general" >
   <i type="string" name="SYSTEM">PSC</i>
   <i type="logical" name="LCOMPAT"> F  </i>
  </separator>
  <separator name="electronic" >
   <i type="string" name="PREC">normal</i>
   <i name="ENMAX">    500.00000000</i>
   <i name="ENAUG">    644.87300000</i>
   <i name="EDIFF">      0.00010000</i>
   <i type="int" name="IALGO">    38</i>
   <i type="int" name="IWAVPR">    10</i>
   <i type="int" name="NBANDS">   732</i>
   <i type="int" name="NBANDSLOW">    -1</i>
   <i type="int" name="NBANDSHIGH">    -1</i>
   <i name="NELECT">   1134.00000000</i>
   <i type="int" name="TURBO">     0</i>
   <i type="int" name="IRESTART">     0</i>
   <i type="int" name="NREBOOT">     0</i>
   <i type="int" name="NMIN">     0</i>
   <i name="EREF">      0.00000000</i>
   <separator name="electronic smearing" >
    <i type="int" name="ISMEAR">     0</i>
    <i name="SIGMA">      0.05000000</i>
    <i name="KSPACING">      0.50000000</i>
    <i type="logical" name="KGAMMA"> T  </i>
    <i type="logical" name="KBLOWUP"> T  </i>
   </separator>
   <separator name="electronic projectors" >
    <i type="logical" name="LREAL"> T  </i>
    <v name="ROPT">     -0.00050000     -0.00050000     -0.00050000     -0.00050000     -0.00050000</v>
    <i type="int" name="LMAXPAW">  -100</i>
    <i type="int" name="LMAXMIX">     2</i>
    <i type="logical" name="NLSPLINE"> F  </i>
   </separator>
   <separator name="electronic startup" >
    <i type="int" name="ISTART">     0</i>
    <i type="int" name="ICHARG">     1</i>
    <i type="int" name="INIWAV">     1</i>
   </separator>
   <separator name="electronic spin" >
    <i type="int" name="ISPIN">     1</i>
    <i type="logical" name="LNONCOLLINEAR"> F  </i>
    <v name="MAGMOM">      1.00000000      1.00000000      1.00000000      1.00000000      1.00000000      1.00000000      1.00000000      1.00000000      1.00000000      1.00000000      1.00000000      1.00000000      1.00000000      1.00000000      1.00000000      1.00000000      1.00000000      1.00000000      1.00000000      1.00000000
      1.00000000      1.00000000      1.00000000      1.00000000      1.00000000      1.00000000      1.00000000      1.00000000      1.00000000      1.00000000      1.00000000      1.00000000      1.00000000      1.00000000      1.00000000      1.00000000      1.00000000      1.00000000      1.00000000      1.00000000
      1.00000000      1.00000000      1.00000000      1.00000000      1.00000000      1.00000000      1.00000000      1.00000000      1.00000000      1.00000000      1.00000000      1.00000000      1.00000000      1.00000000      1.00000000      1.00000000      1.00000000      1.00000000      1.00000000      1.00000000
      1.00000000      1.00000000      1.00000000      1.00000000      1.00000000      1.00000000      1.00000000      1.00000000      1.00000000      1.00000000      1.00000000      1.00000000      1.00000000      1.00000000      1.00000000      1.00000000      1.00000000      1.00000000      1.00000000      1.00000000
      1.00000000      1.00000000      1.00000000      1.00000000      1.00000000      1.00000000      1.00000000      1.00000000      1.00000000      1.00000000      1.00000000      1.00000000      1.00000000      1.00000000      1.00000000      1.00000000      1.00000000      1.00000000      1.00000000      1.00000000
      1.00000000      1.00000000      1.00000000      1.00000000      1.00000000      1.00000000      1.00000000      1.00000000      1.00000000      1.00000000      1.00000000      1.00000000      1.00000000      1.00000000      1.00000000      1.00000000      1.00000000      1.00000000      1.00000000      1.00000000
      1.00000000      1.00000000      1.00000000      1.00000000      1.00000000      1.00000000      1.00000000      1.00000000      1.00000000      1.00000000      1.00000000      1.00000000      1.00000000      1.00000000      1.00000000      1.00000000      1.00000000      1.00000000      1.00000000      1.00000000
      1.00000000      1.00000000      1.00000000      1.00000000      1.00000000      1.00000000      1.00000000      1.00000000      1.00000000      1.00000000      1.00000000      1.00000000      1.00000000      1.00000000      1.00000000      1.00000000      1.00000000      1.00000000      1.00000000      1.00000000
      1.00000000      1.00000000      1.00000000      1.00000000      1.00000000      1.00000000      1.00000000      1.00000000      1.00000000      1.00000000      1.00000000      1.00000000      1.00000000      1.00000000      1.00000000      1.00000000      1.00000000      1.00000000      1.00000000      1.00000000
      1.00000000      1.00000000      1.00000000      1.00000000      1.00000000      1.00000000      1.00000000      1.00000000      1.00000000      1.00000000      1.00000000      1.00000000      1.00000000      1.00000000      1.00000000      1.00000000      1.00000000      1.00000000      1.00000000      1.00000000
      1.00000000      1.00000000      1.00000000      1.00000000      1.00000000      1.00000000      1.00000000      1.00000000      1.00000000      1.00000000      1.00000000      1.00000000      1.00000000      1.00000000      1.00000000      1.00000000      1.00000000      1.00000000      1.00000000      1.00000000
      1.00000000      1.00000000      1.00000000      1.00000000      1.00000000      1.00000000      1.00000000      1.00000000      1.00000000      1.00000000      1.00000000      1.00000000      1.00000000      1.00000000      1.00000000      1.00000000      1.00000000      1.00000000      1.00000000      1.00000000
      1.00000000      1.00000000      1.00000000      1.00000000      1.00000000      1.00000000      1.00000000      1.00000000      1.00000000      1.00000000      1.00000000      1.00000000      1.00000000      1.00000000      1.00000000      1.00000000      1.00000000      1.00000000      1.00000000      1.00000000
      1.00000000      1.00000000      1.00000000      1.00000000      1.00000000      1.00000000      1.00000000      1.00000000      1.00000000      1.00000000      1.00000000      1.00000000      1.00000000      1.00000000      1.00000000      1.00000000      1.00000000      1.00000000      1.00000000      1.00000000
      1.00000000      1.00000000      1.00000000      1.00000000      1.00000000      1.00000000      1.00000000      1.00000000      1.00000000      1.00000000      1.00000000      1.00000000      1.00000000      1.00000000      1.00000000      1.00000000      1.00000000      1.00000000      1.00000000      1.00000000
      1.00000000      1.00000000      1.00000000      1.00000000      1.00000000      1.00000000      1.00000000      1.00000000      1.00000000      1.00000000      1.00000000      1.00000000      1.00000000      1.00000000      1.00000000      1.00000000      1.00000000      1.00000000      1.00000000      1.00000000
      1.00000000      1.00000000      1.00000000      1.00000000      1.00000000</v>
    <i name="NUPDOWN">     -1.00000000</i>
    <i type="logical" name="LSORBIT"> F  </i>
    <v name="SAXIS">      0.00000000      0.00000000      1.00000000</v>
    <i type="logical" name="LSPIRAL"> F  </i>
    <v name="QSPIRAL">      0.00000000      0.00000000      0.00000000</v>
    <i type="logical" name="LZEROZ"> F  </i>
   </separator>
   <separator name="electronic exchange-correlation" >
    <i type="logical" name="LASPH"> F  </i>
    <i type="logical" name="LMETAGGA"> F  </i>
   </separator>
   <separator name="electronic convergence" >
    <i type="int" name="NELM">   600</i>
    <i type="int" name="NELMDL">     0</i>
    <i type="int" name="NELMIN">     2</i>
    <i name="ENINI">    500.00000000</i>
    <separator name="electronic convergence detail" >
     <i type="logical" name="LDIAG"> T  </i>
     <i type="logical" name="LSUBROT"> F  </i>
     <i name="WEIMIN">      0.00000000</i>
     <i name="EBREAK">      0.00000003</i>
     <i name="DEPER">      0.30000000</i>
     <i type="int" name="NRMM">     4</i>
     <i name="TIME">      0.40000000</i>
    </separator>
   </separator>
   <separator name="electronic mixer" >
    <i name="AMIX">      0.40000000</i>
    <i name="BMIX">      0.01000000</i>
    <i name="AMIN">      0.01000000</i>
    <i name="AMIX_MAG">      1.60000000</i>
    <i name="BMIX_MAG">      0.01000000</i>
    <separator name="electronic mixer details" >
     <i type="int" name="IMIX">     4</i>
     <i type="logical" name="MIXFIRST"> F  </i>
     <i type="int" name="MAXMIX">   -45</i>
     <i name="WC">    100.00000000</i>
     <i type="int" name="INIMIX">     1</i>
     <i type="int" name="MIXPRE">     1</i>
     <i type="int" name="MREMOVE">     5</i>
    </separator>
   </separator>
   <separator name="electronic dipolcorrection" >
    <i type="logical" name="LDIPOL"> T  </i>
    <i type="logical" name="LMONO"> F  </i>
    <i type="int" name="IDIPOL">     3</i>
    <i name="EPSILON">      1.00000000</i>
    <v name="DIPOL">   -100.00000000   -100.00000000   -100.00000000</v>
    <i name="EFIELD">      0.00000000</i>
   </separator>
  </separator>
  <separator name="grids" >
   <i type="int" name="NGX">   100</i>
   <i type="int" name="NGY">   100</i>
   <i type="int" name="NGZ">   350</i>
   <i type="int" name="NGXF">   200</i>
   <i type="int" name="NGYF">   200</i>
   <i type="int" name="NGZF">   700</i>
   <i type="logical" name="ADDGRID"> F  </i>
  </separator>
  <separator name="ionic" >
   <i type="int" name="NSW">     0</i>
   <i type="int" name="IBRION">    -1</i>
   <i type="int" name="MDALGO">     0</i>
   <i type="int" name="ISIF">     2</i>
   <i name="PSTRESS">      0.00000000</i>
   <i name="EDIFFG">      0.00100000</i>
   <i type="int" name="NFREE">     0</i>
   <i name="POTIM">      0.50000000</i>
   <i name="SMASS">     -3.00000000</i>
   <i name="SCALEE">      1.00000000</i>
  </separator>
  <separator name="ionic md" >
   <i name="TEBEG">      0.00010000</i>
   <i name="TEEND">      0.00010000</i>
   <i type="int" name="NBLOCK">     1</i>
   <i type="int" name="KBLOCK">     1</i>
   <i type="int" name="NPACO">   256</i>
   <i name="APACO">     16.00000000</i>
  </separator>
  <separator name="symmetry" >
   <i type="int" name="ISYM">     0</i>
   <i name="SYMPREC">      0.00001000</i>
  </separator>
  <separator name="dos" >
   <i type="int" name="LORBIT">     0</i>
   <v name="RWIGS">     -1.00000000     -1.00000000     -1.00000000     -1.00000000     -1.00000000</v>
   <i type="int" name="NEDOS">   301</i>
   <i name="EMIN">     10.00000000</i>
   <i name="EMAX">    -10.00000000</i>
   <i name="EFERMI">      0.00000000</i>
  </separator>
  <separator name="writing" >
   <i type="int" name="NWRITE">     2</i>
   <i type="logical" name="LWAVE"> F  </i>
   <i type="logical" name="LDOWNSAMPLE"> F  </i>
   <i type="logical" name="LCHARG"> T  </i>
   <i type="logical" name="LPARD"> F  </i>
   <i type="logical" name="LVTOT"> T  </i>
   <i type="logical" name="LVHAR"> F  </i>
   <i type="logical" name="LELF"> F  </i>
   <i type="logical" name="LOPTICS"> F  </i>
   <v name="STM">      0.00000000      0.00000000      0.00000000      0.00000000      0.00000000      0.00000000      0.00000000</v>
  </separator>
  <separator name="performance" >
   <i type="int" name="NPAR">     4</i>
   <i type="int" name="NSIM">     4</i>
   <i type="int" name="NBLK">    -1</i>
   <i type="logical" name="LPLANE"> T  </i>
   <i type="logical" name="LSCALAPACK"> T  </i>
   <i type="logical" name="LSCAAWARE"> F  </i>
   <i type="logical" name="LSCALU"> F  </i>
   <i type="logical" name="LASYNC"> F  </i>
   <i type="logical" name="LORBITALREAL"> F  </i>
  </separator>
  <separator name="miscellaneous" >
   <i type="int" name="IDIOT">     3</i>
   <i type="int" name="PHON_NSTRUCT">    -1</i>
   <i type="logical" name="LMUSIC"> F  </i>
   <v name="POMASS">      1.00000000     12.01100000     14.00100000    126.90400000    207.20000000</v>
   <v name="DARWINR">      0.00000000      0.00000000      0.00000000      0.00000000      0.00000000</v>
   <v name="DARWINV">      1.00000000      1.00000000      1.00000000      1.00000000      1.00000000</v>
   <i type="logical" name="LCORR"> T  </i>
  </separator>
  <i type="logical" name="GGA_COMPAT"> F  </i>
  <i type="logical" name="LBERRY"> F  </i>
  <i type="int" name="ICORELEVEL">     0</i>
  <i type="logical" name="LDAU"> F  </i>
  <i type="int" name="I_CONSTRAINED_M">     0</i>
  <separator name="electronic exchange-correlation" >
   <i type="string" name="GGA">--</i>
   <i type="int" name="VOSKOWN">     0</i>
   <i type="logical" name="LHFCALC"> F  </i>
   <i type="string" name="PRECFOCK"></i>
   <i type="logical" name="LSYMGRAD"> F  </i>
   <i type="logical" name="LHFONE"> F  </i>
   <i type="logical" name="LRHFCALC"> F  </i>
   <i type="logical" name="LTHOMAS"> F  </i>
   <i type="logical" name="LMODELHF"> F  </i>
   <i type="logical" name="LFOCKACE"> F  </i>
   <i name="ENCUT4O">     -1.00000000</i>
   <i type="int" name="EXXOEP">     0</i>
   <i type="int" name="FOURORBIT">     0</i>
   <i name="AEXX">      0.00000000</i>
   <i name="HFALPHA">      0.00000000</i>
   <i name="MCALPHA">      0.00000000</i>
   <i name="ALDAX">      1.00000000</i>
   <i name="AGGAX">      1.00000000</i>
   <i name="ALDAC">      1.00000000</i>
   <i name="AGGAC">      1.00000000</i>
   <i type="int" name="NKREDX">     1</i>
   <i type="int" name="NKREDY">     1</i>
   <i type="int" name="NKREDZ">     1</i>
   <i type="logical" name="SHIFTRED"> F  </i>
   <i type="logical" name="ODDONLY"> F  </i>
   <i type="logical" name="EVENONLY"> F  </i>
   <i type="int" name="LMAXFOCK">     0</i>
   <i type="int" name="NMAXFOCKAE">     0</i>
   <i type="logical" name="LFOCKAEDFT"> F  </i>
   <i name="HFSCREEN">      0.00000000</i>
   <i name="HFSCREENC">      0.00000000</i>
   <i type="int" name="NBANDSGWLOW">     0</i>
  </separator>
  <separator name="vdW DFT" >
   <i type="logical" name="LUSE_VDW"> F  </i>
   <i name="Zab_VDW">     -0.84910000</i>
   <i name="PARAM1">      0.12340000</i>
   <i name="PARAM2">      1.00000000</i>
   <i name="PARAM3">      0.00000000</i>
  </separator>
  <separator name="model GW" >
   <i type="int" name="MODEL_GW">     0</i>
   <i name="MODEL_EPS0">     37.63423484</i>
   <i name="MODEL_ALPHA">      1.00000000</i>
  </separator>
  <separator name="linear response parameters" >
   <i type="logical" name="LEPSILON"> F  </i>
   <i type="logical" name="LRPA"> F  </i>
   <i type="logical" name="LNABLA"> F  </i>
   <i type="logical" name="LVEL"> F  </i>
   <i type="int" name="KINTER">     0</i>
   <i name="CSHIFT">      0.10000000</i>
   <i name="OMEGAMAX">     -1.00000000</i>
   <i name="DEG_THRESHOLD">      0.00200000</i>
   <i name="RTIME">     -0.10000000</i>
   <i name="WPLASMAI">      0.00000000</i>
   <v name="DFIELD">      0.00000000      0.00000000      0.00000000</v>
   <v name="WPLASMA">      0.00000000      0.00000000      0.00000000      0.00000000      0.00000000      0.00000000      0.00000000      0.00000000      0.00000000</v>
  </separator>
  <separator name="orbital magnetization" >
   <i type="logical" name="NUCIND"> F  </i>
   <v name="MAGPOS">      0.00000000      0.00000000      0.00000000</v>
   <i type="logical" name="LNICSALL"> T  </i>
   <i type="logical" name="ORBITALMAG"> F  </i>
   <i type="logical" name="LMAGBLOCH"> F  </i>
   <i type="logical" name="LCHIMAG"> F  </i>
   <i type="logical" name="LGAUGE"> T  </i>
   <i type="int" name="MAGATOM">     0</i>
   <v name="MAGDIPOL">      0.00000000      0.00000000      0.00000000</v>
   <v name="AVECCONST">      0.00000000      0.00000000      0.00000000</v>
  </separator>
  <separator name="response functions" >
   <i type="logical" name="LFINITE_TEMPERATURE"> F  </i>
   <i type="logical" name="LADDER"> F  </i>
   <i type="logical" name="LRPAFORCE"> F  </i>
   <i type="logical" name="LFXC"> F  </i>
   <i type="logical" name="LHARTREE"> T  </i>
   <i type="int" name="IBSE">     0</i>
   <v type="int" name="KPOINT">    -1     0     0     0</v>
   <i type="logical" name="LTCTC"> F  </i>
   <i type="logical" name="LTCTE"> F  </i>
   <i type="logical" name="LTETE"> F  </i>
   <i type="logical" name="LTRIPLET"> F  </i>
   <i type="logical" name="LFXCEPS"> F  </i>
   <i type="logical" name="LFXHEG"> F  </i>
   <i type="int" name="NATURALO">     2</i>
   <i type="logical" name="LHOLEGF"> F  </i>
   <i type="logical" name="L2ORDER"> F  </i>
   <i type="logical" name="LDMP1"> F  </i>
   <i type="logical" name="LMP2LT"> F  </i>
   <i type="logical" name="LSMP2LT"> F  </i>
   <i type="logical" name="LGWLF"> F  </i>
   <i name="ENCUTGW">     -2.00000000</i>
   <i name="ENCUTGWSOFT">     -2.00000000</i>
   <i name="ENCUTLF">     -1.00000000</i>
   <i type="logical" name="LESF_SPLINES"> F  </i>
   <i type="int" name="LMAXMP2">    -1</i>
   <i name="SCISSOR">      0.00000000</i>
   <i type="int" name="NOMEGA">     0</i>
   <i type="int" name="NOMEGAR">     0</i>
   <i type="int" name="NBANDSGW">    -1</i>
   <i type="int" name="NBANDSO">    -1</i>
   <i type="int" name="NBANDSV">    -1</i>
   <i type="int" name="NELM">   600</i>
   <i type="int" name="NELMHF">     1</i>
   <i type="int" name="DIM">     3</i>
   <i type="int" name="IESPILON">     4</i>
   <i type="int" name="ANTIRES">     0</i>
   <i name="OMEGAMAX">    -30.00000000</i>
   <i name="OMEGAMIN">    -30.00000000</i>
   <i name="OMEGATL">   -200.00000000</i>
   <i type="int" name="OMEGAGRID">     0</i>
   <i name="CSHIFT">     -0.10000000</i>
   <i type="logical" name="LSELFENERGY"> F  </i>
   <i type="logical" name="LSPECTRAL"> F  </i>
   <i type="logical" name="LSPECTRALGW"> F  </i>
   <i type="logical" name="LSINGLES"> F  </i>
   <i type="logical" name="LFERMIGW"> F  </i>
   <i type="logical" name="ODDONLYGW"> F  </i>
   <i type="logical" name="EVENONLYGW"> F  </i>
   <i type="int" name="NKREDLFX">     1</i>
   <i type="int" name="NKREDLFY">     1</i>
   <i type="int" name="NKREDLFZ">     1</i>
   <i type="int" name="MAXMEM">  2800</i>
   <i type="int" name="TELESCOPE">     0</i>
   <i type="int" name="NTAUPAR">    -1</i>
   <i type="int" name="NOMEGAPAR">    -1</i>
   <i name="DAMP_NEWTON">      0.80000001</i>
   <i name="LAMBDA">      1.00000000</i>
  </separator>
  <separator name="External order field" >
   <i name="OFIELD_KAPPA">      0.00000000</i>
   <v name="OFIELD_K">      0.00000000      0.00000000      0.00000000</v>
   <i name="OFIELD_Q6_NEAR">      0.00000000</i>
   <i name="OFIELD_Q6_FAR">      0.00000000</i>
   <i name="OFIELD_A">      0.00000000</i>
  </separator>
 </parameters>
 <atominfo>
  <atoms>     325 </atoms>
  <types>       5 </types>
  <array name="atoms" >
   <dimension dim="1">ion</dimension>
   <field type="string">element</field>
   <field type="int">atomtype</field>
   <set>
    <rc><c>H </c><c>   1</c></rc>
    <rc><c>H </c><c>   1</c></rc>
    <rc><c>H </c><c>   1</c></rc>
    <rc><c>H </c><c>   1</c></rc>
    <rc><c>H </c><c>   1</c></rc>
    <rc><c>H </c><c>   1</c></rc>
    <rc><c>H </c><c>   1</c></rc>
    <rc><c>H </c><c>   1</c></rc>
    <rc><c>H </c><c>   1</c></rc>
    <rc><c>H </c><c>   1</c></rc>
    <rc><c>H </c><c>   1</c></rc>
    <rc><c>H </c><c>   1</c></rc>
    <rc><c>H </c><c>   1</c></rc>
    <rc><c>H </c><c>   1</c></rc>
    <rc><c>H </c><c>   1</c></rc>
    <rc><c>H </c><c>   1</c></rc>
    <rc><c>H </c><c>   1</c></rc>
    <rc><c>H </c><c>   1</c></rc>
    <rc><c>H </c><c>   1</c></rc>
    <rc><c>H </c><c>   1</c></rc>
    <rc><c>H </c><c>   1</c></rc>
    <rc><c>H </c><c>   1</c></rc>
    <rc><c>H </c><c>   1</c></rc>
    <rc><c>H </c><c>   1</c></rc>
    <rc><c>H </c><c>   1</c></rc>
    <rc><c>H </c><c>   1</c></rc>
    <rc><c>H </c><c>   1</c></rc>
    <rc><c>H </c><c>   1</c></rc>
    <rc><c>H </c><c>   1</c></rc>
    <rc><c>H </c><c>   1</c></rc>
    <rc><c>H </c><c>   1</c></rc>
    <rc><c>H </c><c>   1</c></rc>
    <rc><c>H </c><c>   1</c></rc>
    <rc><c>H </c><c>   1</c></rc>
    <rc><c>H </c><c>   1</c></rc>
    <rc><c>H </c><c>   1</c></rc>
    <rc><c>H </c><c>   1</c></rc>
    <rc><c>H </c><c>   1</c></rc>
    <rc><c>H </c><c>   1</c></rc>
    <rc><c>H </c><c>   1</c></rc>
    <rc><c>H </c><c>   1</c></rc>
    <rc><c>H </c><c>   1</c></rc>
    <rc><c>H </c><c>   1</c></rc>
    <rc><c>H </c><c>   1</c></rc>
    <rc><c>H </c><c>   1</c></rc>
    <rc><c>H </c><c>   1</c></rc>
    <rc><c>H </c><c>   1</c></rc>
    <rc><c>H </c><c>   1</c></rc>
    <rc><c>H </c><c>   1</c></rc>
    <rc><c>H </c><c>   1</c></rc>
    <rc><c>H </c><c>   1</c></rc>
    <rc><c>H </c><c>   1</c></rc>
    <rc><c>H </c><c>   1</c></rc>
    <rc><c>H </c><c>   1</c></rc>
    <rc><c>H </c><c>   1</c></rc>
    <rc><c>H </c><c>   1</c></rc>
    <rc><c>H </c><c>   1</c></rc>
    <rc><c>H </c><c>   1</c></rc>
    <rc><c>H </c><c>   1</c></rc>
    <rc><c>H </c><c>   1</c></rc>
    <rc><c>H </c><c>   1</c></rc>
    <rc><c>H </c><c>   1</c></rc>
    <rc><c>H </c><c>   1</c></rc>
    <rc><c>H </c><c>   1</c></rc>
    <rc><c>H </c><c>   1</c></rc>
    <rc><c>H </c><c>   1</c></rc>
    <rc><c>H </c><c>   1</c></rc>
    <rc><c>H </c><c>   1</c></rc>
    <rc><c>H </c><c>   1</c></rc>
    <rc><c>H </c><c>   1</c></rc>
    <rc><c>H </c><c>   1</c></rc>
    <rc><c>H </c><c>   1</c></rc>
    <rc><c>H </c><c>   1</c></rc>
    <rc><c>H </c><c>   1</c></rc>
    <rc><c>H </c><c>   1</c></rc>
    <rc><c>H </c><c>   1</c></rc>
    <rc><c>H </c><c>   1</c></rc>
    <rc><c>H </c><c>   1</c></rc>
    <rc><c>H </c><c>   1</c></rc>
    <rc><c>H </c><c>   1</c></rc>
    <rc><c>H </c><c>   1</c></rc>
    <rc><c>H </c><c>   1</c></rc>
    <rc><c>H </c><c>   1</c></rc>
    <rc><c>H </c><c>   1</c></rc>
    <rc><c>H </c><c>   1</c></rc>
    <rc><c>H </c><c>   1</c></rc>
    <rc><c>H </c><c>   1</c></rc>
    <rc><c>H </c><c>   1</c></rc>
    <rc><c>H </c><c>   1</c></rc>
    <rc><c>H </c><c>   1</c></rc>
    <rc><c>H </c><c>   1</c></rc>
    <rc><c>H </c><c>   1</c></rc>
    <rc><c>H </c><c>   1</c></rc>
    <rc><c>H </c><c>   1</c></rc>
    <rc><c>H </c><c>   1</c></rc>
    <rc><c>H </c><c>   1</c></rc>
    <rc><c>H </c><c>   1</c></rc>
    <rc><c>H </c><c>   1</c></rc>
    <rc><c>H </c><c>   1</c></rc>
    <rc><c>H </c><c>   1</c></rc>
    <rc><c>H </c><c>   1</c></rc>
    <rc><c>H </c><c>   1</c></rc>
    <rc><c>H </c><c>   1</c></rc>
    <rc><c>H </c><c>   1</c></rc>
    <rc><c>H </c><c>   1</c></rc>
    <rc><c>H </c><c>   1</c></rc>
    <rc><c>H </c><c>   1</c></rc>
    <rc><c>H </c><c>   1</c></rc>
    <rc><c>H </c><c>   1</c></rc>
    <rc><c>H </c><c>   1</c></rc>
    <rc><c>H </c><c>   1</c></rc>
    <rc><c>H </c><c>   1</c></rc>
    <rc><c>H </c><c>   1</c></rc>
    <rc><c>H </c><c>   1</c></rc>
    <rc><c>H </c><c>   1</c></rc>
    <rc><c>H </c><c>   1</c></rc>
    <rc><c>H </c><c>   1</c></rc>
    <rc><c>H </c><c>   1</c></rc>
    <rc><c>H </c><c>   1</c></rc>
    <rc><c>H </c><c>   1</c></rc>
    <rc><c>H </c><c>   1</c></rc>
    <rc><c>H </c><c>   1</c></rc>
    <rc><c>H </c><c>   1</c></rc>
    <rc><c>H </c><c>   1</c></rc>
    <rc><c>H </c><c>   1</c></rc>
    <rc><c>H </c><c>   1</c></rc>
    <rc><c>H </c><c>   1</c></rc>
    <rc><c>H </c><c>   1</c></rc>
    <rc><c>H </c><c>   1</c></rc>
    <rc><c>H </c><c>   1</c></rc>
    <rc><c>H </c><c>   1</c></rc>
    <rc><c>H </c><c>   1</c></rc>
    <rc><c>H </c><c>   1</c></rc>
    <rc><c>H </c><c>   1</c></rc>
    <rc><c>H </c><c>   1</c></rc>
    <rc><c>H </c><c>   1</c></rc>
    <rc><c>H </c><c>   1</c></rc>
    <rc><c>H </c><c>   1</c></rc>
    <rc><c>H </c><c>   1</c></rc>
    <rc><c>H </c><c>   1</c></rc>
    <rc><c>H </c><c>   1</c></rc>
    <rc><c>H </c><c>   1</c></rc>
    <rc><c>H </c><c>   1</c></rc>
    <rc><c>C </c><c>   2</c></rc>
    <rc><c>C </c><c>   2</c></rc>
    <rc><c>C </c><c>   2</c></rc>
    <rc><c>C </c><c>   2</c></rc>
    <rc><c>C </c><c>   2</c></rc>
    <rc><c>C </c><c>   2</c></rc>
    <rc><c>C </c><c>   2</c></rc>
    <rc><c>C </c><c>   2</c></rc>
    <rc><c>C </c><c>   2</c></rc>
    <rc><c>C </c><c>   2</c></rc>
    <rc><c>C </c><c>   2</c></rc>
    <rc><c>C </c><c>   2</c></rc>
    <rc><c>C </c><c>   2</c></rc>
    <rc><c>C </c><c>   2</c></rc>
    <rc><c>C </c><c>   2</c></rc>
    <rc><c>C </c><c>   2</c></rc>
    <rc><c>C </c><c>   2</c></rc>
    <rc><c>C </c><c>   2</c></rc>
    <rc><c>C </c><c>   2</c></rc>
    <rc><c>C </c><c>   2</c></rc>
    <rc><c>C </c><c>   2</c></rc>
    <rc><c>C </c><c>   2</c></rc>
    <rc><c>C </c><c>   2</c></rc>
    <rc><c>C </c><c>   2</c></rc>
    <rc><c>C </c><c>   2</c></rc>
    <rc><c>C </c><c>   2</c></rc>
    <rc><c>C </c><c>   2</c></rc>
    <rc><c>C </c><c>   2</c></rc>
    <rc><c>C </c><c>   2</c></rc>
    <rc><c>C </c><c>   2</c></rc>
    <rc><c>C </c><c>   2</c></rc>
    <rc><c>C </c><c>   2</c></rc>
    <rc><c>C </c><c>   2</c></rc>
    <rc><c>C </c><c>   2</c></rc>
    <rc><c>C </c><c>   2</c></rc>
    <rc><c>C </c><c>   2</c></rc>
    <rc><c>C </c><c>   2</c></rc>
    <rc><c>C </c><c>   2</c></rc>
    <rc><c>C </c><c>   2</c></rc>
    <rc><c>N </c><c>   3</c></rc>
    <rc><c>N </c><c>   3</c></rc>
    <rc><c>N </c><c>   3</c></rc>
    <rc><c>N </c><c>   3</c></rc>
    <rc><c>N </c><c>   3</c></rc>
    <rc><c>N </c><c>   3</c></rc>
    <rc><c>N </c><c>   3</c></rc>
    <rc><c>N </c><c>   3</c></rc>
    <rc><c>N </c><c>   3</c></rc>
    <rc><c>N </c><c>   3</c></rc>
    <rc><c>N </c><c>   3</c></rc>
    <rc><c>N </c><c>   3</c></rc>
    <rc><c>N </c><c>   3</c></rc>
    <rc><c>N </c><c>   3</c></rc>
    <rc><c>N </c><c>   3</c></rc>
    <rc><c>N </c><c>   3</c></rc>
    <rc><c>N </c><c>   3</c></rc>
    <rc><c>N </c><c>   3</c></rc>
    <rc><c>N </c><c>   3</c></rc>
    <rc><c>N </c><c>   3</c></rc>
    <rc><c>N </c><c>   3</c></rc>
    <rc><c>N </c><c>   3</c></rc>
    <rc><c>N </c><c>   3</c></rc>
    <rc><c>N </c><c>   3</c></rc>
    <rc><c>N </c><c>   3</c></rc>
    <rc><c>N </c><c>   3</c></rc>
    <rc><c>N </c><c>   3</c></rc>
    <rc><c>N </c><c>   3</c></rc>
    <rc><c>N </c><c>   3</c></rc>
    <rc><c>N </c><c>   3</c></rc>
    <rc><c>N </c><c>   3</c></rc>
    <rc><c>N </c><c>   3</c></rc>
    <rc><c>N </c><c>   3</c></rc>
    <rc><c>N </c><c>   3</c></rc>
    <rc><c>N </c><c>   3</c></rc>
    <rc><c>N </c><c>   3</c></rc>
    <rc><c>N </c><c>   3</c></rc>
    <rc><c>N </c><c>   3</c></rc>
    <rc><c>N </c><c>   3</c></rc>
    <rc><c>N </c><c>   3</c></rc>
    <rc><c>N </c><c>   3</c></rc>
    <rc><c>N </c><c>   3</c></rc>
    <rc><c>N </c><c>   3</c></rc>
    <rc><c>N </c><c>   3</c></rc>
    <rc><c>N </c><c>   3</c></rc>
    <rc><c>N </c><c>   3</c></rc>
    <rc><c>N </c><c>   3</c></rc>
    <rc><c>I </c><c>   4</c></rc>
    <rc><c>I </c><c>   4</c></rc>
    <rc><c>I </c><c>   4</c></rc>
    <rc><c>I </c><c>   4</c></rc>
    <rc><c>I </c><c>   4</c></rc>
    <rc><c>I </c><c>   4</c></rc>
    <rc><c>I </c><c>   4</c></rc>
    <rc><c>I </c><c>   4</c></rc>
    <rc><c>I </c><c>   4</c></rc>
    <rc><c>I </c><c>   4</c></rc>
    <rc><c>I </c><c>   4</c></rc>
    <rc><c>I </c><c>   4</c></rc>
    <rc><c>I </c><c>   4</c></rc>
    <rc><c>I </c><c>   4</c></rc>
    <rc><c>I </c><c>   4</c></rc>
    <rc><c>I </c><c>   4</c></rc>
    <rc><c>I </c><c>   4</c></rc>
    <rc><c>I </c><c>   4</c></rc>
    <rc><c>I </c><c>   4</c></rc>
    <rc><c>I </c><c>   4</c></rc>
    <rc><c>I </c><c>   4</c></rc>
    <rc><c>I </c><c>   4</c></rc>
    <rc><c>I </c><c>   4</c></rc>
    <rc><c>I </c><c>   4</c></rc>
    <rc><c>I </c><c>   4</c></rc>
    <rc><c>I </c><c>   4</c></rc>
    <rc><c>I </c><c>   4</c></rc>
    <rc><c>I </c><c>   4</c></rc>
    <rc><c>I </c><c>   4</c></rc>
    <rc><c>I </c><c>   4</c></rc>
    <rc><c>I </c><c>   4</c></rc>
    <rc><c>I </c><c>   4</c></rc>
    <rc><c>I </c><c>   4</c></rc>
    <rc><c>I </c><c>   4</c></rc>
    <rc><c>I </c><c>   4</c></rc>
    <rc><c>I </c><c>   4</c></rc>
    <rc><c>I </c><c>   4</c></rc>
    <rc><c>I </c><c>   4</c></rc>
    <rc><c>I </c><c>   4</c></rc>
    <rc><c>I </c><c>   4</c></rc>
    <rc><c>I </c><c>   4</c></rc>
    <rc><c>I </c><c>   4</c></rc>
    <rc><c>I </c><c>   4</c></rc>
    <rc><c>I </c><c>   4</c></rc>
    <rc><c>I </c><c>   4</c></rc>
    <rc><c>I </c><c>   4</c></rc>
    <rc><c>I </c><c>   4</c></rc>
    <rc><c>I </c><c>   4</c></rc>
    <rc><c>I </c><c>   4</c></rc>
    <rc><c>I </c><c>   4</c></rc>
    <rc><c>I </c><c>   4</c></rc>
    <rc><c>I </c><c>   4</c></rc>
    <rc><c>I </c><c>   4</c></rc>
    <rc><c>I </c><c>   4</c></rc>
    <rc><c>I </c><c>   4</c></rc>
    <rc><c>I </c><c>   4</c></rc>
    <rc><c>I </c><c>   4</c></rc>
    <rc><c>I </c><c>   4</c></rc>
    <rc><c>I </c><c>   4</c></rc>
    <rc><c>I </c><c>   4</c></rc>
    <rc><c>I </c><c>   4</c></rc>
    <rc><c>I </c><c>   4</c></rc>
    <rc><c>I </c><c>   4</c></rc>
    <rc><c>I </c><c>   4</c></rc>
    <rc><c>I </c><c>   4</c></rc>
    <rc><c>I </c><c>   4</c></rc>
    <rc><c>I </c><c>   4</c></rc>
    <rc><c>I </c><c>   4</c></rc>
    <rc><c>I </c><c>   4</c></rc>
    <rc><c>I </c><c>   4</c></rc>
    <rc><c>I </c><c>   4</c></rc>
    <rc><c>I </c><c>   4</c></rc>
    <rc><c>Pb</c><c>   5</c></rc>
    <rc><c>Pb</c><c>   5</c></rc>
    <rc><c>Pb</c><c>   5</c></rc>
    <rc><c>Pb</c><c>   5</c></rc>
    <rc><c>Pb</c><c>   5</c></rc>
    <rc><c>Pb</c><c>   5</c></rc>
    <rc><c>Pb</c><c>   5</c></rc>
    <rc><c>Pb</c><c>   5</c></rc>
    <rc><c>Pb</c><c>   5</c></rc>
    <rc><c>Pb</c><c>   5</c></rc>
    <rc><c>Pb</c><c>   5</c></rc>
    <rc><c>Pb</c><c>   5</c></rc>
    <rc><c>Pb</c><c>   5</c></rc>
    <rc><c>Pb</c><c>   5</c></rc>
    <rc><c>Pb</c><c>   5</c></rc>
    <rc><c>Pb</c><c>   5</c></rc>
    <rc><c>Pb</c><c>   5</c></rc>
    <rc><c>Pb</c><c>   5</c></rc>
    <rc><c>Pb</c><c>   5</c></rc>
    <rc><c>Pb</c><c>   5</c></rc>
    <rc><c>Pb</c><c>   5</c></rc>
    <rc><c>Pb</c><c>   5</c></rc>
    <rc><c>Pb</c><c>   5</c></rc>
    <rc><c>Pb</c><c>   5</c></rc>
   </set>
  </array>
  <array name="atomtypes" >
   <dimension dim="1">type</dimension>
   <field type="int">atomspertype</field>
   <field type="string">element</field>
   <field>mass</field>
   <field>valence</field>
   <field type="string">pseudopotential</field>
   <set>
    <rc><c> 143</c><c>H </c><c>      1.00000000</c><c>      1.00000000</c><c>  PAW_PBE H 15Jun2001                   </c></rc>
    <rc><c>  39</c><c>C </c><c>     12.01100000</c><c>      4.00000000</c><c>  PAW_PBE C 08Apr2002                   </c></rc>
    <rc><c>  47</c><c>N </c><c>     14.00100000</c><c>      5.00000000</c><c>  PAW_PBE N 08Apr2002                   </c></rc>
    <rc><c>  72</c><c>I </c><c>    126.90400000</c><c>      7.00000000</c><c>  PAW_PBE I 08Apr2002                   </c></rc>
    <rc><c>  24</c><c>Pb</c><c>    207.20000000</c><c>      4.00000000</c><c>  PAW_PBE Pb 08Apr2002                  </c></rc>
   </set>
  </array>
 </atominfo>
 <structure name="initialpos" >
  <crystal>
   <varray name="basis" >
    <v>      18.06080055       0.00000000       0.00000000 </v>
    <v>      -0.00491865      18.06279945       0.00000000 </v>
    <v>       0.00000000       0.00000000      62.48749924 </v>
   </varray>
   <i name="volume">  20385.21054034 </i>
   <varray name="rec_basis" >
    <v>       0.05536853       0.00001508      -0.00000000 </v>
    <v>       0.00000000       0.05536240       0.00000000 </v>
    <v>       0.00000000      -0.00000000       0.01600320 </v>
   </varray>
  </crystal>
  <varray name="positions" >
   <v>       0.47355443       0.33671616       0.56813970 </v>
   <v>       0.44641832       0.83229955       0.57404243 </v>
   <v>       0.92294208       0.25354690       0.58002434 </v>
   <v>       0.93998577       0.81884691       0.57433906 </v>
   <v>       0.31868919       0.07653026       0.56945679 </v>
   <v>       0.34794615       0.55494340       0.56356945 </v>
   <v>       0.80010281       0.09298875       0.56998058 </v>
   <v>       0.10534671       0.24677905       0.55711961 </v>
   <v>       0.07928824       0.67403205       0.57511973 </v>
   <v>       0.54524582       0.14985887       0.56066750 </v>
   <v>       0.50021558       0.64500271       0.55998468 </v>
   <v>       0.36965005       0.01198176       0.55514051 </v>
   <v>       0.29354405       0.63032743       0.55521084 </v>
   <v>       0.87301234       0.03569983       0.56078447 </v>
   <v>       0.05779713       0.25499223       0.58099188 </v>
   <v>       0.99419778       0.69624030       0.58647155 </v>
   <v>       0.57399548       0.23876066       0.56915937 </v>
   <v>       0.45114396       0.69535203       0.57891718 </v>
   <v>       0.27733255       0.43929655       0.57288424 </v>
   <v>       0.18271492       0.06001386       0.57185132 </v>
   <v>       0.67707066       0.03021224       0.57341755 </v>
   <v>       0.38701961       0.30627536       0.55853743 </v>
   <v>       0.50232157       0.87060117       0.55418750 </v>
   <v>       0.87782420       0.23979919       0.55580483 </v>
   <v>       0.98884577       0.86666706       0.55512135 </v>
   <v>       0.18395925       0.43892771       0.56598442 </v>
   <v>       0.14453396       0.98675978       0.55813684 </v>
   <v>       0.67351086       0.93754091       0.56466049 </v>
   <v>       0.42737414       0.18780848       0.55165966 </v>
   <v>       0.54410389       0.75420103       0.54267885 </v>
   <v>       0.99363121       0.23483016       0.53714912 </v>
   <v>       0.08288781       0.77662015       0.55323541 </v>
   <v>       0.18449136       0.55985105       0.55436442 </v>
   <v>       0.26142651       0.94233063       0.54670969 </v>
   <v>       0.79531488       0.93392853       0.55588694 </v>
   <v>       0.45655218       0.30591916       0.67346881 </v>
   <v>       0.44285451       0.80787465       0.67255639 </v>
   <v>       0.94354064       0.27711764       0.67502790 </v>
   <v>       0.92317368       0.73031789       0.67170607 </v>
   <v>       0.30754534       0.04946236       0.67201313 </v>
   <v>       0.29568382       0.55389120       0.67539449 </v>
   <v>       0.80046104       0.05405113       0.67445961 </v>
   <v>       0.84258668       0.47139658       0.66375831 </v>
   <v>       0.09234682       0.17358389       0.64877716 </v>
   <v>       0.11251840       0.71908618       0.65166739 </v>
   <v>       0.58047303       0.16907228       0.64945717 </v>
   <v>       0.57125371       0.66919937       0.65110844 </v>
   <v>       0.18580728       0.41103122       0.64835020 </v>
   <v>       0.16627333       0.92987453       0.64759773 </v>
   <v>       0.64261182       0.47483197       0.65790857 </v>
   <v>       0.67678100       0.91802862       0.64966021 </v>
   <v>       0.05384688       0.18649975       0.67407605 </v>
   <v>       0.05245877       0.67473405       0.66913292 </v>
   <v>       0.55774505       0.20548653       0.67426566 </v>
   <v>       0.53824690       0.70041702       0.67557146 </v>
   <v>       0.20246732       0.44334416       0.67399351 </v>
   <v>       0.19821132       0.95571913       0.67281316 </v>
   <v>       0.71596368       0.42004744       0.66733971 </v>
   <v>       0.70260730       0.95049481       0.67496514 </v>
   <v>       0.41997974       0.32476918       0.64826375 </v>
   <v>       0.42228305       0.83371100       0.64640981 </v>
   <v>       0.92272966       0.31831086       0.65030182 </v>
   <v>       0.90688445       0.80838035       0.65580347 </v>
   <v>       0.33636027       0.07403312       0.64650956 </v>
   <v>       0.32546293       0.58410980       0.65051268 </v>
   <v>       0.82895192       0.08115165       0.64896324 </v>
   <v>       0.85087369       0.55544498       0.65030457 </v>
   <v>       0.01319934       0.25740232       0.63216978 </v>
   <v>       0.02670930       0.80775955       0.64152712 </v>
   <v>       0.49611388       0.24065119       0.63089474 </v>
   <v>       0.50145709       0.74851419       0.63108338 </v>
   <v>       0.24987865       0.00064643       0.62938724 </v>
   <v>       0.26160339       0.49556341       0.63178060 </v>
   <v>       0.75394097       0.99690211       0.63163567 </v>
   <v>       0.72350131       0.56616529       0.64523550 </v>
   <v>       0.44874502       0.30128397       0.76888902 </v>
   <v>       0.44874501       0.80128391       0.76888902 </v>
   <v>       0.94874497       0.30128397       0.76888902 </v>
   <v>       0.94874501       0.80128391       0.76888902 </v>
   <v>       0.30127600       0.05129450       0.76887296 </v>
   <v>       0.30127601       0.55129450       0.76887296 </v>
   <v>       0.80127594       0.05129450       0.76887296 </v>
   <v>       0.80127598       0.55129450       0.76887296 </v>
   <v>       0.07877100       0.17118050       0.74344197 </v>
   <v>       0.07877101       0.67118045       0.74344197 </v>
   <v>       0.57877100       0.17118050       0.74344197 </v>
   <v>       0.57877099       0.67118045       0.74344197 </v>
   <v>       0.17119950       0.42117448       0.74342103 </v>
   <v>       0.17119950       0.92117451       0.74342103 </v>
   <v>       0.67119951       0.42117448       0.74342103 </v>
   <v>       0.67119950       0.92117451       0.74342103 </v>
   <v>       0.05125600       0.19871499       0.76888902 </v>
   <v>       0.05125600       0.69871493       0.76888902 </v>
   <v>       0.55125603       0.19871499       0.76888902 </v>
   <v>       0.55125602       0.69871493       0.76888902 </v>
   <v>       0.19872349       0.44870397       0.76887205 </v>
   <v>       0.19872349       0.94870397       0.76887205 </v>
   <v>       0.69872352       0.44870397       0.76887205 </v>
   <v>       0.69872351       0.94870397       0.76887205 </v>
   <v>       0.42123152       0.32881747       0.74344197 </v>
   <v>       0.42123151       0.82881744       0.74344197 </v>
   <v>       0.92123147       0.32881747       0.74344197 </v>
   <v>       0.92123151       0.82881744       0.74344197 </v>
   <v>       0.32880050       0.07882500       0.74342103 </v>
   <v>       0.32880049       0.57882496       0.74342103 </v>
   <v>       0.82880048       0.07882500       0.74342103 </v>
   <v>       0.82880052       0.57882496       0.74342103 </v>
   <v>       0.00000350       0.25000148       0.72582199 </v>
   <v>       0.00000350       0.75000145       0.72582199 </v>
   <v>       0.50000351       0.25000148       0.72582199 </v>
   <v>       0.50000350       0.75000145       0.72582199 </v>
   <v>       0.25000050       0.00000000       0.72580398 </v>
   <v>       0.25000052       0.50000000       0.72580398 </v>
   <v>       0.75000050       0.00000000       0.72580398 </v>
   <v>       0.75000049       0.50000000       0.72580398 </v>
   <v>       0.72028467       0.44245908       0.54097142 </v>
   <v>       0.73716313       0.49291566       0.51752337 </v>
   <v>       0.66010139       0.55212564       0.55812335 </v>
   <v>       0.70699741       0.63773775       0.55598065 </v>
   <v>       0.85090450       0.50744009       0.56851758 </v>
   <v>       0.78910894       0.57689410       0.57823180 </v>
   <v>       0.87299371       0.56253059       0.53062401 </v>
   <v>       0.79992421       0.62400369       0.52292094 </v>
   <v>       0.87100947       0.46291674       0.51871282 </v>
   <v>       0.86326323       0.42276868       0.54422793 </v>
   <v>       0.87284597       0.32621676       0.51882966 </v>
   <v>       0.78355734       0.32273961       0.52985592 </v>
   <v>       0.63539673       0.55023158       0.51884584 </v>
   <v>       0.68875791       0.63351024       0.51554342 </v>
   <v>       0.60662141       0.63407549       0.53066083 </v>
   <v>       0.75509008       0.46824456       0.59654217 </v>
   <v>       0.75433578       0.41084118       0.57348800 </v>
   <v>       0.68395167       0.47779408       0.57781937 </v>
   <v>       0.81698348       0.69176912       0.55859903 </v>
   <v>       0.89888329       0.68859503       0.54340398 </v>
   <v>       0.88845969       0.62705572       0.56520924 </v>
   <v>       0.82060465       0.38059699       0.48511809 </v>
   <v>       0.78549765       0.29304613       0.49164631 </v>
   <v>       0.66321397       0.30559661       0.51908570 </v>
   <v>       0.73197773       0.46099913       0.47086762 </v>
   <v>       0.53661437       0.35800552       0.51810003 </v>
   <v>       0.60457988       0.51253813       0.46956166 </v>
   <v>       0.50659229       0.46234684       0.49366722 </v>
   <v>       0.99228219       0.24258897       0.55437419 </v>
   <v>       0.03493347       0.76787870       0.56356224 </v>
   <v>       0.46656708       0.22787668       0.55822774 </v>
   <v>       0.50478723       0.75737629       0.55588328 </v>
   <v>       0.23669414       0.53473207       0.55950272 </v>
   <v>       0.25737414       0.99396123       0.55573121 </v>
   <v>       0.77330887       0.98599790       0.56203533 </v>
   <v>       0.00758794       0.24613252       0.64937115 </v>
   <v>       0.01080259       0.76575085       0.65313985 </v>
   <v>       0.50085317       0.24690980       0.64830160 </v>
   <v>       0.49667363       0.75087863       0.64841381 </v>
   <v>       0.25643496       0.49674133       0.64914851 </v>
   <v>       0.25108612       0.00165353       0.64687774 </v>
   <v>       0.74593503       0.51798005       0.65332336 </v>
   <v>       0.75284742       0.99908399       0.64907599 </v>
   <v>       0.49998898       0.24999498       0.74327702 </v>
   <v>       0.49998903       0.74999496       0.74327702 </v>
   <v>       0.99998898       0.24999498       0.74327702 </v>
   <v>       0.99998903       0.74999496       0.74327702 </v>
   <v>       0.25000050       0.00000100       0.74325596 </v>
   <v>       0.25000052       0.50000100       0.74325596 </v>
   <v>       0.75000050       0.00000100       0.74325596 </v>
   <v>       0.75000049       0.50000100       0.74325596 </v>
   <v>       0.70677723       0.38049335       0.49500318 </v>
   <v>       0.65055448       0.35095681       0.50799614 </v>
   <v>       0.68888972       0.43828490       0.48104980 </v>
   <v>       0.57899295       0.38064031       0.50749610 </v>
   <v>       0.61722529       0.46724003       0.48032984 </v>
   <v>       0.56206364       0.43932058       0.49377283 </v>
   <v>       0.76206882       0.47604711       0.53275719 </v>
   <v>       0.69553520       0.58545123       0.54767131 </v>
   <v>       0.79236927       0.52521687       0.56907262 </v>
   <v>       0.82781294       0.59764750       0.53655129 </v>
   <v>       0.83297037       0.43170541       0.52910387 </v>
   <v>       0.81888579       0.35502062       0.51904785 </v>
   <v>       0.65579687       0.60050175       0.52680941 </v>
   <v>       0.74360664       0.46713306       0.57931735 </v>
   <v>       0.85908108       0.65406227       0.55210780 </v>
   <v>       0.78514416       0.35150717       0.49644698 </v>
   <v>       0.05532370       0.24642486       0.56478197 </v>
   <v>       0.03510365       0.70871866       0.57554126 </v>
   <v>       0.53448445       0.20546908       0.56220589 </v>
   <v>       0.48443447       0.69589458       0.56554183 </v>
   <v>       0.44215805       0.29608949       0.56098965 </v>
   <v>       0.48060778       0.82360800       0.56112920 </v>
   <v>       0.92707039       0.24743263       0.56373611 </v>
   <v>       0.98085075       0.81689857       0.56278566 </v>
   <v>       0.23352261       0.46516872       0.56560013 </v>
   <v>       0.19132247       0.01571013       0.56169615 </v>
   <v>       0.70215362       0.98602748       0.56620761 </v>
   <v>       0.31879999       0.03047135       0.55980118 </v>
   <v>       0.29693523       0.57518440       0.55896672 </v>
   <v>       0.81863800       0.04155704       0.56497677 </v>
   <v>       0.05319867       0.19900903       0.65817779 </v>
   <v>       0.06006289       0.71611958       0.65816790 </v>
   <v>       0.54922392       0.20564051       0.65817626 </v>
   <v>       0.53728763       0.70375832       0.65923030 </v>
   <v>       0.21354317       0.44699855       0.65797071 </v>
   <v>       0.20219869       0.96040224       0.65664336 </v>
   <v>       0.69877508       0.46739636       0.65979737 </v>
   <v>       0.70861760       0.95281680       0.65875664 </v>
   <v>       0.45669560       0.29587822       0.65746451 </v>
   <v>       0.45128532       0.80025879       0.65657352 </v>
   <v>       0.95495680       0.28280707       0.65913733 </v>
   <v>       0.94329023       0.76931475       0.66105220 </v>
   <v>       0.30150641       0.04394370       0.65598002 </v>
   <v>       0.29481205       0.54755336       0.65921700 </v>
   <v>       0.79638604       0.04809074       0.65837772 </v>
   <v>       0.81798358       0.51453521       0.65615626 </v>
   <v>       0.04586250       0.20411950       0.75272599 </v>
   <v>       0.04586250       0.70411946       0.75272599 </v>
   <v>       0.54586251       0.20411950       0.75272599 </v>
   <v>       0.54586250       0.70411946       0.75272599 </v>
   <v>       0.20411900       0.45410100       0.75270499 </v>
   <v>       0.20411899       0.95410095       0.75270499 </v>
   <v>       0.70411898       0.45410100       0.75270499 </v>
   <v>       0.70411896       0.95410095       0.75270499 </v>
   <v>       0.45414002       0.29588849       0.75272697 </v>
   <v>       0.45414001       0.79588852       0.75272697 </v>
   <v>       0.95414002       0.29588849       0.75272697 </v>
[...]
   <v>       0.54524582       0.14985887       0.56066750 </v>
   <v>       0.50021558       0.64500271       0.55998468 </v>
   <v>       0.36965005       0.01198176       0.55514051 </v>
   <v>       0.29354405       0.63032743       0.55521084 </v>
   <v>       0.87301234       0.03569983       0.56078447 </v>
   <v>       0.05779713       0.25499223       0.58099188 </v>
   <v>       0.99419778       0.69624030       0.58647155 </v>
   <v>       0.57399548       0.23876066       0.56915937 </v>
   <v>       0.45114396       0.69535203       0.57891718 </v>
   <v>       0.27733255       0.43929655       0.57288424 </v>
   <v>       0.18271492       0.06001386       0.57185132 </v>
   <v>       0.67707066       0.03021224       0.57341755 </v>
   <v>       0.38701961       0.30627536       0.55853743 </v>
   <v>       0.50232157       0.87060117       0.55418750 </v>
   <v>       0.87782420       0.23979919       0.55580483 </v>
   <v>       0.98884577       0.86666706       0.55512135 </v>
   <v>       0.18395925       0.43892771       0.56598442 </v>
   <v>       0.14453396       0.98675978       0.55813684 </v>
   <v>       0.67351086       0.93754091       0.56466049 </v>
   <v>       0.42737414       0.18780848       0.55165966 </v>
   <v>       0.54410389       0.75420103       0.54267885 </v>
   <v>       0.99363121       0.23483016       0.53714912 </v>
   <v>       0.08288781       0.77662015       0.55323541 </v>
   <v>       0.18449136       0.55985105       0.55436442 </v>
   <v>       0.26142651       0.94233063       0.54670969 </v>
   <v>       0.79531488       0.93392853       0.55588694 </v>
   <v>       0.45655218       0.30591916       0.67346881 </v>
   <v>       0.44285451       0.80787465       0.67255639 </v>
   <v>       0.94354064       0.27711764       0.67502790 </v>
   <v>       0.92317368       0.73031789       0.67170607 </v>
   <v>       0.30754534       0.04946236       0.67201313 </v>
   <v>       0.29568382       0.55389120       0.67539449 </v>
   <v>       0.80046104       0.05405113       0.67445961 </v>
   <v>       0.84258668       0.47139658       0.66375831 </v>
   <v>       0.09234682       0.17358389       0.64877716 </v>
   <v>       0.11251840       0.71908618       0.65166739 </v>
   <v>       0.58047303       0.16907228       0.64945717 </v>
   <v>       0.57125371       0.66919937       0.65110844 </v>
   <v>       0.18580728       0.41103122       0.64835020 </v>
   <v>       0.16627333       0.92987453       0.64759773 </v>
   <v>       0.64261182       0.47483197       0.65790857 </v>
   <v>       0.67678100       0.91802862       0.64966021 </v>
   <v>       0.05384688       0.18649975       0.67407605 </v>
   <v>       0.05245877       0.67473405       0.66913292 </v>
   <v>       0.55774505       0.20548653       0.67426566 </v>
   <v>       0.53824690       0.70041702       0.67557146 </v>
   <v>       0.20246732       0.44334416       0.67399351 </v>
   <v>       0.19821132       0.95571913       0.67281316 </v>
   <v>       0.71596368       0.42004744       0.66733971 </v>
   <v>       0.70260730       0.95049481       0.67496514 </v>
   <v>       0.41997974       0.32476918       0.64826375 </v>
   <v>       0.42228305       0.83371100       0.64640981 </v>
   <v>       0.92272966       0.31831086       0.65030182 </v>
   <v>       0.90688445       0.80838035       0.65580347 </v>
   <v>       0.33636027       0.07403312       0.64650956 </v>
   <v>       0.32546293       0.58410980       0.65051268 </v>
   <v>       0.82895192       0.08115165       0.64896324 </v>
   <v>       0.85087369       0.55544498       0.65030457 </v>
   <v>       0.01319934       0.25740232       0.63216978 </v>
   <v>       0.02670930       0.80775955       0.64152712 </v>
   <v>       0.49611388       0.24065119       0.63089474 </v>
   <v>       0.50145709       0.74851419       0.63108338 </v>
   <v>       0.24987865       0.00064643       0.62938724 </v>
   <v>       0.26160339       0.49556341       0.63178060 </v>
   <v>       0.75394097       0.99690211       0.63163567 </v>
   <v>       0.72350131       0.56616529       0.64523550 </v>
   <v>       0.44874502       0.30128397       0.76888902 </v>
   <v>       0.44874501       0.80128391       0.76888902 </v>
   <v>       0.94874497       0.30128397       0.76888902 </v>
   <v>       0.94874501       0.80128391       0.76888902 </v>
   <v>       0.30127600       0.05129450       0.76887296 </v>
   <v>       0.30127601       0.55129450       0.76887296 </v>
   <v>       0.80127594       0.05129450       0.76887296 </v>
   <v>       0.80127598       0.55129450       0.76887296 </v>
   <v>       0.07877100       0.17118050       0.74344197 </v>
   <v>       0.07877101       0.67118045       0.74344197 </v>
   <v>       0.57877100       0.17118050       0.74344197 </v>
   <v>       0.57877099       0.67118045       0.74344197 </v>
   <v>       0.17119950       0.42117448       0.74342103 </v>
   <v>       0.17119950       0.92117451       0.74342103 </v>
   <v>       0.67119951       0.42117448       0.74342103 </v>
   <v>       0.67119950       0.92117451       0.74342103 </v>
   <v>       0.05125600       0.19871499       0.76888902 </v>
   <v>       0.05125600       0.69871493       0.76888902 </v>
   <v>       0.55125603       0.19871499       0.76888902 </v>
   <v>       0.55125602       0.69871493       0.76888902 </v>
   <v>       0.19872349       0.44870397       0.76887205 </v>
   <v>       0.19872349       0.94870397       0.76887205 </v>
   <v>       0.69872352       0.44870397       0.76887205 </v>
   <v>       0.69872351       0.94870397       0.76887205 </v>
   <v>       0.42123152       0.32881747       0.74344197 </v>
   <v>       0.42123151       0.82881744       0.74344197 </v>
   <v>       0.92123147       0.32881747       0.74344197 </v>
   <v>       0.92123151       0.82881744       0.74344197 </v>
   <v>       0.32880050       0.07882500       0.74342103 </v>
   <v>       0.32880049       0.57882496       0.74342103 </v>
   <v>       0.82880048       0.07882500       0.74342103 </v>
   <v>       0.82880052       0.57882496       0.74342103 </v>
   <v>       0.00000350       0.25000148       0.72582199 </v>
   <v>       0.00000350       0.75000145       0.72582199 </v>
   <v>       0.50000351       0.25000148       0.72582199 </v>
   <v>       0.50000350       0.75000145       0.72582199 </v>
   <v>       0.25000050       0.00000000       0.72580398 </v>
   <v>       0.25000052       0.50000000       0.72580398 </v>
   <v>       0.75000050       0.00000000       0.72580398 </v>
   <v>       0.75000049       0.50000000       0.72580398 </v>
   <v>       0.72028467       0.44245908       0.54097142 </v>
   <v>       0.73716313       0.49291566       0.51752337 </v>
   <v>       0.66010139       0.55212564       0.55812335 </v>
   <v>       0.70699741       0.63773775       0.55598065 </v>
   <v>       0.85090450       0.50744009       0.56851758 </v>
   <v>       0.78910894       0.57689410       0.57823180 </v>
   <v>       0.87299371       0.56253059       0.53062401 </v>
   <v>       0.79992421       0.62400369       0.52292094 </v>
   <v>       0.87100947       0.46291674       0.51871282 </v>
   <v>       0.86326323       0.42276868       0.54422793 </v>
   <v>       0.87284597       0.32621676       0.51882966 </v>
   <v>       0.78355734       0.32273961       0.52985592 </v>
   <v>       0.63539673       0.55023158       0.51884584 </v>
   <v>       0.68875791       0.63351024       0.51554342 </v>
   <v>       0.60662141       0.63407549       0.53066083 </v>
   <v>       0.75509008       0.46824456       0.59654217 </v>
   <v>       0.75433578       0.41084118       0.57348800 </v>
   <v>       0.68395167       0.47779408       0.57781937 </v>
   <v>       0.81698348       0.69176912       0.55859903 </v>
   <v>       0.89888329       0.68859503       0.54340398 </v>
   <v>       0.88845969       0.62705572       0.56520924 </v>
   <v>       0.82060465       0.38059699       0.48511809 </v>
   <v>       0.78549765       0.29304613       0.49164631 </v>
   <v>       0.66321397       0.30559661       0.51908570 </v>
   <v>       0.73197773       0.46099913       0.47086762 </v>
   <v>       0.53661437       0.35800552       0.51810003 </v>
   <v>       0.60457988       0.51253813       0.46956166 </v>
   <v>       0.50659229       0.46234684       0.49366722 </v>
   <v>       0.99228219       0.24258897       0.55437419 </v>
   <v>       0.03493347       0.76787870       0.56356224 </v>
   <v>       0.46656708       0.22787668       0.55822774 </v>
   <v>       0.50478723       0.75737629       0.55588328 </v>
   <v>       0.23669414       0.53473207       0.55950272 </v>
   <v>       0.25737414       0.99396123       0.55573121 </v>
   <v>       0.77330887       0.98599790       0.56203533 </v>
   <v>       0.00758794       0.24613252       0.64937115 </v>
   <v>       0.01080259       0.76575085       0.65313985 </v>
   <v>       0.50085317       0.24690980       0.64830160 </v>
   <v>       0.49667363       0.75087863       0.64841381 </v>
   <v>       0.25643496       0.49674133       0.64914851 </v>
   <v>       0.25108612       0.00165353       0.64687774 </v>
   <v>       0.74593503       0.51798005       0.65332336 </v>
   <v>       0.75284742       0.99908399       0.64907599 </v>
   <v>       0.49998898       0.24999498       0.74327702 </v>
   <v>       0.49998903       0.74999496       0.74327702 </v>
   <v>       0.99998898       0.24999498       0.74327702 </v>
   <v>       0.99998903       0.74999496       0.74327702 </v>
   <v>       0.25000050       0.00000100       0.74325596 </v>
   <v>       0.25000052       0.50000100       0.74325596 </v>
   <v>       0.75000050       0.00000100       0.74325596 </v>
   <v>       0.75000049       0.50000100       0.74325596 </v>
   <v>       0.70677723       0.38049335       0.49500318 </v>
   <v>       0.65055448       0.35095681       0.50799614 </v>
   <v>       0.68888972       0.43828490       0.48104980 </v>
   <v>       0.57899295       0.38064031       0.50749610 </v>
   <v>       0.61722529       0.46724003       0.48032984 </v>
   <v>       0.56206364       0.43932058       0.49377283 </v>
   <v>       0.76206882       0.47604711       0.53275719 </v>
   <v>       0.69553520       0.58545123       0.54767131 </v>
   <v>       0.79236927       0.52521687       0.56907262 </v>
   <v>       0.82781294       0.59764750       0.53655129 </v>
   <v>       0.83297037       0.43170541       0.52910387 </v>
   <v>       0.81888579       0.35502062       0.51904785 </v>
   <v>       0.65579687       0.60050175       0.52680941 </v>
   <v>       0.74360664       0.46713306       0.57931735 </v>
   <v>       0.85908108       0.65406227       0.55210780 </v>
   <v>       0.78514416       0.35150717       0.49644698 </v>
   <v>       0.05532370       0.24642486       0.56478197 </v>
   <v>       0.03510365       0.70871866       0.57554126 </v>
   <v>       0.53448445       0.20546908       0.56220589 </v>
   <v>       0.48443447       0.69589458       0.56554183 </v>
   <v>       0.44215805       0.29608949       0.56098965 </v>
   <v>       0.48060778       0.82360800       0.56112920 </v>
   <v>       0.92707039       0.24743263       0.56373611 </v>
   <v>       0.98085075       0.81689857       0.56278566 </v>
   <v>       0.23352261       0.46516872       0.56560013 </v>
   <v>       0.19132247       0.01571013       0.56169615 </v>
   <v>       0.70215362       0.98602748       0.56620761 </v>
   <v>       0.31879999       0.03047135       0.55980118 </v>
   <v>       0.29693523       0.57518440       0.55896672 </v>
   <v>       0.81863800       0.04155704       0.56497677 </v>
   <v>       0.05319867       0.19900903       0.65817779 </v>
   <v>       0.06006289       0.71611958       0.65816790 </v>
   <v>       0.54922392       0.20564051       0.65817626 </v>
   <v>       0.53728763       0.70375832       0.65923030 </v>
   <v>       0.21354317       0.44699855       0.65797071 </v>
   <v>       0.20219869       0.96040224       0.65664336 </v>
   <v>       0.69877508       0.46739636       0.65979737 </v>
   <v>       0.70861760       0.95281680       0.65875664 </v>
   <v>       0.45669560       0.29587822       0.65746451 </v>
   <v>       0.45128532       0.80025879       0.65657352 </v>
   <v>       0.95495680       0.28280707       0.65913733 </v>
   <v>       0.94329023       0.76931475       0.66105220 </v>
   <v>       0.30150641       0.04394370       0.65598002 </v>
   <v>       0.29481205       0.54755336       0.65921700 </v>
   <v>       0.79638604       0.04809074       0.65837772 </v>
   <v>       0.81798358       0.51453521       0.65615626 </v>
   <v>       0.04586250       0.20411950       0.75272599 </v>
   <v>       0.04586250       0.70411946       0.75272599 </v>
   <v>       0.54586251       0.20411950       0.75272599 </v>
   <v>       0.54586250       0.70411946       0.75272599 </v>
   <v>       0.20411900       0.45410100       0.75270499 </v>
   <v>       0.20411899       0.95410095       0.75270499 </v>
   <v>       0.70411898       0.45410100       0.75270499 </v>
   <v>       0.70411896       0.95410095       0.75270499 </v>
   <v>       0.45414002       0.29588849       0.75272697 </v>
   <v>       0.45414001       0.79588852       0.75272697 </v>
   <v>       0.95414002       0.29588849       0.75272697 </v>
   <v>       0.95414006       0.79588852       0.75272697 </v>
   <v>       0.29588249       0.04590050       0.75270499 </v>
   <v>       0.29588248       0.54590053       0.75270499 </v>
   <v>       0.79588244       0.04590050       0.75270499 </v>
   <v>       0.79588248       0.54590053       0.75270499 </v>
   <v>       0.76976069       0.54578105       0.54624787 </v>
   <v>       0.51022779       0.01282211       0.55143634 </v>
   <v>       0.48428434       0.50294580       0.55434885 </v>
   <v>       0.00340223       0.00913507       0.55163493 </v>
   <v>       0.02918755       0.50372261       0.55503985 </v>
   <v>       0.25126252       0.24725315       0.55282236 </v>
   <v>       0.24820211       0.76668674       0.55272225 </v>
   <v>       0.73329779       0.21074435       0.55590013 </v>
   <v>       0.69950047       0.79596697       0.55492404 </v>
   <v>       0.99537180       0.98445417       0.65436660 </v>
   <v>       0.01458894       0.49480766       0.65578503 </v>
   <v>       0.49908743       0.00437420       0.65435988 </v>
   <v>       0.50214416       0.49565016       0.65487293 </v>
   <v>       0.25679110       0.24443050       0.65438198 </v>
   <v>       0.25495820       0.75510456       0.65448375 </v>
   <v>       0.74708245       0.26670540       0.65503629 </v>
   <v>       0.74605713       0.74278992       0.65463045 </v>
   <v>       0.12963545       0.12184631       0.60742233 </v>
   <v>       0.15332046       0.60577640       0.60853718 </v>
   <v>       0.64037487       0.11370530       0.61062769 </v>
   <v>       0.62978697       0.62015865       0.60899552 </v>
   <v>       0.36436158       0.38741869       0.60731428 </v>
   <v>       0.37257930       0.88254459       0.60634399 </v>
   <v>       0.88765535       0.37059500       0.60913392 </v>
   <v>       0.86780876       0.88164782       0.60620676 </v>
   <v>       0.12285492       0.36529690       0.60822596 </v>
   <v>       0.12313099       0.87575724       0.60680283 </v>
   <v>       0.59641226       0.34728497       0.60156887 </v>
   <v>       0.61525733       0.86693722       0.61288192 </v>
   <v>       0.38577943       0.13290193       0.60600439 </v>
   <v>       0.38438661       0.63297154       0.61086998 </v>
   <v>       0.88232761       0.13609463       0.61273584 </v>
   <v>       0.90227796       0.64256093       0.61482506 </v>
   <v>       0.00000000       0.00000000       0.75492797 </v>
   <v>       0.00000000       0.50000000       0.75492797 </v>
   <v>       0.50000000       0.00000000       0.75492797 </v>
   <v>       0.49999999       0.50000000       0.75492797 </v>
   <v>       0.25000050       0.25000000       0.75493902 </v>
   <v>       0.25000051       0.74999997       0.75493902 </v>
   <v>       0.75000047       0.25000000       0.75493902 </v>
   <v>       0.75000046       0.74999997       0.75493902 </v>
   <v>       0.13579050       0.11421000       0.70478299 </v>
   <v>       0.13579050       0.61420998       0.70478299 </v>
   <v>       0.63579045       0.11421000       0.70478299 </v>
   <v>       0.63579049       0.61420998       0.70478299 </v>
   <v>       0.36420952       0.38578999       0.70478299 </v>
   <v>       0.36420950       0.88578996       0.70478299 </v>
   <v>       0.86420954       0.38578999       0.70478299 </v>
   <v>       0.86420953       0.88578996       0.70478299 </v>
   <v>       0.11421799       0.36421899       0.70478098 </v>
   <v>       0.11421799       0.86421899       0.70478098 </v>
   <v>       0.61421800       0.36421899       0.70478098 </v>
   <v>       0.61421799       0.86421899       0.70478098 </v>
   <v>       0.38578201       0.13578149       0.70478202 </v>
   <v>       0.38578200       0.63578149       0.70478202 </v>
   <v>       0.88578199       0.13578149       0.70478202 </v>
   <v>       0.88578203       0.63578149       0.70478202 </v>
   <v>       0.13466700       0.11533200       0.80125603 </v>
   <v>       0.13466699       0.61533199       0.80125603 </v>
   <v>       0.63466699       0.11533200       0.80125603 </v>
   <v>       0.63466698       0.61533199       0.80125603 </v>
   <v>       0.36533300       0.38466799       0.80125603 </v>
   <v>       0.36533299       0.88466796       0.80125603 </v>
   <v>       0.86533295       0.38466799       0.80125603 </v>
   <v>       0.86533294       0.88466796       0.80125603 </v>
   <v>       0.11532850       0.36533700       0.80126500 </v>
   <v>       0.11532850       0.86533698       0.80126500 </v>
   <v>       0.61532850       0.36533700       0.80126500 </v>
   <v>       0.61532849       0.86533698       0.80126500 </v>
   <v>       0.38467151       0.13466300       0.80126500 </v>
   <v>       0.38467150       0.63466297       0.80126500 </v>
   <v>       0.88467149       0.13466300       0.80126500 </v>
   <v>       0.88467153       0.63466297       0.80126500 </v>
   <v>       0.99707735       0.00401259       0.60481109 </v>
   <v>       0.00671705       0.50384388       0.60477788 </v>
   <v>       0.50341055       0.00238835       0.60444017 </v>
   <v>       0.50261594       0.49985380       0.60409641 </v>
   <v>       0.25313414       0.25083903       0.60411753 </v>
   <v>       0.24838970       0.75190323       0.60346115 </v>
   <v>       0.74666430       0.25451317       0.60513294 </v>
   <v>       0.74231474       0.75696647       0.60375119 </v>
   <v>       0.00000050       0.00000050       0.70482896 </v>
   <v>       0.00000050       0.50000048       0.70482896 </v>
   <v>       0.50000048       0.00000050       0.70482896 </v>
   <v>       0.50000046       0.50000048       0.70482896 </v>
   <v>       0.24999999       0.24999947       0.70482499 </v>
   <v>       0.25000001       0.74999950       0.70482499 </v>
   <v>       0.74999999       0.24999947       0.70482499 </v>
   <v>       0.74999998       0.74999950       0.70482499 </v>
   <v>       0.00000000       0.00000000       0.80731797 </v>
   <v>       0.00000000       0.50000000       0.80731797 </v>
   <v>       0.50000000       0.00000000       0.80731797 </v>
   <v>       0.49999999       0.50000000       0.80731797 </v>
   <v>       0.24999999       0.25000000       0.80731797 </v>
   <v>       0.25000001       0.74999997       0.80731797 </v>
   <v>       0.74999999       0.25000000       0.80731797 </v>
   <v>       0.74999998       0.74999997       0.80731797 </v>
  </varray>
 </structure>
</modeling>
