 vasp.6.2.1 16May21 (build Nov 15 2021 14:57:28) complex                         
 executed on             LinuxPGI date 2023.07.30  13:38:15
 running on    4 total cores
 distrk:  each k-point on    4 cores,    1 groups
 distr:  one band on NCORE=   1 cores,    4 groups


--------------------------------------------------------------------------------------------------------


 INCAR:
   SYSTEM = PSC
   ISTART = 1
   ICHARG = 1
   PREC = Normal
   ENCUT = 500
   GGA_COMPAT = F
   NELM = 600
   ISYM = 0
   LREAL = Auto
   ISMEAR = 0
   SIGMA = 0.05
   AMIN = 0.01
   BMIX = 0.01
   LVTOT = T
   LWAVE = F
   LDIPOL = T
   IDIPOL = 3
   LVDW = T
   IVDW = 12

 POTCAR:    PAW_PBE H 15Jun2001                   
 POTCAR:    PAW_PBE C 08Apr2002                   
 POTCAR:    PAW_PBE N 08Apr2002                   
 POTCAR:    PAW_PBE I 08Apr2002                   
 POTCAR:    PAW_PBE Pb 08Apr2002                  
 WARNING: For LVTOT=.TRUE., VASP.5.x writes the TOTAL local potential to the
     file LOCPOT. If you want only the Hartree contributions, use LVHAR=.TRUE.
     instead. 

 POTCAR:    PAW_PBE H 15Jun2001                   
   SHA256 =  030f79b5d3ab3cf0e668861823c8fb652ff669f3e15e46930bd03bfd63a607b6 H/POTCAR              
   COPYR  = (c) Copyright 15Jun2001 Georg Kresse                                                    
   COPYR  = This file is part of the software VASP. Any use, copying, and all other rights are regul
   COPYR  = If you do not have a valid VASP license, you may not use, copy or distribute this file. 
   VRHFIN =H: ultrasoft test                                                                        
   LEXCH  = PE                                                                                      
   EATOM  =    12.4884 eV,    0.9179 Ry                                                             
                                                                                                    
   TITEL  = PAW_PBE H 15Jun2001                                                                     
   LULTRA =        F    use ultrasoft PP ?                                                          
   IUNSCR =        0    unscreen: 0-lin 1-nonlin 2-no                                               
   RPACOR =    0.000    partial core radius                                                         
   POMASS =    1.000; ZVAL   =    1.000    mass and valenz                                          
   RCORE  =    1.100    outmost cutoff radius                                                       
   RWIGS  =    0.700; RWIGS  =    0.370    wigner-seitz radius (au A)                               
   ENMAX  =  250.000; ENMIN  =  200.000 eV                                                          
   RCLOC  =    0.701    cutoff for local pot                                                        
   LCOR   =        T    correct aug charges                                                         
   LPAW   =        T    paw PP                                                                      
   EAUG   =  400.000                                                                                
   RMAX   =    1.123    core radius for proj-oper                                                   
   RAUG   =    1.200    factor for augmentation sphere                                              
   RDEP   =    1.112    radius for radial grids                                                     
   RDEPT  =    0.926    core radius for aug-charge                                                  
                                                                                                    
   Atomic configuration                                                                             
    2 entries                                                                                       
     n  l   j            E        occ.                                                              
     1  0  0.50        -6.4927   1.0000                                                             
     2  1  0.50        -3.4015   0.0000                                                             
   Description                                                                                      
     l       E           TYP  RCUT    TYP  RCUT                                                     
     0     -6.4927494     23  1.100                                                                 
     0      6.8029130     23  1.100                                                                 
     1     -4.0817478     23  1.100                                                                 
  local pseudopotential read in
  atomic valenz-charges read in
  non local Contribution for L=            0  read in
    real space projection operators read in
  non local Contribution for L=            0  read in
    real space projection operators read in
  non local Contribution for L=            1  read in
    real space projection operators read in
    PAW grid and wavefunctions read in
 
   number of l-projection  operators is LMAX  =            3
   number of lm-projection operators is LMMAX =            5
 
 POTCAR:    PAW_PBE C 08Apr2002                   
   SHA256 =  253f7b50bb8d59471dbedb8285d89021f4a42ed1a2c5d38a03a736e69125dd95 C/POTCAR              
   COPYR  = (c) Copyright 08Apr2002 Georg Kresse                                                    
   COPYR  = This file is part of the software VASP. Any use, copying, and all other rights are regul
   COPYR  = If you do not have a valid VASP license, you may not use, copy or distribute this file. 
   VRHFIN =C: s2p2                                                                                  
   LEXCH  = PE                                                                                      
   EATOM  =   147.1560 eV,   10.8157 Ry                                                             
                                                                                                    
   TITEL  = PAW_PBE C 08Apr2002                                                                     
   LULTRA =        F    use ultrasoft PP ?                                                          
   IUNSCR =        1    unscreen: 0-lin 1-nonlin 2-no                                               
   RPACOR =    1.200    partial core radius                                                         
   POMASS =   12.011; ZVAL   =    4.000    mass and valenz                                          
   RCORE  =    1.500    outmost cutoff radius                                                       
   RWIGS  =    1.630; RWIGS  =    0.863    wigner-seitz radius (au A)                               
   ENMAX  =  400.000; ENMIN  =  300.000 eV                                                          
   ICORE  =        2    local potential                                                             
   LCOR   =        T    correct aug charges                                                         
   LPAW   =        T    paw PP                                                                      
   EAUG   =  644.873                                                                                
   DEXC   =    0.000                                                                                
   RMAX   =    1.529    core radius for proj-oper                                                   
   RAUG   =    1.300    factor for augmentation sphere                                              
   RDEP   =    1.501    radius for radial grids                                                     
   RDEPT  =    1.300    core radius for aug-charge                                                  
                                                                                                    
   Atomic configuration                                                                             
    4 entries                                                                                       
     n  l   j            E        occ.                                                              
     1  0  0.50      -273.3789   2.0000                                                             
     2  0  0.50       -13.7508   2.0000                                                             
     2  1  0.50        -5.2854   2.0000                                                             
     3  2  1.50        -5.4423   0.0000                                                             
   Description                                                                                      
     l       E           TYP  RCUT    TYP  RCUT                                                     
     0    -13.7508458     23  1.200                                                                 
     0     -8.2022199     23  1.200                                                                 
     1     -5.2854383     23  1.500                                                                 
     1     34.0145650     23  1.500                                                                 
     2     -5.4423304      7  1.500                                                                 
  local pseudopotential read in
  partial core-charges read in
  partial kinetic energy density read in
  atomic valenz-charges read in
  non local Contribution for L=            0  read in
    real space projection operators read in
  non local Contribution for L=            0  read in
    real space projection operators read in
  non local Contribution for L=            1  read in
    real space projection operators read in
  non local Contribution for L=            1  read in
    real space projection operators read in
    PAW grid and wavefunctions read in
 
   number of l-projection  operators is LMAX  =            4
   number of lm-projection operators is LMMAX =            8
 
 POTCAR:    PAW_PBE N 08Apr2002                   
   SHA256 =  e053789ff3a61a86a1b75d8a110fcc91f86041011e7b0817c7c99e4e8a6349d7 N/POTCAR              
   COPYR  = (c) Copyright 08Apr2002 Georg Kresse                                                    
   COPYR  = This file is part of the software VASP. Any use, copying, and all other rights are regul
   COPYR  = If you do not have a valid VASP license, you may not use, copy or distribute this file. 
   VRHFIN =N: s2p3                                                                                  
   LEXCH  = PE                                                                                      
   EATOM  =   264.5486 eV,   19.4438 Ry                                                             
                                                                                                    
   TITEL  = PAW_PBE N 08Apr2002                                                                     
   LULTRA =        F    use ultrasoft PP ?                                                          
   IUNSCR =        1    unscreen: 0-lin 1-nonlin 2-no                                               
   RPACOR =    1.200    partial core radius                                                         
   POMASS =   14.001; ZVAL   =    5.000    mass and valenz                                          
   RCORE  =    1.500    outmost cutoff radius                                                       
   RWIGS  =    1.400; RWIGS  =    0.741    wigner-seitz radius (au A)                               
   ENMAX  =  400.000; ENMIN  =  300.000 eV                                                          
   ICORE  =        2    local potential                                                             
   LCOR   =        T    correct aug charges                                                         
   LPAW   =        T    paw PP                                                                      
   EAUG   =  627.112                                                                                
   DEXC   =    0.000                                                                                
   RMAX   =    1.529    core radius for proj-oper                                                   
   RAUG   =    1.300    factor for augmentation sphere                                              
   RDEP   =    1.514    radius for radial grids                                                     
   RDEPT  =    1.338    core radius for aug-charge                                                  
                                                                                                    
   Atomic configuration                                                                             
    4 entries                                                                                       
     n  l   j            E        occ.                                                              
     1  0  0.50      -384.7179   2.0000                                                             
     2  0  0.50       -18.5828   2.0000                                                             
     2  1  0.50        -7.0898   3.0000                                                             
     3  2  1.50        -6.8029   0.0000                                                             
   Description                                                                                      
     l       E           TYP  RCUT    TYP  RCUT                                                     
     0    -18.5828119     23  1.200                                                                 
     0    -13.5018863     23  1.200                                                                 
     1     -7.0897853     23  1.500                                                                 
     1      9.5240782     23  1.500                                                                 
     2     -6.8029130      7  1.500                                                                 
  local pseudopotential read in
  partial core-charges read in
  partial kinetic energy density read in
  atomic valenz-charges read in
  non local Contribution for L=            0  read in
    real space projection operators read in
  non local Contribution for L=            0  read in
    real space projection operators read in
  non local Contribution for L=            1  read in
    real space projection operators read in
  non local Contribution for L=            1  read in
    real space projection operators read in
    PAW grid and wavefunctions read in
 
   number of l-projection  operators is LMAX  =            4
   number of lm-projection operators is LMMAX =            8
 
 POTCAR:    PAW_PBE I 08Apr2002                   
   SHA256 =  e40f3f59b681c1fc3e3091736183c4589116986673d2b852a5012aec72758799 I/POTCAR              
   COPYR  = (c) Copyright 08Apr2002 Georg Kresse                                                    
   COPYR  = This file is part of the software VASP. Any use, copying, and all other rights are regul
   COPYR  = If you do not have a valid VASP license, you may not use, copy or distribute this file. 
   VRHFIN =I : s2p5                                                                                 
   LEXCH  = PE                                                                                      
   EATOM  =   315.8678 eV,   23.2156 Ry                                                             
                                                                                                    
   TITEL  = PAW_PBE I 08Apr2002                                                                     
   LULTRA =        F    use ultrasoft PP ?                                                          
   IUNSCR =        1    unscreen: 0-lin 1-nonlin 2-no                                               
   RPACOR =    2.200    partial core radius                                                         
   POMASS =  126.904; ZVAL   =    7.000    mass and valenz                                          
   RCORE  =    2.300    outmost cutoff radius                                                       
   RWIGS  =    2.810; RWIGS  =    1.487    wigner-seitz radius (au A)                               
   ENMAX  =  175.647; ENMIN  =  131.735 eV                                                          
   ICORE  =        3    local potential                                                             
   LCOR   =        T    correct aug charges                                                         
   LPAW   =        T    paw PP                                                                      
   EAUG   =  370.139                                                                                
   DEXC   =    0.000                                                                                
   RMAX   =    2.359    core radius for proj-oper                                                   
   RAUG   =    1.300    factor for augmentation sphere                                              
   RDEP   =    2.392    radius for radial grids                                                     
   RDEPT  =    2.170    core radius for aug-charge                                                  
                                                                                                    
   Atomic configuration                                                                             
   13 entries                                                                                       
     n  l   j            E        occ.                                                              
     1  0  0.50    -32976.3739   2.0000                                                             
     2  0  0.50     -5094.5933   2.0000                                                             
     2  1  1.50     -4572.0131   6.0000                                                             
     3  0  0.50     -1028.2813   2.0000                                                             
     3  1  1.50      -859.0250   6.0000                                                             
     3  2  2.50      -605.7620  10.0000                                                             
     4  0  0.50      -180.5540   2.0000                                                             
     4  1  1.50      -127.5306   6.0000                                                             
     4  2  2.50       -50.2720  10.0000                                                             
     5  0  0.50       -17.4058   2.0000                                                             
     5  1  0.50        -7.0851   5.0000                                                             
     5  2  1.50        -7.0750   0.0000                                                             
     4  3  2.50        -7.0750   0.0000                                                             
   Description                                                                                      
     l       E           TYP  RCUT    TYP  RCUT                                                     
     0    -17.4058016     23  2.300                                                                 
     0    -18.7663842     23  2.300                                                                 
     1     -7.0850686     23  2.300                                                                 
     1     -4.2150896     23  2.300                                                                 
     2     -7.0750295     23  2.300                                                                 
     3     -1.3605826     23  2.300                                                                 
  local pseudopotential read in
  partial core-charges read in
  partial kinetic energy density read in
  atomic valenz-charges read in
  non local Contribution for L=            0  read in
    real space projection operators read in
  non local Contribution for L=            0  read in
    real space projection operators read in
  non local Contribution for L=            1  read in
    real space projection operators read in
  non local Contribution for L=            1  read in
    real space projection operators read in
  non local Contribution for L=            2  read in
    real space projection operators read in
    PAW grid and wavefunctions read in
 
   number of l-projection  operators is LMAX  =            5
   number of lm-projection operators is LMMAX =           13
 
 POTCAR:    PAW_PBE Pb 08Apr2002                  
   SHA256 =  797118a27cf1bcd06b9881c67a26cdde129e3cd1a551dd4a281f9681ce847303 Pb/POTCAR             
   COPYR  = (c) Copyright 08Apr2002 Georg Kresse                                                    
   COPYR  = This file is part of the software VASP. Any use, copying, and all other rights are regul
   COPYR  = If you do not have a valid VASP license, you may not use, copy or distribute this file. 
   VRHFIN =Pb:                                                                                      
   LEXCH  = PE                                                                                      
   EATOM  =    96.9868 eV,    7.1283 Ry                                                             
                                                                                                    
   TITEL  = PAW_PBE Pb 08Apr2002                                                                    
   LULTRA =        F    use ultrasoft PP ?                                                          
   IUNSCR =        1    unscreen: 0-lin 1-nonlin 2-no                                               
   RPACOR =    2.200    partial core radius                                                         
   POMASS =  207.200; ZVAL   =    4.000    mass and valenz                                          
   RCORE  =    3.100    outmost cutoff radius                                                       
   RWIGS  =    3.260; RWIGS  =    1.725    wigner-seitz radius (au A)                               
   ENMAX  =   97.973; ENMIN  =   73.480 eV                                                          
   ICORE  =        3    local potential                                                             
   LCOR   =        T    correct aug charges                                                         
   LPAW   =        T    paw PP                                                                      
   EAUG   =  234.873                                                                                
   DEXC   =    0.000                                                                                
   RMAX   =    3.158    core radius for proj-oper                                                   
   RAUG   =    1.300    factor for augmentation sphere                                              
   RDEP   =    3.202    radius for radial grids                                                     
   RDEPT  =    2.659    core radius for aug-charge                                                  
                                                                                                    
   Atomic configuration                                                                             
   17 entries                                                                                       
     n  l   j            E        occ.                                                              
     1  0  0.50    -88091.8466   2.0000                                                             
     2  0  0.50    -15753.4197   2.0000                                                             
     2  1  1.50    -13508.1797   6.0000                                                             
     3  0  0.50     -3781.7194   2.0000                                                             
     3  1  1.50     -3138.2529   6.0000                                                             
     3  2  2.50     -2483.2977  10.0000                                                             
     4  0  0.50      -856.2895   2.0000                                                             
     4  1  1.50      -645.4943   6.0000                                                             
     4  2  2.50      -401.8768  10.0000                                                             
     4  3  3.50      -132.9059  14.0000                                                             
     5  0  0.50      -144.0950   2.0000                                                             
     5  1  1.50       -85.7879   6.0000                                                             
     5  2  2.50       -21.1769  10.0000                                                             
     6  0  0.50       -12.0372   2.0000                                                             
     6  1  1.50        -3.4971   2.0000                                                             
     6  2  2.50        -1.3606   0.0000                                                             
     5  3  2.50        -2.7212   0.0000                                                             
   Description                                                                                      
     l       E           TYP  RCUT    TYP  RCUT                                                     
     0    -12.0371566     23  3.100                                                                 
     0    -13.3977392     23  3.100                                                                 
     1     -3.4971341     23  3.100                                                                 
     1     -5.4423304     23  3.100                                                                 
     2     -1.3605826     23  3.100                                                                 
     3     -1.3605826     23  3.100                                                                 
  local pseudopotential read in
  partial core-charges read in
  partial kinetic energy density read in
  atomic valenz-charges read in
  non local Contribution for L=            0  read in
    real space projection operators read in
  non local Contribution for L=            0  read in
    real space projection operators read in
  non local Contribution for L=            1  read in
    real space projection operators read in
  non local Contribution for L=            1  read in
    real space projection operators read in
  non local Contribution for L=            2  read in
    real space projection operators read in
    PAW grid and wavefunctions read in
 
   number of l-projection  operators is LMAX  =            5
   number of lm-projection operators is LMMAX =           13
 
 Optimization of the real space projectors (new method)

 maximal supplied QI-value         = 34.20
 optimisation between [QCUT,QGAM] = [ 11.29, 22.57] = [ 35.68,142.71] Ry 
 Optimized for a Real-space Cutoff    1.16 Angstroem

   l    n(q)    QCUT    max X(q) W(low)/X(q) W(high)/X(q)  e(spline) 
   0      8    11.287    19.460    0.40E-03    0.73E-03    0.16E-06
   0      8    11.287    12.209    0.38E-03    0.70E-03    0.15E-06
   1      7    11.287     4.655    0.22E-03    0.25E-04    0.22E-06
 Optimization of the real space projectors (new method)

 maximal supplied QI-value         = 25.13
 optimisation between [QCUT,QGAM] = [ 11.31, 22.87] = [ 35.82,146.48] Ry 
 Optimized for a Real-space Cutoff    1.00 Angstroem

   l    n(q)    QCUT    max X(q) W(low)/X(q) W(high)/X(q)  e(spline) 
   0      7    11.310   115.676    0.43E-03    0.13E-02    0.19E-06
   0      7    11.310    87.132    0.43E-03    0.13E-02    0.18E-06
   1      6    11.310     4.429    0.42E-03    0.74E-03    0.11E-06
   1      6    11.310     2.733    0.34E-03    0.55E-03    0.92E-07
 Optimization of the real space projectors (new method)

 maximal supplied QI-value         = 25.13
 optimisation between [QCUT,QGAM] = [ 11.31, 22.87] = [ 35.82,146.48] Ry 
 Optimized for a Real-space Cutoff    1.27 Angstroem

   l    n(q)    QCUT    max X(q) W(low)/X(q) W(high)/X(q)  e(spline) 
   0      9    11.310    79.467    0.75E-04    0.16E-03    0.36E-06
   0      9    11.310    66.151    0.74E-04    0.16E-03    0.36E-06
   1      8    11.310    17.416    0.35E-03    0.12E-03    0.95E-06
   1      8    11.310    12.382    0.37E-03    0.13E-03    0.98E-06
 Optimization of the real space projectors (new method)

 maximal supplied QI-value         = 16.25
 optimisation between [QCUT,QGAM] = [ 11.38, 22.75] = [ 36.24,144.96] Ry 
 Optimized for a Real-space Cutoff    1.31 Angstroem

   l    n(q)    QCUT    max X(q) W(low)/X(q) W(high)/X(q)  e(spline) 
   0      9    11.376   194.483    0.24E-03    0.23E-03    0.67E-07
   0      9    11.376   190.334    0.23E-03    0.22E-03    0.65E-07
   1      8    11.376   116.687    0.25E-03    0.63E-04    0.16E-06
   1      8    11.376    88.696    0.25E-03    0.61E-04    0.16E-06
   2      8    11.376     4.877    0.17E-03    0.14E-03    0.29E-07
 Optimization of the real space projectors (new method)

 maximal supplied QI-value         = 12.09
 optimisation between [QCUT,QGAM] = [ 11.37, 22.86] = [ 36.19,146.31] Ry 
 Optimized for a Real-space Cutoff    1.66 Angstroem

   l    n(q)    QCUT    max X(q) W(low)/X(q) W(high)/X(q)  e(spline) 
   0     11    11.369   135.111    0.12E-03    0.69E-04    0.19E-05
   0     11    11.369   146.850    0.11E-03    0.65E-04    0.18E-05
   1     11    11.369   148.016    0.17E-03    0.32E-03    0.89E-06
   1     11    11.369   122.989    0.17E-03    0.32E-03    0.91E-06
   2     10    11.369     8.916    0.12E-03    0.45E-04    0.33E-06
  PAW_PBE H 15Jun2001                   :
 energy of atom  1       EATOM=  -12.4884
 kinetic energy error for atom=    0.0020 (will be added to EATOM!!)
  PAW_PBE C 08Apr2002                   :
 energy of atom  2       EATOM= -147.1560
 kinetic energy error for atom=    0.0076 (will be added to EATOM!!)
  PAW_PBE N 08Apr2002                   :
 energy of atom  3       EATOM= -264.5486
 kinetic energy error for atom=    0.0138 (will be added to EATOM!!)
  PAW_PBE I 08Apr2002                   :
 energy of atom  4       EATOM= -315.8678
 kinetic energy error for atom=    0.0009 (will be added to EATOM!!)
  PAW_PBE Pb 08Apr2002                  :
 energy of atom  5       EATOM=  -96.9868
 kinetic energy error for atom=    0.0000 (will be added to EATOM!!)
 
 
 POSCAR:  H  C  N  I Pb
  positions in cartesian coordinates
  No initial velocities read in
 exchange correlation table for  LEXCH =        8
   RHO(1)=    0.500       N(1)  =     2000
   RHO(2)=  100.500       N(2)  =     4000
 


--------------------------------------------------------------------------------------------------------


 ion  position               nearest neighbor table
   1  0.409  0.279  0.566- 187 1.02
   2  0.413  0.701  0.573- 188 1.04
   3  0.928  0.290  0.581- 189 1.03
   4  0.932  0.815  0.574- 190 1.02
   5  0.324  0.092  0.565- 194 1.03
   6  0.319  0.576  0.570- 195 1.03
   7  0.802  0.099  0.569- 196 1.03
   8  0.111  0.241  0.562- 183 1.02
   9  0.080  0.680  0.569- 184 1.02
  10  0.590  0.189  0.565- 185 1.03
  11  0.601  0.750  0.559- 186 1.03
  12  0.378  0.020  0.555- 194 1.03
  13  0.253  0.623  0.554- 195 1.01
  14  0.875  0.045  0.558- 196 1.02
  15  0.063  0.287  0.583- 183 1.03
  16  0.994  0.694  0.582- 184 1.03
  17  0.496  0.172  0.572- 185 1.02
  18  0.549  0.690  0.575- 186 1.02
  19  0.307  0.439  0.573- 191 1.03
  20  0.189  0.067  0.570- 192 1.03
  21  0.680  0.033  0.573- 193 1.03
  22  0.451  0.362  0.558- 187 1.03
  23  0.376  0.768  0.556- 188 1.02
  24  0.885  0.240  0.560- 189 1.03
  25  0.978  0.873  0.556- 190 1.03
  26  0.234  0.399  0.559- 191 1.02
  27  0.155  0.986  0.559- 192 1.02
  28  0.678  0.942  0.564- 193 1.02
  29  0.568  0.309  0.555- 146 1.09
  30  0.495  0.809  0.545- 147 1.09
  31  1.000  0.202  0.546- 144 1.09
  32  0.075  0.790  0.551- 145 1.10
  33  0.190  0.512  0.546- 148 1.09
  34  0.274  0.945  0.549- 149 1.09
  35  0.800  0.942  0.553- 150 1.09
  36  0.453  0.294  0.673- 205 1.02
  37  0.440  0.811  0.671- 206 1.02
  38  0.960  0.282  0.678- 207 1.02
  39  0.916  0.740  0.668- 208 1.03
  40  0.299  0.042  0.675- 209 1.02
  41  0.304  0.558  0.674- 210 1.02
  42  0.796  0.055  0.675- 211 1.01
  43  0.829  0.500  0.669- 212 1.02
  44  0.091  0.171  0.647- 197 1.03
  45  0.105  0.698  0.652- 198 1.03
  46  0.577  0.164  0.647- 199 1.03
  47  0.576  0.677  0.651- 200 1.01
  48  0.186  0.412  0.651- 201 1.02
  49  0.163  0.931  0.646- 202 1.01
  50  0.641  0.462  0.652- 203 1.02
  51  0.675  0.917  0.650- 204 1.02
  52  0.065  0.188  0.673- 197 1.03
  53  0.029  0.658  0.665- 198 1.02
  54  0.544  0.185  0.672- 199 1.02
  55  0.544  0.713  0.675- 200 1.02
  56  0.217  0.444  0.676- 201 1.02
  57  0.186  0.955  0.672- 202 1.02
  58  0.702  0.435  0.671- 203 1.03
  59  0.698  0.950  0.675- 204 1.03
  60  0.439  0.340  0.649- 205 1.02
  61  0.414  0.830  0.645- 206 1.02
  62  0.926  0.320  0.654- 207 1.02
  63  0.926  0.831  0.658- 208 1.02
  64  0.341  0.062  0.651- 209 1.00
  65  0.320  0.590  0.648- 210 1.02
  66  0.828  0.080  0.650- 211 1.02
  67  0.839  0.564  0.649- 212 1.01
  68  0.004  0.253  0.633- 151 1.09
  69  0.046  0.810  0.646- 152 1.09
  70  0.514  0.261  0.630- 153 1.09
  71  0.498  0.748  0.630- 154 1.09
  72  0.258  0.995  0.631- 156 1.09
  73  0.249  0.502  0.632- 155 1.09
  74  0.755  0.994  0.632- 158 1.09
  75  0.721  0.544  0.636- 157 1.09
  76  0.449  0.301  0.769- 221 1.02
  77  0.449  0.801  0.769- 222 1.02
  78  0.949  0.301  0.769- 223 1.02
  79  0.949  0.801  0.769- 224 1.02
  80  0.301  0.051  0.769- 225 1.02
  81  0.301  0.551  0.769- 226 1.02
  82  0.801  0.051  0.769- 227 1.02
  83  0.801  0.551  0.769- 228 1.02
  84  0.079  0.171  0.743- 213 1.02
  85  0.079  0.671  0.743- 214 1.02
  86  0.579  0.171  0.743- 215 1.02
  87  0.579  0.671  0.743- 216 1.02
  88  0.171  0.421  0.743- 217 1.02
  89  0.171  0.921  0.743- 218 1.02
  90  0.671  0.421  0.743- 219 1.02
  91  0.671  0.921  0.743- 220 1.02
  92  0.051  0.199  0.769- 213 1.02
  93  0.051  0.699  0.769- 214 1.02
  94  0.551  0.199  0.769- 215 1.02
  95  0.551  0.699  0.769- 216 1.02
  96  0.199  0.449  0.769- 217 1.02
  97  0.199  0.949  0.769- 218 1.02
  98  0.699  0.449  0.769- 219 1.02
  99  0.699  0.949  0.769- 220 1.02
 100  0.421  0.329  0.743- 221 1.02
 101  0.421  0.829  0.743- 222 1.02
 102  0.921  0.329  0.743- 223 1.02
 103  0.921  0.829  0.743- 224 1.02
 104  0.329  0.079  0.743- 225 1.02
 105  0.329  0.579  0.743- 226 1.02
 106  0.829  0.079  0.743- 227 1.02
 107  0.829  0.579  0.743- 228 1.02
 108  0.000  0.250  0.726- 161 1.09
 109  0.000  0.750  0.726- 162 1.09
 110  0.500  0.250  0.726- 159 1.09
 111  0.500  0.750  0.726- 160 1.09
 112  0.250  0.000  0.726- 163 1.09
 113  0.250  0.500  0.726- 164 1.09
 114  0.750  0.000  0.726- 165 1.09
 115  0.750  0.500  0.726- 166 1.09
 116  0.800  0.509  0.515- 173 1.09
 117  0.879  0.501  0.531- 173 1.09
 118  0.763  0.623  0.532- 174 1.10
 119  0.761  0.626  0.560- 174 1.09
 120  0.686  0.448  0.551- 175 1.10
 121  0.670  0.540  0.558- 175 1.10
 122  0.797  0.427  0.567- 176 1.09
 123  0.867  0.497  0.569- 176 1.10
 124  0.858  0.376  0.539- 177 1.10
 125  0.763  0.377  0.533- 177 1.10
 126  0.782  0.382  0.496- 178 1.11
 127  0.875  0.408  0.498- 178 1.09
 128  0.898  0.619  0.531- 179 1.10
 129  0.905  0.606  0.559- 179 1.10
 130  0.869  0.690  0.548- 179 1.10
 131  0.600  0.515  0.526- 180 1.11
 132  0.680  0.487  0.511- 180 1.10
 133  0.667  0.581  0.519- 180 1.10
 134  0.708  0.507  0.588- 181 1.09
 135  0.779  0.575  0.591- 181 1.09
 136  0.790  0.485  0.602- 181 1.10
 137  0.822  0.256  0.513- 182 1.11
 138  0.844  0.275  0.487- 182 1.10
 139  0.924  0.160  0.499- 168 1.08
 140  0.973  0.384  0.518- 169 1.09
 141  0.056  0.127  0.504- 170 1.09
 142  0.101  0.352  0.523- 171 1.09
 143  0.147  0.223  0.516- 172 1.09
 144  0.998  0.237  0.560-  31 1.09 183 1.31 189 1.32
 145  0.028  0.774  0.561-  32 1.10 184 1.31 190 1.32
 146  0.522  0.275  0.560-  29 1.09 185 1.32 187 1.33
 147  0.490  0.762  0.556-  30 1.09 186 1.31 188 1.32
 148  0.240  0.511  0.556-  33 1.09 191 1.31 195 1.32
 149  0.267  1.000  0.556-  34 1.09 194 1.31 192 1.31
 150  0.776  0.993  0.560-  35 1.09 196 1.31 193 1.31
 151  0.008  0.246  0.650-  68 1.09 197 1.31 207 1.31
 152  0.017  0.765  0.654-  69 1.09 198 1.31 208 1.32
 153  0.508  0.252  0.647-  70 1.09 199 1.30 205 1.32
 154  0.495  0.753  0.648-  71 1.09 206 1.31 200 1.31
 155  0.254  0.501  0.649-  73 1.09 201 1.31 210 1.31
 156  0.252  0.997  0.648-  72 1.09 209 1.31 202 1.32
 157  0.740  0.514  0.649-  75 1.09 212 1.30 203 1.32
 158  0.752  0.998  0.649-  74 1.09 204 1.31 211 1.31
 159  0.500  0.250  0.743- 110 1.09 221 1.31 215 1.31
 160  0.500  0.750  0.743- 111 1.09 222 1.31 216 1.31
 161  1.000  0.250  0.743- 108 1.09 223 1.31 213 1.31
 162  1.000  0.750  0.743- 109 1.09 224 1.31 214 1.31
 163  0.250  0.000  0.743- 112 1.09 225 1.31 218 1.31
 164  0.250  0.500  0.743- 113 1.09 226 1.31 217 1.31
 165  0.750  0.000  0.743- 114 1.09 227 1.31 220 1.31
 166  0.750  0.500  0.743- 115 1.09 228 1.31 219 1.31
 167  0.938  0.275  0.507- 169 1.40 168 1.41 182 1.52
 168  0.963  0.202  0.504- 139 1.08 170 1.40 167 1.41
 169  0.989  0.327  0.514- 140 1.09 171 1.40 167 1.40
 170  0.038  0.184  0.507- 141 1.09 168 1.40 172 1.40
 171  0.064  0.309  0.517- 142 1.09 172 1.39 169 1.40
 172  0.089  0.238  0.513- 143 1.09 171 1.39 170 1.40
 173  0.821  0.484  0.529- 116 1.09 117 1.09 229 1.51 177 1.53
 174  0.791  0.603  0.546- 119 1.09 118 1.10 179 1.51 229 1.52
 175  0.696  0.506  0.546- 121 1.10 120 1.10 180 1.52 229 1.53
 176  0.807  0.487  0.569- 122 1.09 123 1.10 181 1.51 229 1.53
 177  0.817  0.399  0.528- 124 1.10 125 1.10 173 1.53 178 1.54
 178  0.833  0.373  0.505- 127 1.09 126 1.11 182 1.53 177 1.54
 179  0.871  0.629  0.546- 129 1.10 130 1.10 128 1.10 174 1.51
 180  0.661  0.523  0.524- 132 1.10 133 1.10 131 1.11 175 1.52
 181  0.768  0.516  0.588- 134 1.09 135 1.09 136 1.10 176 1.51
 182  0.857  0.292  0.503- 138 1.10 137 1.11 167 1.52 178 1.53
 183  0.061  0.255  0.569-   8 1.02  15 1.03 144 1.31
 184  0.032  0.710  0.571-   9 1.02  16 1.03 145 1.31
 185  0.536  0.205  0.565-  17 1.02  10 1.03 146 1.32
 186  0.550  0.729  0.563-  18 1.02  11 1.03 147 1.31
 187  0.455  0.306  0.560-   1 1.02  22 1.03 146 1.33
 188  0.422  0.742  0.562-  23 1.02   2 1.04 147 1.32
 189  0.933  0.258  0.567-  24 1.03   3 1.03 144 1.32
 190  0.972  0.820  0.562-   4 1.02  25 1.03 145 1.32
 191  0.262  0.446  0.563-  26 1.02  19 1.03 148 1.31
 192  0.199  0.019  0.561-  27 1.02  20 1.03 149 1.31
 193  0.706  0.991  0.565-  28 1.02  21 1.03 150 1.31
 194  0.326  0.041  0.558-   5 1.03  12 1.03 149 1.31
 195  0.274  0.574  0.560-  13 1.01   6 1.03 148 1.32
 196  0.820  0.050  0.563-  14 1.02   7 1.03 150 1.31
 197  0.057  0.199  0.657-  52 1.03  44 1.03 151 1.31
 198  0.051  0.703  0.657-  53 1.02  45 1.03 152 1.31
 199  0.544  0.197  0.656-  54 1.02  46 1.03 153 1.30
 200  0.541  0.712  0.659-  47 1.01  55 1.02 154 1.31
 201  0.217  0.449  0.659-  48 1.02  56 1.02 155 1.31
 202  0.196  0.959  0.656-  49 1.01  57 1.02 156 1.32
 203  0.692  0.467  0.658-  50 1.02  58 1.03 157 1.32
 204  0.706  0.952  0.659-  51 1.02  59 1.03 158 1.31
 205  0.464  0.298  0.657-  36 1.02  60 1.02 153 1.32
 206  0.447  0.801  0.655-  61 1.02  37 1.02 154 1.31
 207  0.962  0.285  0.662-  62 1.02  38 1.02 151 1.31
 208  0.948  0.779  0.661-  63 1.02  39 1.03 152 1.32
 209  0.300  0.036  0.659-  64 1.00  40 1.02 156 1.31
 210  0.295  0.552  0.658-  41 1.02  65 1.02 155 1.31
 211  0.794  0.047  0.659-  42 1.01  66 1.02 158 1.31
 212  0.807  0.526  0.656-  67 1.01  43 1.02 157 1.30
 213  0.046  0.204  0.753-  92 1.02  84 1.02 161 1.31
 214  0.046  0.704  0.753-  93 1.02  85 1.02 162 1.31
 215  0.546  0.204  0.753-  94 1.02  86 1.02 159 1.31
 216  0.546  0.704  0.753-  95 1.02  87 1.02 160 1.31
 217  0.204  0.454  0.753-  96 1.02  88 1.02 164 1.31
 218  0.204  0.954  0.753-  97 1.02  89 1.02 163 1.31
 219  0.704  0.454  0.753-  98 1.02  90 1.02 166 1.31
 220  0.704  0.954  0.753-  99 1.02  91 1.02 165 1.31
 221  0.454  0.296  0.753-  76 1.02 100 1.02 159 1.31
 222  0.454  0.796  0.753-  77 1.02 101 1.02 160 1.31
 223  0.954  0.296  0.753-  78 1.02 102 1.02 161 1.31
 224  0.954  0.796  0.753-  79 1.02 103 1.02 162 1.31
 225  0.296  0.046  0.753-  80 1.02 104 1.02 163 1.31
 226  0.296  0.546  0.753-  81 1.02 105 1.02 164 1.31
 227  0.796  0.046  0.753-  82 1.02 106 1.02 165 1.31
 228  0.796  0.546  0.753-  83 1.02 107 1.02 166 1.31
 229  0.779  0.520  0.548- 173 1.51 174 1.52 176 1.53 175 1.53
 230  0.509  0.976  0.553- 304 3.16
 231  0.469  0.504  0.554- 305 3.15
 232  0.008  0.013  0.551- 302 3.30
 233  0.033  0.493  0.555- 303 3.14
 234  0.255  0.243  0.555- 306 3.20
 235  0.232  0.767  0.551- 307 3.26
 236  0.736  0.225  0.555- 308 3.22
 237  0.726  0.796  0.554- 309 3.24
 238  0.996  0.984  0.654- 302 3.15 310 3.18
 239  0.006  0.502  0.655- 311 3.09 303 3.21
 240  0.497  0.002  0.655- 312 3.14 304 3.23
 241  0.498  0.500  0.654- 313 3.16 305 3.19
 242  0.264  0.240  0.656- 314 3.10 306 3.10
 243  0.246  0.753  0.654- 307 3.15 315 3.20
 244  0.744  0.261  0.655- 308 3.09 316 3.11
 245  0.751  0.738  0.655- 317 3.15 309 3.15
 246  0.137  0.116  0.609- 302 3.20 306 3.23
 247  0.146  0.609  0.606- 303 3.14 307 3.22
 248  0.641  0.109  0.609- 308 3.22 304 3.27
 249  0.617  0.631  0.609- 305 3.19 309 3.35
 250  0.368  0.384  0.609- 306 3.17 305 3.18
 251  0.365  0.886  0.606- 304 3.16 307 3.19
 252  0.888  0.364  0.613- 308 3.26 303 3.38
 253  0.863  0.890  0.605- 309 3.12 302 3.23
 254  0.126  0.370  0.611- 306 3.20 303 3.25
 255  0.117  0.873  0.606- 307 3.12 302 3.22
 256  0.619  0.371  0.602- 305 3.20 308 3.20
 257  0.616  0.865  0.612- 309 3.14 304 3.16
 258  0.398  0.141  0.604- 306 3.23 304 3.26
 259  0.379  0.632  0.608- 305 3.23 307 3.31
 260  0.882  0.133  0.613- 302 3.16 308 3.25
 261  0.903  0.649  0.611- 303 3.28 309 3.41
 262  0.000  0.000  0.755- 310 3.13 318 3.27
 263  0.000  0.500  0.755- 311 3.13 319 3.27
 264  0.500  0.000  0.755- 312 3.13 320 3.27
 265  0.500  0.500  0.755- 313 3.13 321 3.27
 266  0.250  0.250  0.755- 314 3.13 322 3.27
 267  0.250  0.750  0.755- 315 3.13 323 3.27
 268  0.750  0.250  0.755- 316 3.13 324 3.27
 269  0.750  0.750  0.755- 317 3.13 325 3.27
 270  0.136  0.114  0.705- 310 3.20 314 3.20
 271  0.136  0.614  0.705- 311 3.20 315 3.20
 272  0.636  0.114  0.705- 312 3.20 316 3.20
 273  0.636  0.614  0.705- 313 3.20 317 3.20
 274  0.364  0.386  0.705- 313 3.20 314 3.20
 275  0.364  0.886  0.705- 312 3.20 315 3.20
 276  0.864  0.386  0.705- 311 3.20 316 3.20
 277  0.864  0.886  0.705- 310 3.20 317 3.20
 278  0.114  0.364  0.705- 314 3.21 311 3.21
 279  0.114  0.864  0.705- 315 3.21 310 3.21
 280  0.614  0.364  0.705- 316 3.21 313 3.21
 281  0.614  0.864  0.705- 317 3.21 312 3.21
 282  0.386  0.136  0.705- 314 3.21 312 3.21
 283  0.386  0.636  0.705- 315 3.21 313 3.21
 284  0.886  0.136  0.705- 316 3.21 310 3.21
 285  0.886  0.636  0.705- 317 3.21 311 3.21
 286  0.135  0.115  0.801- 318 3.22 322 3.22
 287  0.135  0.615  0.801- 319 3.22 323 3.22
 288  0.635  0.115  0.801- 320 3.22 324 3.22
 289  0.635  0.615  0.801- 321 3.22 325 3.22
 290  0.365  0.385  0.801- 321 3.22 322 3.22
 291  0.365  0.885  0.801- 320 3.22 323 3.22
 292  0.865  0.385  0.801- 319 3.22 324 3.22
 293  0.865  0.885  0.801- 318 3.22 325 3.22
 294  0.115  0.365  0.801- 319 3.23 322 3.23
 295  0.115  0.865  0.801- 318 3.23 323 3.23
 296  0.615  0.365  0.801- 321 3.23 324 3.23
 297  0.615  0.865  0.801- 320 3.23 325 3.23
 298  0.385  0.135  0.801- 320 3.23 322 3.23
 299  0.385  0.635  0.801- 321 3.23 323 3.23
 300  0.885  0.135  0.801- 318 3.23 324 3.23
 301  0.885  0.635  0.801- 319 3.23 325 3.23
 302  0.999  0.006  0.604- 238 3.15 260 3.16 246 3.20 255 3.22 253 3.23 232 3.30
 303  0.009  0.504  0.604- 247 3.14 233 3.14 239 3.21 254 3.25 261 3.28 252 3.38
 304  0.502  0.994  0.603- 257 3.16 230 3.16 251 3.16 240 3.23 258 3.26 248 3.27
 305  0.499  0.501  0.603- 231 3.15 250 3.18 241 3.19 249 3.19 256 3.20 259 3.23
 306  0.256  0.250  0.606- 242 3.10 250 3.17 234 3.20 254 3.20 246 3.23 258 3.23
 307  0.245  0.757  0.603- 255 3.12 243 3.15 251 3.19 247 3.22 235 3.26 259 3.31
 308  0.749  0.251  0.606- 244 3.09 256 3.20 236 3.22 248 3.22 260 3.25 252 3.26
 309  0.751  0.759  0.604- 253 3.12 257 3.14 245 3.15 237 3.24 249 3.35 261 3.41
 310  0.000  0.000  0.705- 262 3.13 238 3.18 270 3.20 277 3.20 279 3.21 284 3.21
 311  0.000  0.500  0.705- 239 3.09 263 3.13 271 3.20 276 3.20 278 3.21 285 3.21
 312  0.500  0.000  0.705- 264 3.13 240 3.14 272 3.20 275 3.20 281 3.21 282 3.21
 313  0.500  0.500  0.705- 265 3.13 241 3.16 273 3.20 274 3.20 280 3.21 283 3.21
 314  0.250  0.250  0.705- 242 3.10 266 3.13 270 3.20 274 3.20 282 3.21 278 3.21
 315  0.250  0.750  0.705- 267 3.13 243 3.20 271 3.20 275 3.20 283 3.21 279 3.21
 316  0.750  0.250  0.705- 244 3.11 268 3.13 272 3.20 276 3.20 284 3.21 280 3.21
 317  0.750  0.750  0.705- 269 3.13 245 3.15 273 3.20 277 3.20 285 3.21 281 3.21
 318  0.000  0.000  0.807- 286 3.22 293 3.22 300 3.23 295 3.23 262 3.27
 319  0.000  0.500  0.807- 287 3.22 292 3.22 301 3.23 294 3.23 263 3.27
 320  0.500  0.000  0.807- 288 3.22 291 3.22 298 3.23 297 3.23 264 3.27
 321  0.500  0.500  0.807- 289 3.22 290 3.22 299 3.23 296 3.23 265 3.27
 322  0.250  0.250  0.807- 290 3.22 286 3.22 294 3.23 298 3.23 266 3.27
 323  0.250  0.750  0.807- 291 3.22 287 3.22 299 3.23 295 3.23 267 3.27
 324  0.750  0.250  0.807- 292 3.22 288 3.22 296 3.23 300 3.23 268 3.27
 325  0.750  0.750  0.807- 293 3.22 289 3.22 297 3.23 301 3.23 269 3.27
 

IMPORTANT INFORMATION: All symmetrisations will be switched off!
NOSYMM: (Re-)initialisation of all symmetry stuff for point group C_1.


----------------------------------------------------------------------------------------

                                     Primitive cell                                     

  volume of cell :   20385.2105

  direct lattice vectors                    reciprocal lattice vectors
    18.060800552  0.000000000  0.000000000     0.055368531  0.000015077 -0.000000000
    -0.004918649 18.062799454  0.000000000     0.000000000  0.055362404  0.000000000
     0.000000000  0.000000000 62.487499237     0.000000000 -0.000000000  0.016003201

  length of vectors
    18.060800552 18.062800123 62.487499237     0.055368533  0.055362404  0.016003201

  position of ions in fractional coordinates (direct lattice)
     0.409254697  0.279081476  0.565836441
     0.412777064  0.700795366  0.572945956
     0.928463907  0.289813349  0.580941452
     0.931664097  0.814789460  0.573559848
     0.323700938  0.092361199  0.565332190
     0.318895717  0.576336291  0.569634747
     0.802432738  0.099483887  0.568646817
     0.110750435  0.240664785  0.562167006
     0.079520269  0.679882882  0.569468210
     0.590057468  0.188715251  0.564962792
     0.601276250  0.750349178  0.558938943
     0.377679099  0.020329750  0.554972268
     0.253173978  0.623099375  0.554416310
     0.875013269  0.044796785  0.558377124
     0.063272347  0.286844798  0.582613478
     0.994250196  0.694417720  0.581852950
     0.496400959  0.172354365  0.571708282
     0.549275685  0.689650351  0.574726769
     0.306590914  0.439476225  0.572837536
     0.188697324  0.067121634  0.569775888
     0.679624887  0.033160260  0.573020800
     0.451127709  0.361911991  0.557667387
     0.376145014  0.768416974  0.556118005
     0.885053465  0.240132426  0.560453284
     0.978285413  0.872987946  0.556149139
     0.234366183  0.399290969  0.558781929
     0.154752231  0.986354785  0.558738769
     0.677659507  0.942300512  0.563628724
     0.568001437  0.309352696  0.554686506
     0.495291149  0.808557325  0.545308898
     0.999805079  0.201753895  0.545775727
     0.074586210  0.790051625  0.550609701
     0.189594272  0.512488452  0.546157090
     0.273950344  0.944844180  0.548804042
     0.799530645  0.942394783  0.553380336
     0.453037158  0.294124571  0.673335664
     0.440303886  0.811468854  0.671432390
     0.960308941  0.282304142  0.677963604
     0.915675333  0.740473420  0.668140838
     0.298536078  0.041913166  0.674963858
     0.303551614  0.557625525  0.673987833
     0.796072129  0.054502112  0.674981196
     0.828821654  0.500157390  0.669386022
     0.090556157  0.171091669  0.646642886
     0.105300852  0.697859813  0.652457160
     0.577358811  0.163760708  0.646681529
     0.575522688  0.677231751  0.651118574
     0.186482172  0.412476192  0.650787209
     0.162837892  0.931240007  0.645749092
     0.640526097  0.461916964  0.651523440
     0.675493938  0.916940799  0.649580180
     0.065244150  0.187789853  0.673142144
     0.028692160  0.657552674  0.664653141
     0.543718528  0.185324055  0.672026259
     0.543742513  0.712552939  0.675250232
     0.216677554  0.444435064  0.675680860
     0.186253087  0.954664121  0.672038102
     0.701919843  0.435400691  0.671349427
     0.698328097  0.950305004  0.675063854
     0.438949294  0.339651898  0.649154985
     0.414342838  0.829598477  0.645205709
     0.925794991  0.319891936  0.654206289
     0.926355642  0.830630725  0.658004045
     0.341347255  0.062133723  0.650933906
     0.320259760  0.590181169  0.648369184
     0.827801853  0.079588161  0.649790000
     0.838846029  0.563721072  0.648912261
     0.004441982  0.252618317  0.632649182
     0.045783834  0.809965387  0.646024232
     0.514357024  0.260796602  0.630094288
     0.498117361  0.747705280  0.630451843
     0.257689910  0.995046562  0.630593228
     0.248560084  0.501531186  0.631810574
     0.755321159  0.994038922  0.632068255
     0.720585460  0.544315118  0.635572191
     0.448745018  0.301283966  0.768889017
     0.448745007  0.801283913  0.768889017
     0.948744965  0.301283966  0.768889017
     0.948745007  0.801283913  0.768889017
     0.301275995  0.051294496  0.768872961
     0.301276011  0.551294499  0.768872961
     0.801275943  0.051294496  0.768872961
     0.801275984  0.551294499  0.768872961
     0.078771004  0.171180501  0.743441971
     0.078771006  0.671180448  0.743441971
     0.578771004  0.171180501  0.743441971
     0.578770992  0.671180448  0.743441971
     0.171199499  0.421174482  0.743421032
     0.171199501  0.921174508  0.743421032
     0.671199512  0.421174482  0.743421032
     0.671199501  0.921174508  0.743421032
     0.051256000  0.198714991  0.768889017
     0.051256002  0.698714925  0.768889017
     0.551256027  0.198714991  0.768889017
     0.551256016  0.698714925  0.768889017
     0.198723491  0.448703970  0.768872046
     0.198723493  0.948703970  0.768872046
     0.698723518  0.448703970  0.768872046
     0.698723507  0.948703970  0.768872046
     0.421231519  0.328817467  0.743441971
     0.421231508  0.828817440  0.743441971
     0.921231466  0.328817467  0.743441971
     0.921231508  0.828817440  0.743441971
     0.328800503  0.078824997  0.743421032
     0.328800492  0.578824964  0.743421032
     0.828800477  0.078824997  0.743421032
     0.828800519  0.578824964  0.743421032
     0.000003500  0.250001478  0.725821992
     0.000003500  0.750001452  0.725821992
     0.500003506  0.250001478  0.725821992
     0.500003495  0.750001452  0.725821992
     0.250000502  0.000000000  0.725803983
     0.250000517  0.500000000  0.725803983
     0.750000502  0.000000000  0.725803983
     0.750000490  0.500000000  0.725803983
     0.800178086  0.508613364  0.514700908
     0.879010501  0.500643604  0.531287233
     0.762575464  0.622613161  0.532091105
     0.761323783  0.625812438  0.560169109
     0.686265912  0.448188822  0.550654083
     0.670146101  0.540488288  0.558253686
     0.797357887  0.427320134  0.567013678
     0.866682161  0.496649141  0.569090143
     0.857697488  0.375691901  0.539340663
     0.762870497  0.377415455  0.533106994
     0.782425022  0.382063871  0.495657396
     0.875196928  0.408369613  0.498002774
     0.898373055  0.618996677  0.530739028
     0.905391354  0.605695616  0.558837910
     0.868980462  0.689667247  0.548485314
     0.600268005  0.514722270  0.526395325
     0.680051503  0.486532626  0.511365768
     0.667328857  0.580951022  0.519278300
     0.708486438  0.506748655  0.587845604
     0.778510300  0.575278278  0.590875018
     0.790289006  0.485423663  0.601765990
     0.822149101  0.255930687  0.513191451
     0.844461547  0.274897443  0.486537011
     0.924490327  0.159881871  0.498540876
     0.972658030  0.383986948  0.517841490
     0.055861033  0.126620507  0.503776390
     0.101352448  0.351913030  0.522915442
     0.146576387  0.222874467  0.515678398
     0.998292504  0.236784550  0.559888291
     0.027587704  0.774258195  0.560696680
     0.521581232  0.274741004  0.559688605
     0.489886382  0.761610558  0.556256644
     0.240267581  0.511141952  0.555664729
     0.266647249  0.999733870  0.555846039
     0.776380201  0.992820620  0.560141088
     0.007697046  0.245678218  0.649949822
     0.016505755  0.765428571  0.654313366
     0.508307531  0.251677040  0.647255619
     0.495459271  0.753477072  0.647743021
     0.253521540  0.500982037  0.649182762
     0.251966066  0.996721736  0.647883857
     0.739551189  0.513739124  0.649496362
     0.751942875  0.997654798  0.649391544
     0.499988984  0.249994984  0.743277021
     0.499989025  0.749994958  0.743277021
     0.999988984  0.249994984  0.743277021
     0.999989025  0.749994958  0.743277021
     0.250000502  0.000001000  0.743255960
     0.250000517  0.500001003  0.743255960
     0.750000502  0.000001000  0.743255960
     0.750000491  0.500001003  0.743255960
     0.937571309  0.274514739  0.507423818
     0.963139307  0.201974708  0.503863749
     0.989135592  0.327385989  0.514269181
     0.037881646  0.183657601  0.506524407
     0.063632024  0.309261462  0.517173143
     0.088609525  0.237706477  0.513181927
     0.821281626  0.483876321  0.529397329
     0.791352461  0.602889682  0.546489859
     0.695516028  0.505935043  0.545814003
     0.806656179  0.486883203  0.568575575
     0.817070845  0.399478375  0.528152512
     0.833040480  0.373091191  0.505259078
     0.870863128  0.629397666  0.546135906
     0.660533817  0.522922598  0.524264039
     0.767898380  0.516366496  0.588134175
     0.856911325  0.292426597  0.503039976
     0.061254820  0.255014224  0.568942348
     0.032260937  0.710324876  0.570513157
     0.535600083  0.205274881  0.564677029
     0.550071185  0.728870439  0.563011230
     0.455006207  0.305582227  0.560040909
     0.422233145  0.741592679  0.561601646
     0.933494961  0.258157034  0.567250664
     0.971541617  0.820478096  0.562135749
     0.262335729  0.446244230  0.562605631
     0.199305353  0.019455289  0.561334320
     0.705973127  0.990732955  0.565141050
     0.325766389  0.040836839  0.558457707
     0.274066339  0.574255640  0.559509553
     0.820464935  0.049643093  0.562592017
     0.056704959  0.198819069  0.657201761
     0.051286539  0.702844339  0.657320132
     0.544441691  0.197022125  0.655986003
     0.540641748  0.711842863  0.658917497
     0.216722930  0.449443613  0.659377245
     0.196337164  0.958926360  0.655986308
     0.692025619  0.467003442  0.658002092
     0.706069359  0.952043454  0.658819089
     0.464149323  0.297911143  0.657414206
     0.447328983  0.800733497  0.655494632
     0.961766602  0.284895612  0.661642896
     0.948086152  0.779283955  0.660551125
     0.300163981  0.036468400  0.658661037
     0.294821643  0.552436725  0.658007586
     0.794016609  0.047001343  0.658898023
     0.806562343  0.525837031  0.656412174
     0.045862501  0.204119496  0.752725994
     0.045862500  0.704119456  0.752725994
     0.545862507  0.204119496  0.752725994
     0.545862496  0.704119456  0.752725994
     0.204119002  0.454101003  0.752704994
     0.204118991  0.954100951  0.752704994
     0.704118976  0.454101003  0.752704994
     0.704118964  0.954100951  0.752704994
     0.454140018  0.295888490  0.752726971
     0.454140007  0.795888516  0.752726971
     0.954140018  0.295888490  0.752726971
     0.954140060  0.795888516  0.752726971
     0.295882492  0.045900498  0.752704994
     0.295882481  0.545900528  0.752704994
     0.795882439  0.045900498  0.752704994
     0.795882481  0.545900528  0.752704994
     0.779191147  0.519625751  0.547520888
     0.509499017  0.976450264  0.552622250
     0.468925904  0.504109404  0.553521966
     0.007997486  0.012574829  0.551298804
     0.033362549  0.492533402  0.554554155
     0.254888843  0.242558269  0.554859819
     0.231925339  0.767095764  0.551273103
     0.736230269  0.225233891  0.555104131
     0.726019550  0.796266231  0.554337925
     0.995525963  0.983973195  0.654115755
     0.005745168  0.502329751  0.655479248
     0.497079953  0.001511951  0.654592291
     0.497860729  0.500471114  0.654210196
     0.263943877  0.240102411  0.655515083
     0.245592806  0.753072483  0.653652040
     0.743634480  0.260685595  0.655231518
     0.750704154  0.738301534  0.654600716
     0.137271236  0.115831217  0.608974708
     0.146486506  0.608731061  0.606458335
     0.640828657  0.109408284  0.608923245
     0.617032930  0.630703828  0.608655796
     0.367998986  0.384424852  0.609261813
     0.364638145  0.886302576  0.605594759
     0.887830690  0.363722925  0.612573755
     0.862867176  0.890312350  0.605460211
     0.126490042  0.369862744  0.611339316
     0.117023570  0.872530981  0.606137043
     0.618720801  0.370912204  0.601992659
     0.615935323  0.865383915  0.612160342
     0.398034538  0.141179434  0.604212464
     0.378652834  0.632189080  0.607701137
     0.881931353  0.132536648  0.612922458
     0.902888471  0.649145432  0.610871266
     0.000000000  0.000000000  0.754927972
     0.000000000  0.500000000  0.754927972
     0.500000000  0.000000000  0.754927972
     0.499999989  0.500000000  0.754927972
     0.250000496  0.250000000  0.754939022
     0.250000511  0.749999974  0.754939022
     0.750000470  0.250000000  0.754939022
     0.750000458  0.749999974  0.754939022
     0.135790500  0.114209997  0.704782994
     0.135790502  0.614209984  0.704782994
     0.635790447  0.114209997  0.704782994
     0.635790488  0.614209984  0.704782994
     0.364209516  0.385789989  0.704782994
     0.364209505  0.885789963  0.704782994
     0.864209542  0.385789989  0.704782994
     0.864209531  0.885789963  0.704782994
     0.114217990  0.364218986  0.704780979
     0.114217992  0.864218986  0.704780979
     0.614218004  0.364218986  0.704780979
     0.614217992  0.864218986  0.704780979
     0.385782012  0.135781489  0.704782017
     0.385782001  0.635781489  0.704782017
     0.885781985  0.135781489  0.704782017
     0.885782027  0.635781489  0.704782017
     0.134667000  0.115332001  0.801256025
     0.134666989  0.615331988  0.801256025
     0.634666987  0.115332001  0.801256025
     0.634666976  0.615331988  0.801256025
     0.365333002  0.384667985  0.801256025
     0.365332990  0.884667959  0.801256025
     0.865332949  0.384667985  0.801256025
     0.865332938  0.884667959  0.801256025
     0.115328503  0.365337004  0.801264999
     0.115328505  0.865336978  0.801264999
     0.615328503  0.365337004  0.801264999
     0.615328492  0.865336978  0.801264999
     0.384671513  0.134662996  0.801264999
     0.384671501  0.634662970  0.801264999
     0.884671486  0.134662996  0.801264999
     0.884671528  0.634662970  0.801264999
     0.999174854  0.006393799  0.604065767
     0.008509175  0.503638290  0.604151966
     0.502306910  0.994289083  0.602888651
     0.498607923  0.500752631  0.603233691
     0.255720276  0.249688969  0.606046876
     0.244852619  0.756706338  0.603237293
     0.748571190  0.251189427  0.605905307
     0.750713615  0.758889945  0.604466421
     0.000000500  0.000000500  0.704828963
     0.000000500  0.500000475  0.704828963
     0.500000475  0.000000500  0.704828963
     0.500000464  0.500000475  0.704828963
     0.249999994  0.249999472  0.704824995
     0.250000010  0.749999498  0.704824995
     0.749999994  0.249999472  0.704824995
     0.749999983  0.749999498  0.704824995
     0.000000000  0.000000000  0.807317968
     0.000000000  0.500000000  0.807317968
     0.500000000  0.000000000  0.807317968
     0.499999989  0.500000000  0.807317968
     0.249999994  0.250000000  0.807317968
     0.250000010  0.749999974  0.807317968
     0.749999994  0.250000000  0.807317968
     0.749999983  0.749999974  0.807317968

  ion indices of the primitive-cell ions
   primitive index   ion index
                 1           1
                 2           2
                 3           3
                 4           4
                 5           5
                 6           6
                 7           7
                 8           8
                 9           9
                10          10
                11          11
                12          12
                13          13
                14          14
                15          15
                16          16
                17          17
                18          18
                19          19
                20          20
                21          21
                22          22
                23          23
                24          24
                25          25
                26          26
                27          27
                28          28
                29          29
                30          30
                31          31
                32          32
                33          33
                34          34
                35          35
                36          36
                37          37
                38          38
                39          39
                40          40
                41          41
                42          42
                43          43
                44          44
                45          45
                46          46
                47          47
                48          48
                49          49
                50          50
                51          51
                52          52
                53          53
                54          54
                55          55
                56          56
                57          57
                58          58
                59          59
                60          60
                61          61
                62          62
                63          63
                64          64
                65          65
                66          66
                67          67
                68          68
                69          69
                70          70
                71          71
                72          72
                73          73
                74          74
                75          75
                76          76
                77          77
                78          78
                79          79
                80          80
                81          81
                82          82
                83          83
                84          84
                85          85
                86          86
                87          87
                88          88
                89          89
                90          90
                91          91
                92          92
                93          93
                94          94
                95          95
                96          96
                97          97
                98          98
                99          99
               100         100
               101         101
               102         102
               103         103
               104         104
               105         105
               106         106
               107         107
               108         108
               109         109
               110         110
               111         111
               112         112
               113         113
               114         114
               115         115
               116         116
               117         117
               118         118
               119         119
               120         120
               121         121
               122         122
               123         123
               124         124
               125         125
               126         126
               127         127
               128         128
               129         129
               130         130
               131         131
               132         132
               133         133
               134         134
               135         135
               136         136
               137         137
               138         138
               139         139
               140         140
               141         141
               142         142
               143         143
               144         144
               145         145
               146         146
               147         147
               148         148
               149         149
               150         150
               151         151
               152         152
               153         153
               154         154
               155         155
               156         156
               157         157
               158         158
               159         159
               160         160
               161         161
               162         162
               163         163
               164         164
               165         165
               166         166
               167         167
               168         168
               169         169
               170         170
               171         171
               172         172
               173         173
               174         174
               175         175
               176         176
               177         177
               178         178
               179         179
               180         180
               181         181
               182         182
               183         183
               184         184
               185         185
               186         186
               187         187
               188         188
               189         189
               190         190
               191         191
               192         192
               193         193
               194         194
               195         195
               196         196
               197         197
               198         198
               199         199
               200         200
               201         201
               202         202
               203         203
               204         204
               205         205
               206         206
               207         207
               208         208
               209         209
               210         210
               211         211
               212         212
               213         213
               214         214
               215         215
               216         216
               217         217
               218         218
               219         219
               220         220
               221         221
               222         222
               223         223
               224         224
               225         225
               226         226
               227         227
               228         228
               229         229
               230         230
               231         231
               232         232
               233         233
               234         234
               235         235
               236         236
               237         237
               238         238
               239         239
               240         240
               241         241
               242         242
               243         243
               244         244
               245         245
               246         246
               247         247
               248         248
               249         249
               250         250
               251         251
               252         252
               253         253
               254         254
               255         255
               256         256
               257         257
               258         258
               259         259
               260         260
               261         261
               262         262
               263         263
               264         264
               265         265
               266         266
               267         267
               268         268
               269         269
               270         270
               271         271
               272         272
               273         273
               274         274
               275         275
               276         276
               277         277
               278         278
               279         279
               280         280
               281         281
               282         282
               283         283
               284         284
               285         285
               286         286
               287         287
               288         288
               289         289
               290         290
               291         291
               292         292
               293         293
               294         294
               295         295
               296         296
               297         297
               298         298
               299         299
               300         300
               301         301
               302         302
               303         303
               304         304
               305         305
               306         306
               307         307
               308         308
               309         309
               310         310
               311         311
               312         312
               313         313
               314         314
               315         315
               316         316
               317         317
               318         318
               319         319
               320         320
               321         321
               322         322
               323         323
               324         324
               325         325

----------------------------------------------------------------------------------------

 
 
 KPOINTS: Automatic Mesh                          

Automatic generation of k-mesh.
 Grid dimensions read from file:
 generate k-points for:    3    3    1

 Generating k-lattice:

  Cartesian coordinates                     Fractional coordinates (reciprocal lattice)
     0.018456177  0.000005026 -0.000000000     0.333333333  0.000000000  0.000000000
     0.000000000  0.018454135  0.000000000     0.000000000  0.333333333  0.000000000
     0.000000000 -0.000000000  0.016003201     0.000000000  0.000000000  1.000000000

  Length of vectors
     0.018456178  0.018454135  0.016003201

  Shift w.r.t. Gamma in fractional coordinates (k-lattice)
     0.000000000  0.000000000  0.000000000

 
 Subroutine IBZKPT returns following result:
 ===========================================
 
 Found      5 irreducible k-points:
 
 Following reciprocal coordinates:
            Coordinates               Weight
  0.000000  0.000000  0.000000      1.000000
  0.333333  0.000000  0.000000      2.000000
  0.000000  0.333333  0.000000      2.000000
  0.333333  0.333333  0.000000      2.000000
 -0.333333  0.333333  0.000000      2.000000
 
 Following cartesian coordinates:
            Coordinates               Weight
  0.000000  0.000000  0.000000      1.000000
  0.018456  0.000005  0.000000      2.000000
  0.000000  0.018454  0.000000      2.000000
  0.018456  0.018459  0.000000      2.000000
 -0.018456  0.018449  0.000000      2.000000
 


--------------------------------------------------------------------------------------------------------




 Dimension of arrays:
   k-points           NKPTS =      5   k-points in BZ     NKDIM =      5   number of bands    NBANDS=    732
   number of dos      NEDOS =    301   number of ions     NIONS =    325
   non local maximal  LDIM  =      5   non local SUM 2l+1 LMDIM =     13
   total plane-waves  NPLWV = ******
   max r-space proj   IRMAX =   3336   max aug-charges    IRDMAX=  19845
   dimension x,y,z NGX =   100 NGY =  100 NGZ =  350
   dimension x,y,z NGXF=   200 NGYF=  200 NGZF=  700
   support grid    NGXF=   200 NGYF=  200 NGZF=  700
   ions per type =             143  39  47  72  24
   NGX,Y,Z   is equivalent  to a cutoff of   9.20,  9.20,  9.31 a.u.
   NGXF,Y,Z  is equivalent  to a cutoff of  18.41, 18.41, 18.62 a.u.

 SYSTEM =  PSC                                     
 POSCAR =   H  C  N  I Pb                          

 Startparameter for this run:
   NWRITE =      2    write-flag & timer
   PREC   = normal    normal or accurate (medium, high low for compatibility)
   ISTART =      0    job   : 0-new  1-cont  2-samecut
   ICHARG =      1    charge: 1-file 2-atom 10-const
   ISPIN  =      1    spin polarized calculation?
   LNONCOLLINEAR =      F non collinear calculations
   LSORBIT =      F    spin-orbit coupling
   INIWAV =      1    electr: 0-lowe 1-rand  2-diag
   LASPH  =      F    aspherical Exc in radial PAW
 Electronic Relaxation 1
   ENCUT  =  500.0 eV  36.75 Ry    6.06 a.u.  32.93 32.93113.93*2*pi/ulx,y,z
   ENINI  =  500.0     initial cutoff
   ENAUG  =  644.9 eV  augmentation charge cutoff
   NELM   =    600;   NELMIN=  2; NELMDL=  0     # of ELM steps 
   EDIFF  = 0.1E-03   stopping-criterion for ELM
   LREAL  =      T    real-space projection
   NLSPLINE    = F    spline interpolate recip. space projectors
   LCOMPAT=      F    compatible to vasp.4.4
   GGA_COMPAT  = F    GGA compatible to vasp.4.4-vasp.4.6
   LMAXPAW     = -100 max onsite density
   LMAXMIX     =    2 max onsite mixed and CHGCAR
   VOSKOWN=      0    Vosko Wilk Nusair interpolation
   ROPT   =   -0.00050  -0.00050  -0.00050  -0.00050
   ROPT   =   -0.00050
 Ionic relaxation
   EDIFFG = 0.1E-02   stopping-criterion for IOM
   NSW    =      0    number of steps for IOM
   NBLOCK =      1;   KBLOCK =      1    inner block; outer block 
   IBRION =     -1    ionic relax: 0-MD 1-quasi-New 2-CG
   NFREE  =      0    steps in history (QN), initial steepest desc. (CG)
   ISIF   =      2    stress and relaxation
   IWAVPR =     10    prediction:  0-non 1-charg 2-wave 3-comb
   ISYM   =      0    0-nonsym 1-usesym 2-fastsym
   LCORR  =      T    Harris-Foulkes like correction to forces

   POTIM  = 0.5000    time-step for ionic-motion
   TEIN   =    0.0    initial temperature
   TEBEG  =    0.0;   TEEND  =   0.0 temperature during run
   SMASS  =  -3.00    Nose mass-parameter (am)
   estimated Nose-frequenzy (Omega)   =  0.10E-29 period in steps = 0.13E+47 mass=  -0.745E-26a.u.
   SCALEE = 1.0000    scale energy and forces
   NPACO  =    256;   APACO  = 16.0  distance and # of slots for P.C.
   PSTRESS=    0.0 pullay stress

  Mass of Ions in am
   POMASS =   1.00 12.01 14.00126.90207.20
  Ionic Valenz
   ZVAL   =   1.00  4.00  5.00  7.00  4.00
  Atomic Wigner-Seitz radii
   RWIGS  =  -1.00 -1.00 -1.00 -1.00 -1.00
  virtual crystal weights 
   VCA    =   1.00  1.00  1.00  1.00  1.00
   NELECT =    1134.0000    total number of electrons
   NUPDOWN=      -1.0000    fix difference up-down

 DOS related values:
   EMIN   =  10.00;   EMAX   =-10.00  energy-range for DOS
   EFERMI =   0.00
   ISMEAR =     0;   SIGMA  =   0.05  broadening in eV -4-tet -1-fermi 0-gaus

 Electronic relaxation 2 (details)
   IALGO  =     38    algorithm
   LDIAG  =      T    sub-space diagonalisation (order eigenvalues)
   LSUBROT=      F    optimize rotation matrix (better conditioning)
   TURBO    =      0    0=normal 1=particle mesh
   IRESTART =      0    0=no restart 2=restart with 2 vectors
   NREBOOT  =      0    no. of reboots
   NMIN     =      0    reboot dimension
   EREF     =   0.00    reference energy to select bands
   IMIX   =      4    mixing-type and parameters
     AMIX     =   0.40;   BMIX     =  0.01
     AMIX_MAG =   1.60;   BMIX_MAG =  0.01
     AMIN     =   0.01
     WC   =   100.;   INIMIX=   1;  MIXPRE=   1;  MAXMIX= -45

 Intra band minimization:
   WEIMIN = 0.0000     energy-eigenvalue tresh-hold
   EBREAK =  0.34E-07  absolut break condition
   DEPER  =   0.30     relativ break condition  

   TIME   =   0.40     timestep for ELM

  volume/ion in A,a.u.               =      62.72       423.28
  Fermi-wavevector in a.u.,A,eV,Ry     =   0.624944  1.180972  5.313816  0.390554
  Thomas-Fermi vector in A             =   1.685677
 
 Write flags
   LWAVE        =      F    write WAVECAR
   LDOWNSAMPLE  =      F    k-point downsampling of WAVECAR
   LCHARG       =      T    write CHGCAR
   LVTOT        =      T    write LOCPOT, total local potential
   LVHAR        =      F    write LOCPOT, Hartree potential only
   LELF         =      F    write electronic localiz. function (ELF)
   LORBIT       =      0    0 simple, 1 ext, 2 COOP (PROOUT), +10 PAW based schemes


 Dipole corrections
   LMONO  =      F    monopole corrections only (constant potential shift)
   LDIPOL =      T    correct potential (dipole corrections)
   IDIPOL =      3    1-x, 2-y, 3-z, 4-all directions 
   EPSILON=  1.0000000 bulk dielectric constant

 Exchange correlation treatment:
   GGA     =    --    GGA type
   LEXCH   =     8    internal setting for exchange type
   VOSKOWN=      0    Vosko Wilk Nusair interpolation
   LHFCALC =     F    Hartree Fock is set to
   LHFONE  =     F    Hartree Fock one center treatment
   AEXX    =    0.0000 exact exchange contribution

 Linear response parameters
   LEPSILON=     F    determine dielectric tensor
   LRPA    =     F    only Hartree local field effects (RPA)
   LNABLA  =     F    use nabla operator in PAW spheres
   LVEL    =     F    velocity operator in full k-point grid
   LINTERFAST=   F  fast interpolation
   KINTER  =     0    interpolate to denser k-point grid
   CSHIFT  =0.1000    complex shift for real part using Kramers Kronig
   OMEGAMAX=  -1.0    maximum frequency
   DEG_THRESHOLD= 0.2000000E-02 threshold for treating states as degnerate
   RTIME   =   -0.100 relaxation time in fs
  (WPLASMAI=    0.000 imaginary part of plasma frequency in eV, 0.658/RTIME)
   DFIELD  = 0.0000000 0.0000000 0.0000000 field for delta impulse in time
 
 Orbital magnetization related:
   ORBITALMAG=     F  switch on orbital magnetization
   LCHIMAG   =     F  perturbation theory with respect to B field
   DQ        =  0.001000  dq finite difference perturbation B field
   LLRAUG    =     F  two centre corrections for induced B field



--------------------------------------------------------------------------------------------------------


 Static calculation
 charge density and potential will be updated during run
 non-spin polarized calculation
 Variant of blocked Davidson
 Davidson routine will perform the subspace rotation
 perform sub-space diagonalisation
    after iterative eigenvector-optimisation
 modified Broyden-mixing scheme, WC =      100.0
 initial mixing is a Kerker type mixing with AMIX =  0.4000 and BMIX =      0.0100
 Hartree-type preconditioning will be used
 using additional bands           165
 real space projection scheme for non local part
[...]
     13.54561      0.00000     45.35368         0.004617     -0.007606      0.012541
     13.54315      9.03140     45.35368        -0.007027      0.007020      0.000225
     14.44936      9.18698     32.16237        -0.102803      0.161257     -0.199035
     15.87317      9.04303     33.19881         0.169593      0.052058      0.045192
     13.76966     11.24614     33.24904         0.004347     -0.095733      0.076387
     13.74704     11.30392     35.00357        -0.004172      0.028962      0.065645
     12.39231      8.09554     34.40900         0.023049      0.014358     -0.079595
     12.10072      9.76273     34.88388         0.037207      0.019819     -0.036617
     14.39882      7.71860     35.43127         0.035219     -0.129072      0.046881
     15.65053      8.97087     35.56102        -0.012332     -0.026895     -0.057381
     15.48886      6.78605     33.70205        -0.015735     -0.018907     -0.044560
     13.77620      6.81718     33.31252         0.051543      0.088092      0.003390
     14.12934      6.90114     30.97239         0.101314     -0.040746      0.037986
     15.80475      7.37630     31.11895         0.274054      0.213488     -0.164253
     16.22229     11.18081     33.16455        -0.023013      0.000360      0.074483
     16.34911     10.94056     34.92038        -0.063606      0.006255      0.008643
     15.69109     12.45732     34.27348        -0.020639     -0.002063     -0.009811
     10.83879      9.29733     32.89313         0.213341     -0.066532     -0.078320
     12.27988      8.78814     31.95397        -0.054407     -0.008612      0.035123
     12.04964     10.49360     32.44840         0.065568     -0.087412      0.041441
     12.79334      9.15330     36.73300        -0.183778     -0.100439      0.030875
     14.05769     10.39114     36.92230         0.032862     -0.057066      0.008691
     14.27086      8.76811     37.60285         0.009490      0.049145      0.076969
     14.84741      4.62282     32.06805         0.020915      0.200424     -0.045215
     15.25030      4.96542     30.40248         0.066461     -0.045132     -0.029418
     16.69625      2.88791     31.15257        -0.193984     -0.201936     -0.052290
     17.56509      6.93588     32.35862        -0.095495      0.068525     -0.013962
      1.00827      2.28712     31.47973         0.001812      0.112861      0.000795
      1.82878      6.35653     32.67568         0.075755      0.020984      0.018445
      2.64619      4.02574     32.22345        -0.022104      0.070743     -0.027653
     18.02880      4.27699     34.98602        -0.079539      0.127106      0.278658
      0.49445     13.98527     35.03653         0.199116      0.035563     -0.032168
      9.41882      4.96259     34.97354        -0.644281      0.031672      0.127105
      8.84399     13.75682     34.75909        -0.515660      0.019313     -0.174696
      4.33691      9.23265     34.72210         0.029251      0.199761     -0.082538
      4.81095     18.05799     34.73343         0.045015     -0.076235      0.081606
     14.01716     17.93312     35.00182        -0.009196     -0.112202      0.052478
      0.13781      4.43764     40.61374        -0.129297      0.093712     -0.133237
      0.29434     13.82578     40.88641        -0.470753      0.218868      0.223292
      9.17920      4.54599     40.44538        -0.422497      0.525605     -0.103360
      8.94468     13.60991     40.47584        -0.079178      0.004366      0.029034
      4.57634      9.04914     40.56581         0.061000      0.137821     -0.064642
      4.54581     18.00358     40.48464        -0.171980      0.002222      0.084379
     13.35436      9.27957     40.58540        -0.595237     -0.482064      0.227906
     13.57578     18.02044     40.57885         0.099790      0.145710      0.029039
      9.02897      4.51561     46.44552         0.011437      0.002413      0.030080
      9.02651     13.54701     46.44552         0.026390     -0.009866      0.043152
     18.05937      4.51561     46.44552         0.014414      0.003333      0.044120
     18.05691     13.54701     46.44552         0.016766      0.001006      0.002442
      4.51521      0.00002     46.44421        -0.000929     -0.002833      0.059372
      4.51275      9.03142     46.44421        -0.007425     -0.005377      0.035244
     13.54561      0.00002     46.44421        -0.009531     -0.010839      0.035983
     13.54315      9.03142     46.44421        -0.006366     -0.000358      0.026062
     16.93194      4.95850     31.70765         0.016829      0.054813     -0.063633
     17.39407      3.64823     31.48519         0.295021      0.179832      0.035971
     17.86297      5.91351     32.13540        -0.016159      0.000146      0.013006
      0.68327      3.31737     31.65144        -0.135018      0.002011      0.065337
      1.14772      5.58613     32.31686         0.024416      0.014391     -0.029112
      1.59919      4.29364     32.06746         0.042454     -0.290948     -0.104473
     14.83062      8.74016     33.08072        -0.141133     -0.348922     -0.036504
     14.28949     10.88988     34.14878        -0.088742      0.104923      0.008836
     12.55909      9.13860     34.10655         0.084589      0.033612      0.000078
     14.56646      8.79447     35.52887        -0.086843      0.125176     -0.117296
     14.75499      7.21570     33.00293         0.053382     -0.103412      0.178109
     15.04354      6.73907     31.57238        -0.300255      0.062980      0.046049
     15.72539     11.36868     34.12667         0.100757      0.001872     -0.029956
     11.92720      9.44545     32.75995        -0.136615      0.002130      0.030948
     13.86632      9.32702     36.75103         0.151118      0.042874     -0.065249
     15.47507      5.28204     31.43371        -0.140002     -0.315931      0.047477
      1.10506      4.60627     35.55178        -0.186703      0.014425      0.081511
      0.57916     12.83046     35.64994        -0.041171      0.135619     -0.085913
      9.67236      3.70784     35.28526         0.281837      0.235908     -0.103205
      9.93114     13.16544     35.18116         0.094028      0.214388     -0.134755
      8.21627      5.51967     34.99556         0.583156     -0.072171      0.038092
      7.62222     13.39524     35.09308         0.164997     -0.265349      0.251983
     16.85840      4.66304     35.44608        -0.098848     -0.111820     -0.110684
     17.54278     14.82013     35.12646         0.157172     -0.028974     -0.110830
      4.73580      8.06042     35.15582         0.303216      0.052123      0.243976
      3.59952      0.35142     35.07638         0.088548      0.292630      0.148431
     12.74557     17.89541     35.31425        -0.235763      0.306824      0.203290
      5.88340      0.73763     34.89663         0.027256      0.166868     -0.033010
      4.94703     10.37266     34.96235         0.362433     -0.817790      0.348494
     14.81801      0.89669     35.15497        -0.165533      0.398402      0.095779
      1.02316      3.59123     41.06689         0.426677     -0.387570      0.169686
      0.92282     12.69534     41.07429         0.304332     -0.279258     -0.084944
      9.83208      3.55877     40.99092         0.367739     -0.457689      0.203937
      9.76092     12.85787     41.17411        -0.097971      0.138774      0.410511
      3.91198      8.11821     41.20284         0.094706      0.043608      0.375086
      3.54129     17.32089     40.99094         0.523578      0.340254      0.254638
     12.49624      8.43539     41.11691         0.326460     -0.057326      0.074293
     12.74750     17.19657     41.16796        -0.005483     -0.008917      0.388775
      8.38144      5.38111     41.08017         0.127493     -0.140876     -0.108382
      8.07518     14.46349     40.96022        -0.025955      0.008000      0.099802
     17.36887      5.14601     41.34441         0.077782     -0.051818      0.180152
     17.11936     14.07605     41.27619         0.121870     -0.218321     -0.049698
      5.42102      0.65872     41.15808        -0.796395     -0.480901      0.521286
      5.32200      9.97855     41.11725        -0.066578     -0.073739     -0.294552
     14.34034      0.84898     41.17289        -0.083723     -0.097581     -0.139417
     14.56458      9.49809     41.01756         0.362483      0.127998      0.106504
      0.82731      3.68697     47.03596         0.018488     -0.024667     -0.096484
      0.82485     12.71837     47.03596         0.021911     -0.020067     -0.060699
      9.85771      3.68697     47.03596         0.022569     -0.022649     -0.082291
      9.85525     12.71837     47.03596         0.007294     -0.011609     -0.080714
      3.68432      8.20234     47.03465        -0.007525     -0.012149     -0.069091
      3.68186     17.23373     47.03465        -0.009101     -0.005788     -0.067141
     12.71472      8.20234     47.03465        -0.008359     -0.013325     -0.058802
     12.71226     17.23373     47.03465        -0.010635     -0.005086     -0.071966
      8.20068      5.34457     47.03603        -0.021923      0.020166     -0.084234
      8.19822     14.37597     47.03603        -0.030015      0.025894     -0.085071
     17.23108      5.34457     47.03603        -0.025986      0.019438     -0.105165
     17.22862     14.37597     47.03603        -0.022959      0.026022     -0.065406
      5.34365      0.82909     47.03465         0.007751      0.011419     -0.073845
      5.34119      9.86049     47.03465         0.018340      0.016064     -0.062495
     14.37405      0.82909     47.03465         0.018062      0.021308     -0.066937
     14.37159      9.86049     47.03465         0.018483      0.015818     -0.068931
     14.07026      9.38590     34.21321        -0.125747      0.049431     -0.120088
      9.19716     17.63743     34.53198         0.008814      0.038430      0.030248
      8.46670      9.10563     34.58820         0.008909      0.015492      0.023527
      0.14438      0.22714     34.44928        -0.034792      0.002375      0.005465
      0.60013      8.89653     34.65270        -0.064466     -0.033303     -0.004544
      4.60230      4.38128     34.67180         0.048881     -0.003264     -0.015229
      4.18498     13.85590     34.44768        -0.015080      0.037123     -0.027369
     13.29580      4.06835     34.68707        -0.002697      0.048042     -0.037451
     13.10858     14.38280     34.63919         0.175316     -0.085740     -0.085010
     17.97516     17.77331     40.87406        -0.001827      0.011496      0.001985
      0.10129      9.07348     40.95926         0.013017      0.016790     -0.062085
      8.97765      0.02731     40.90384         0.006007      0.007255     -0.020723
      8.98930      9.03991     40.87996        -0.046153      0.017686      0.017007
      4.76586      4.33692     40.96150        -0.017049      0.003699     -0.019709
      4.43190     13.60260     40.84508         0.011219      0.026382      0.025179
     13.42935      4.70871     40.94378        -0.004867      0.009424      0.059785
     13.55469     13.33579     40.90436        -0.009640     -0.011247     -0.017331
      2.47866      2.09224     38.05331         0.005289      0.003671     -0.002447
      2.64267     10.99539     37.89606         0.002114      0.003598      0.041228
     11.57334      1.97622     38.05009        -0.025580      0.026384      0.002260
     11.14101     11.39228     38.03338         0.033212      0.070393     -0.038324
      6.64447      6.94379     38.07125        -0.031197     -0.005678     -0.003012
      6.58130     16.00911     37.84210        -0.028233     -0.030234      0.017515
     16.03314      6.56985     38.27820         0.013494      0.163464     -0.059133
     15.57969     16.08153     37.83369         0.002515     -0.002321      0.022395
      2.28269      6.68076     38.20107        -0.009076     -0.010706      0.037612
      2.10925     15.76035     37.87599        -0.016072      0.027854      0.010608
     11.17277      6.69971     37.61702        -0.014290     -0.021967     -0.001904
     11.12003     15.63126     38.25237         0.066888     -0.022424      0.024233
      7.18813      2.55010     37.75573        -0.016515      0.013366     -0.016096
      6.83566     11.41910     37.97372        -0.027756      0.032787     -0.008964
     15.92773      2.39398     38.29999         0.035484      0.049453     -0.045617
     16.30370     11.72538     38.17182         0.042018      0.037487     -0.069689
      0.00000      0.00000     47.17356         0.001374      0.005819      0.360690
     -0.00246      9.03140     47.17356        -0.003419     -0.004603      0.481094
      9.03040      0.00000     47.17356        -0.000670     -0.001573      0.451668
      9.02794      9.03140     47.17356        -0.004060      0.000272      0.407694
      4.51398      4.51570     47.17425        -0.001309     -0.005071      0.442531
      4.51152     13.54710     47.17425         0.003567      0.002905      0.346729
     13.54438      4.51570     47.17425         0.004314      0.001079      0.423584
     13.54192     13.54710     47.17425        -0.000615     -0.001616      0.414784
      2.45192      2.06295     44.04013         0.005668     -0.034115     -0.039304
      2.44946     11.09435     44.04013         0.056505     -0.019569     -0.001935
     11.48232      2.06295     44.04013         0.000980      0.002277     -0.066841
     11.47986     11.09435     44.04013        -0.062093      0.022641     -0.013253
      6.57602      6.96845     44.04013        -0.011115     -0.014053     -0.053144
      6.57356     15.99985     44.04013         0.011723     -0.018198     -0.056992
     15.60642      6.96845     44.04013        -0.033270      0.044010     -0.078016
     15.60396     15.99985     44.04013        -0.051571      0.049224     -0.006460
      2.06108      6.57881     44.04000         0.025796     -0.049060     -0.041938
      2.05862     15.61021     44.04000         0.055061      0.070230     -0.029838
     11.09148      6.57881     44.04000         0.003331      0.006380     -0.020297
     11.08902     15.61021     44.04000        -0.017601     -0.010457     -0.038241
      6.96686      2.45259     44.04007         0.028558     -0.013968      0.002211
      6.96440     11.48399     44.04007        -0.005467      0.018786     -0.042826
     15.99726      2.45259     44.04007         0.020546      0.022394     -0.048052
     15.99481     11.48399     44.04007         0.023090     -0.002318     -0.088307
      2.43163      2.08322     50.06849         0.003325     -0.015729      0.022042
      2.42917     11.11462     50.06849         0.020033     -0.001531      0.026625
     11.46203      2.08322     50.06849         0.011941     -0.008449      0.023911
     11.45957     11.11462     50.06849         0.007957     -0.011401      0.025439
      6.59631      6.94818     50.06849        -0.010146      0.010469      0.024513
      6.59385     15.97958     50.06849        -0.016382      0.005064      0.024111
     15.62671      6.94818     50.06849        -0.014084      0.003862      0.022889
     15.62425     15.97958     50.06849        -0.004584      0.018527      0.026329
      2.08113      6.59901     50.06905        -0.006919     -0.014735      0.024386
      2.07867     15.63041     50.06905        -0.009949     -0.007696      0.024636
     11.11153      6.59901     50.06905        -0.010528     -0.010112      0.024931
     11.10907     15.63041     50.06905        -0.009486     -0.010313      0.025038
      6.94681      2.43239     50.06905         0.008852      0.009488      0.024000
      6.94435     11.46379     50.06905         0.005294      0.015430      0.025144
     15.97721      2.43239     50.06905         0.015698      0.005582      0.023551
     15.97475     11.46379     50.06905         0.006119      0.012839      0.025764
     18.04587      0.11549     37.74656        -0.024067      0.014043      0.026056
      0.15121      9.09712     37.75195         0.020338     -0.045920      0.009360
      9.06717     17.95964     37.67300        -0.002842      0.006192      0.059208
      9.00280      9.04499     37.69456         0.024765     -0.023426     -0.049753
      4.61728      4.51008     37.87035        -0.014630     -0.000933     -0.010651
      4.41851     13.66823     37.69479        -0.002915     -0.001965     -0.011655
     13.51856      4.53718     37.86151        -0.017162      0.001344     -0.002708
     13.55476     13.70768     37.77160        -0.018987     -0.012504     -0.045578
      0.00001      0.00001     44.04300        -0.052164     -0.119309      0.098693
     -0.00245      9.03141     44.04300         0.103407      0.052894      0.213815
      9.03041      0.00001     44.04300        -0.004146     -0.004728      0.039670
      9.02795      9.03141     44.04300         0.073017      0.016480      0.105133
      4.51397      4.51569     44.04275         0.022788      0.045959      0.201155
      4.51151     13.54709     44.04275        -0.100349     -0.015954      0.112884
     13.54437      4.51569     44.04275        -0.068487     -0.014392      0.167153
     13.54191     13.54709     44.04275        -0.008174     -0.002907      0.145081
      0.00000      0.00000     50.44728        -0.003812     -0.000780     -0.615802
     -0.00246      9.03140     50.44728        -0.002725      0.001410     -0.648111
      9.03040      0.00000     50.44728         0.002851      0.001578     -0.639011
      9.02794      9.03140     50.44728         0.002797     -0.001449     -0.630417
      4.51397      4.51570     50.44728         0.002198      0.006027     -0.635552
      4.51151     13.54710     50.44728         0.000178     -0.005880     -0.614871
     13.54437      4.51570     50.44728        -0.002996      0.005411     -0.629565
     13.54191     13.54710     50.44728        -0.000020     -0.005166     -0.634609
 -----------------------------------------------------------------------------------
    total drift:                                0.057016     -0.063946      0.529444


--------------------------------------------------------------------------------------------------------



  FREE ENERGIE OF THE ION-ELECTRON SYSTEM (eV)
  ---------------------------------------------------
  free  energy   TOTEN  =     -1576.13124226 eV

  energy  without entropy=    -1576.13124226  energy(sigma->0) =    -1576.13124226
 


--------------------------------------------------------------------------------------------------------


    POTLOK:  cpu time    0.5032: real time    0.5033


--------------------------------------------------------------------------------------------------------


     LOOP+:  cpu time  265.6323: real time  266.1993
 vacuum level on the upper side and lower side of the slab         2.311         1.528
    4ORBIT:  cpu time    0.0000: real time    0.0000

 total amount of memory used by VASP MPI-rank0  8653580. kBytes
=======================================================================

   base      :      30000. kBytes
   nonlr-proj:      53618. kBytes
   fftplans  :     249280. kBytes
   grid      :     701440. kBytes
   one-center:       2636. kBytes
   wavefun   :    7616606. kBytes
 
  
  
 General timing and accounting informations for this job:
 ========================================================
  
                  Total CPU time used (sec):      477.637
                            User time (sec):      390.206
                          System time (sec):       87.431
                         Elapsed time (sec):      480.764
  
                   Maximum memory used (kb):    10309336.
                   Average memory used (kb):          N/A
  
                          Minor page faults:      3542685
                          Major page faults:           12
                 Voluntary context switches:        10772
