<?xml version="1.0" encoding="ISO-8859-1"?>
<modeling>
 <generator>
  <i name="program" type="string">vasp </i>
  <i name="version" type="string">6.2.1  </i>
  <i name="subversion" type="string">16May21 (build Nov 15 2021 14:57:28) complex                          parallel </i>
  <i name="platform" type="string">LinuxPGI </i>
  <i name="date" type="string">2023 07 30 </i>
  <i name="time" type="string">13:38:15 </i>
 </generator>
 <incar>
  <i type="string" name="SYSTEM">PSC</i>
  <i type="int" name="ISTART">     1</i>
  <i type="string" name="PREC">Normal</i>
  <i name="BMIX">      0.01000000</i>
  <i name="AMIN">      0.01000000</i>
  <i type="int" name="ICHARG">     1</i>
  <i type="int" name="NELM">   600</i>
  <i type="int" name="ISYM">     0</i>
  <i name="ENCUT">    500.00000000</i>
  <i type="string" name="LREAL">Auto</i>
  <i type="int" name="ISMEAR">     0</i>
  <i name="SIGMA">      0.05000000</i>
  <i type="logical" name="LWAVE"> F  </i>
  <i type="logical" name="LVTOT"> T  </i>
  <i type="logical" name="GGA_COMPAT"> F  </i>
  <i type="logical" name="LDIPOL"> T  </i>
  <i type="int" name="IDIPOL">     3</i>
  <i type="int" name="IVDW">    12</i>
 </incar>
 <primitive_cell>
  <structure name="primitive_cell" >
   <crystal>
    <varray name="basis" >
     <v>      18.06080055       0.00000000       0.00000000 </v>
     <v>      -0.00491865      18.06279945       0.00000000 </v>
     <v>       0.00000000       0.00000000      62.48749924 </v>
    </varray>
    <i name="volume">  20385.21054034 </i>
    <varray name="rec_basis" >
     <v>       0.05536853       0.00001508      -0.00000000 </v>
     <v>       0.00000000       0.05536240       0.00000000 </v>
     <v>       0.00000000      -0.00000000       0.01600320 </v>
    </varray>
   </crystal>
   <varray name="positions" >
    <v>       0.40925470       0.27908148       0.56583644 </v>
    <v>       0.41277706       0.70079537       0.57294596 </v>
    <v>       0.92846391       0.28981335       0.58094145 </v>
    <v>       0.93166410       0.81478946       0.57355985 </v>
    <v>       0.32370094       0.09236120       0.56533219 </v>
    <v>       0.31889572       0.57633629       0.56963475 </v>
    <v>       0.80243274       0.09948389       0.56864682 </v>
    <v>       0.11075043       0.24066479       0.56216701 </v>
    <v>       0.07952027       0.67988288       0.56946821 </v>
    <v>       0.59005747       0.18871525       0.56496279 </v>
    <v>       0.60127625       0.75034918       0.55893894 </v>
    <v>       0.37767910       0.02032975       0.55497227 </v>
    <v>       0.25317398       0.62309938       0.55441631 </v>
    <v>       0.87501327       0.04479679       0.55837712 </v>
    <v>       0.06327235       0.28684480       0.58261348 </v>
    <v>       0.99425020       0.69441772       0.58185295 </v>
    <v>       0.49640096       0.17235437       0.57170828 </v>
    <v>       0.54927568       0.68965035       0.57472677 </v>
    <v>       0.30659091       0.43947622       0.57283754 </v>
    <v>       0.18869732       0.06712163       0.56977589 </v>
    <v>       0.67962489       0.03316026       0.57302080 </v>
    <v>       0.45112771       0.36191199       0.55766739 </v>
    <v>       0.37614501       0.76841697       0.55611801 </v>
    <v>       0.88505347       0.24013243       0.56045328 </v>
    <v>       0.97828541       0.87298795       0.55614914 </v>
    <v>       0.23436618       0.39929097       0.55878193 </v>
    <v>       0.15475223       0.98635479       0.55873877 </v>
    <v>       0.67765951       0.94230051       0.56362872 </v>
    <v>       0.56800144       0.30935270       0.55468651 </v>
    <v>       0.49529115       0.80855732       0.54530890 </v>
    <v>       0.99980508       0.20175389       0.54577573 </v>
    <v>       0.07458621       0.79005162       0.55060970 </v>
    <v>       0.18959427       0.51248845       0.54615709 </v>
    <v>       0.27395034       0.94484418       0.54880404 </v>
    <v>       0.79953064       0.94239478       0.55338034 </v>
    <v>       0.45303716       0.29412457       0.67333566 </v>
    <v>       0.44030389       0.81146885       0.67143239 </v>
    <v>       0.96030894       0.28230414       0.67796360 </v>
    <v>       0.91567533       0.74047342       0.66814084 </v>
    <v>       0.29853608       0.04191317       0.67496386 </v>
    <v>       0.30355161       0.55762552       0.67398783 </v>
    <v>       0.79607213       0.05450211       0.67498120 </v>
    <v>       0.82882165       0.50015739       0.66938602 </v>
    <v>       0.09055616       0.17109167       0.64664289 </v>
    <v>       0.10530085       0.69785981       0.65245716 </v>
    <v>       0.57735881       0.16376071       0.64668153 </v>
    <v>       0.57552269       0.67723175       0.65111857 </v>
    <v>       0.18648217       0.41247619       0.65078721 </v>
    <v>       0.16283789       0.93124001       0.64574909 </v>
    <v>       0.64052610       0.46191696       0.65152344 </v>
    <v>       0.67549394       0.91694080       0.64958018 </v>
    <v>       0.06524415       0.18778985       0.67314214 </v>
    <v>       0.02869216       0.65755267       0.66465314 </v>
    <v>       0.54371853       0.18532405       0.67202626 </v>
    <v>       0.54374251       0.71255294       0.67525023 </v>
    <v>       0.21667755       0.44443506       0.67568086 </v>
    <v>       0.18625309       0.95466412       0.67203810 </v>
    <v>       0.70191984       0.43540069       0.67134943 </v>
    <v>       0.69832810       0.95030500       0.67506385 </v>
    <v>       0.43894929       0.33965190       0.64915499 </v>
    <v>       0.41434284       0.82959848       0.64520571 </v>
    <v>       0.92579499       0.31989194       0.65420629 </v>
    <v>       0.92635564       0.83063072       0.65800405 </v>
    <v>       0.34134725       0.06213372       0.65093391 </v>
    <v>       0.32025976       0.59018117       0.64836918 </v>
    <v>       0.82780185       0.07958816       0.64979000 </v>
    <v>       0.83884603       0.56372107       0.64891226 </v>
    <v>       0.00444198       0.25261832       0.63264918 </v>
    <v>       0.04578383       0.80996539       0.64602423 </v>
    <v>       0.51435702       0.26079660       0.63009429 </v>
    <v>       0.49811736       0.74770528       0.63045184 </v>
    <v>       0.25768991       0.99504656       0.63059323 </v>
    <v>       0.24856008       0.50153119       0.63181057 </v>
    <v>       0.75532116       0.99403892       0.63206825 </v>
    <v>       0.72058546       0.54431512       0.63557219 </v>
    <v>       0.44874502       0.30128397       0.76888902 </v>
    <v>       0.44874501       0.80128391       0.76888902 </v>
    <v>       0.94874497       0.30128397       0.76888902 </v>
    <v>       0.94874501       0.80128391       0.76888902 </v>
    <v>       0.30127600       0.05129450       0.76887296 </v>
    <v>       0.30127601       0.55129450       0.76887296 </v>
    <v>       0.80127594       0.05129450       0.76887296 </v>
    <v>       0.80127598       0.55129450       0.76887296 </v>
    <v>       0.07877100       0.17118050       0.74344197 </v>
    <v>       0.07877101       0.67118045       0.74344197 </v>
    <v>       0.57877100       0.17118050       0.74344197 </v>
    <v>       0.57877099       0.67118045       0.74344197 </v>
    <v>       0.17119950       0.42117448       0.74342103 </v>
    <v>       0.17119950       0.92117451       0.74342103 </v>
    <v>       0.67119951       0.42117448       0.74342103 </v>
    <v>       0.67119950       0.92117451       0.74342103 </v>
    <v>       0.05125600       0.19871499       0.76888902 </v>
    <v>       0.05125600       0.69871493       0.76888902 </v>
    <v>       0.55125603       0.19871499       0.76888902 </v>
    <v>       0.55125602       0.69871493       0.76888902 </v>
    <v>       0.19872349       0.44870397       0.76887205 </v>
    <v>       0.19872349       0.94870397       0.76887205 </v>
    <v>       0.69872352       0.44870397       0.76887205 </v>
    <v>       0.69872351       0.94870397       0.76887205 </v>
    <v>       0.42123152       0.32881747       0.74344197 </v>
    <v>       0.42123151       0.82881744       0.74344197 </v>
    <v>       0.92123147       0.32881747       0.74344197 </v>
    <v>       0.92123151       0.82881744       0.74344197 </v>
    <v>       0.32880050       0.07882500       0.74342103 </v>
    <v>       0.32880049       0.57882496       0.74342103 </v>
    <v>       0.82880048       0.07882500       0.74342103 </v>
    <v>       0.82880052       0.57882496       0.74342103 </v>
    <v>       0.00000350       0.25000148       0.72582199 </v>
    <v>       0.00000350       0.75000145       0.72582199 </v>
    <v>       0.50000351       0.25000148       0.72582199 </v>
    <v>       0.50000350       0.75000145       0.72582199 </v>
    <v>       0.25000050       0.00000000       0.72580398 </v>
    <v>       0.25000052       0.50000000       0.72580398 </v>
    <v>       0.75000050       0.00000000       0.72580398 </v>
    <v>       0.75000049       0.50000000       0.72580398 </v>
    <v>       0.80017809       0.50861336       0.51470091 </v>
    <v>       0.87901050       0.50064360       0.53128723 </v>
    <v>       0.76257546       0.62261316       0.53209110 </v>
    <v>       0.76132378       0.62581244       0.56016911 </v>
    <v>       0.68626591       0.44818882       0.55065408 </v>
    <v>       0.67014610       0.54048829       0.55825369 </v>
    <v>       0.79735789       0.42732013       0.56701368 </v>
    <v>       0.86668216       0.49664914       0.56909014 </v>
    <v>       0.85769749       0.37569190       0.53934066 </v>
    <v>       0.76287050       0.37741546       0.53310699 </v>
    <v>       0.78242502       0.38206387       0.49565740 </v>
    <v>       0.87519693       0.40836961       0.49800277 </v>
    <v>       0.89837306       0.61899668       0.53073903 </v>
    <v>       0.90539135       0.60569562       0.55883791 </v>
    <v>       0.86898046       0.68966725       0.54848531 </v>
    <v>       0.60026801       0.51472227       0.52639532 </v>
    <v>       0.68005150       0.48653263       0.51136577 </v>
    <v>       0.66732886       0.58095102       0.51927830 </v>
    <v>       0.70848644       0.50674866       0.58784560 </v>
    <v>       0.77851030       0.57527828       0.59087502 </v>
    <v>       0.79028901       0.48542366       0.60176599 </v>
    <v>       0.82214910       0.25593069       0.51319145 </v>
    <v>       0.84446155       0.27489744       0.48653701 </v>
    <v>       0.92449033       0.15988187       0.49854088 </v>
    <v>       0.97265803       0.38398695       0.51784149 </v>
    <v>       0.05586103       0.12662051       0.50377639 </v>
    <v>       0.10135245       0.35191303       0.52291544 </v>
    <v>       0.14657639       0.22287447       0.51567840 </v>
    <v>       0.99829250       0.23678455       0.55988829 </v>
    <v>       0.02758770       0.77425819       0.56069668 </v>
    <v>       0.52158123       0.27474100       0.55968860 </v>
    <v>       0.48988638       0.76161056       0.55625664 </v>
    <v>       0.24026758       0.51114195       0.55566473 </v>
    <v>       0.26664725       0.99973387       0.55584604 </v>
    <v>       0.77638020       0.99282062       0.56014109 </v>
    <v>       0.00769705       0.24567822       0.64994982 </v>
    <v>       0.01650576       0.76542857       0.65431337 </v>
    <v>       0.50830753       0.25167704       0.64725562 </v>
    <v>       0.49545927       0.75347707       0.64774302 </v>
    <v>       0.25352154       0.50098204       0.64918276 </v>
    <v>       0.25196607       0.99672174       0.64788386 </v>
    <v>       0.73955119       0.51373912       0.64949636 </v>
    <v>       0.75194288       0.99765480       0.64939154 </v>
    <v>       0.49998898       0.24999498       0.74327702 </v>
    <v>       0.49998903       0.74999496       0.74327702 </v>
    <v>       0.99998898       0.24999498       0.74327702 </v>
    <v>       0.99998903       0.74999496       0.74327702 </v>
    <v>       0.25000050       0.00000100       0.74325596 </v>
    <v>       0.25000052       0.50000100       0.74325596 </v>
    <v>       0.75000050       0.00000100       0.74325596 </v>
    <v>       0.75000049       0.50000100       0.74325596 </v>
    <v>       0.93757131       0.27451474       0.50742382 </v>
    <v>       0.96313931       0.20197471       0.50386375 </v>
    <v>       0.98913559       0.32738599       0.51426918 </v>
    <v>       0.03788165       0.18365760       0.50652441 </v>
    <v>       0.06363202       0.30926146       0.51717314 </v>
    <v>       0.08860952       0.23770648       0.51318193 </v>
    <v>       0.82128163       0.48387632       0.52939733 </v>
    <v>       0.79135246       0.60288968       0.54648986 </v>
    <v>       0.69551603       0.50593504       0.54581400 </v>
    <v>       0.80665618       0.48688320       0.56857558 </v>
    <v>       0.81707084       0.39947837       0.52815251 </v>
    <v>       0.83304048       0.37309119       0.50525908 </v>
    <v>       0.87086313       0.62939767       0.54613591 </v>
    <v>       0.66053382       0.52292260       0.52426404 </v>
    <v>       0.76789838       0.51636650       0.58813417 </v>
    <v>       0.85691132       0.29242660       0.50303998 </v>
    <v>       0.06125482       0.25501422       0.56894235 </v>
    <v>       0.03226094       0.71032488       0.57051316 </v>
    <v>       0.53560008       0.20527488       0.56467703 </v>
    <v>       0.55007118       0.72887044       0.56301123 </v>
    <v>       0.45500621       0.30558223       0.56004091 </v>
    <v>       0.42223315       0.74159268       0.56160165 </v>
    <v>       0.93349496       0.25815703       0.56725066 </v>
    <v>       0.97154162       0.82047810       0.56213575 </v>
    <v>       0.26233573       0.44624423       0.56260563 </v>
    <v>       0.19930535       0.01945529       0.56133432 </v>
    <v>       0.70597313       0.99073296       0.56514105 </v>
    <v>       0.32576639       0.04083684       0.55845771 </v>
    <v>       0.27406634       0.57425564       0.55950955 </v>
    <v>       0.82046494       0.04964309       0.56259202 </v>
    <v>       0.05670496       0.19881907       0.65720176 </v>
    <v>       0.05128654       0.70284434       0.65732013 </v>
    <v>       0.54444169       0.19702213       0.65598600 </v>
    <v>       0.54064175       0.71184286       0.65891750 </v>
    <v>       0.21672293       0.44944361       0.65937724 </v>
    <v>       0.19633716       0.95892636       0.65598631 </v>
    <v>       0.69202562       0.46700344       0.65800209 </v>
    <v>       0.70606936       0.95204345       0.65881909 </v>
    <v>       0.46414932       0.29791114       0.65741421 </v>
    <v>       0.44732898       0.80073350       0.65549463 </v>
    <v>       0.96176660       0.28489561       0.66164290 </v>
    <v>       0.94808615       0.77928396       0.66055112 </v>
    <v>       0.30016398       0.03646840       0.65866104 </v>
    <v>       0.29482164       0.55243672       0.65800759 </v>
    <v>       0.79401661       0.04700134       0.65889802 </v>
    <v>       0.80656234       0.52583703       0.65641217 </v>
    <v>       0.04586250       0.20411950       0.75272599 </v>
    <v>       0.04586250       0.70411946       0.75272599 </v>
    <v>       0.54586251       0.20411950       0.75272599 </v>
    <v>       0.54586250       0.70411946       0.75272599 </v>
    <v>       0.20411900       0.45410100       0.75270499 </v>
    <v>       0.20411899       0.95410095       0.75270499 </v>
    <v>       0.70411898       0.45410100       0.75270499 </v>
    <v>       0.70411896       0.95410095       0.75270499 </v>
    <v>       0.45414002       0.29588849       0.75272697 </v>
    <v>       0.45414001       0.79588852       0.75272697 </v>
    <v>       0.95414002       0.29588849       0.75272697 </v>
    <v>       0.95414006       0.79588852       0.75272697 </v>
    <v>       0.29588249       0.04590050       0.75270499 </v>
    <v>       0.29588248       0.54590053       0.75270499 </v>
    <v>       0.79588244       0.04590050       0.75270499 </v>
    <v>       0.79588248       0.54590053       0.75270499 </v>
    <v>       0.77919115       0.51962575       0.54752089 </v>
    <v>       0.50949902       0.97645026       0.55262225 </v>
    <v>       0.46892590       0.50410940       0.55352197 </v>
    <v>       0.00799749       0.01257483       0.55129880 </v>
    <v>       0.03336255       0.49253340       0.55455415 </v>
    <v>       0.25488884       0.24255827       0.55485982 </v>
    <v>       0.23192534       0.76709576       0.55127310 </v>
    <v>       0.73623027       0.22523389       0.55510413 </v>
    <v>       0.72601955       0.79626623       0.55433793 </v>
    <v>       0.99552596       0.98397319       0.65411576 </v>
    <v>       0.00574517       0.50232975       0.65547925 </v>
    <v>       0.49707995       0.00151195       0.65459229 </v>
    <v>       0.49786073       0.50047111       0.65421020 </v>
    <v>       0.26394388       0.24010241       0.65551508 </v>
    <v>       0.24559281       0.75307248       0.65365204 </v>
    <v>       0.74363448       0.26068560       0.65523152 </v>
    <v>       0.75070415       0.73830153       0.65460072 </v>
    <v>       0.13727124       0.11583122       0.60897471 </v>
    <v>       0.14648651       0.60873106       0.60645834 </v>
    <v>       0.64082866       0.10940828       0.60892324 </v>
    <v>       0.61703293       0.63070383       0.60865580 </v>
    <v>       0.36799899       0.38442485       0.60926181 </v>
    <v>       0.36463814       0.88630258       0.60559476 </v>
    <v>       0.88783069       0.36372293       0.61257376 </v>
    <v>       0.86286718       0.89031235       0.60546021 </v>
    <v>       0.12649004       0.36986274       0.61133932 </v>
    <v>       0.11702357       0.87253098       0.60613704 </v>
    <v>       0.61872080       0.37091220       0.60199266 </v>
    <v>       0.61593532       0.86538391       0.61216034 </v>
    <v>       0.39803454       0.14117943       0.60421246 </v>
    <v>       0.37865283       0.63218908       0.60770114 </v>
    <v>       0.88193135       0.13253665       0.61292246 </v>
    <v>       0.90288847       0.64914543       0.61087127 </v>
    <v>       0.00000000       0.00000000       0.75492797 </v>
    <v>       0.00000000       0.50000000       0.75492797 </v>
    <v>       0.50000000       0.00000000       0.75492797 </v>
    <v>       0.49999999       0.50000000       0.75492797 </v>
    <v>       0.25000050       0.25000000       0.75493902 </v>
    <v>       0.25000051       0.74999997       0.75493902 </v>
    <v>       0.75000047       0.25000000       0.75493902 </v>
    <v>       0.75000046       0.74999997       0.75493902 </v>
    <v>       0.13579050       0.11421000       0.70478299 </v>
    <v>       0.13579050       0.61420998       0.70478299 </v>
    <v>       0.63579045       0.11421000       0.70478299 </v>
    <v>       0.63579049       0.61420998       0.70478299 </v>
    <v>       0.36420952       0.38578999       0.70478299 </v>
    <v>       0.36420950       0.88578996       0.70478299 </v>
    <v>       0.86420954       0.38578999       0.70478299 </v>
    <v>       0.86420953       0.88578996       0.70478299 </v>
    <v>       0.11421799       0.36421899       0.70478098 </v>
    <v>       0.11421799       0.86421899       0.70478098 </v>
    <v>       0.61421800       0.36421899       0.70478098 </v>
    <v>       0.61421799       0.86421899       0.70478098 </v>
    <v>       0.38578201       0.13578149       0.70478202 </v>
    <v>       0.38578200       0.63578149       0.70478202 </v>
    <v>       0.88578199       0.13578149       0.70478202 </v>
    <v>       0.88578203       0.63578149       0.70478202 </v>
    <v>       0.13466700       0.11533200       0.80125603 </v>
    <v>       0.13466699       0.61533199       0.80125603 </v>
    <v>       0.63466699       0.11533200       0.80125603 </v>
    <v>       0.63466698       0.61533199       0.80125603 </v>
    <v>       0.36533300       0.38466799       0.80125603 </v>
    <v>       0.36533299       0.88466796       0.80125603 </v>
    <v>       0.86533295       0.38466799       0.80125603 </v>
    <v>       0.86533294       0.88466796       0.80125603 </v>
    <v>       0.11532850       0.36533700       0.80126500 </v>
    <v>       0.11532850       0.86533698       0.80126500 </v>
    <v>       0.61532850       0.36533700       0.80126500 </v>
    <v>       0.61532849       0.86533698       0.80126500 </v>
    <v>       0.38467151       0.13466300       0.80126500 </v>
    <v>       0.38467150       0.63466297       0.80126500 </v>
    <v>       0.88467149       0.13466300       0.80126500 </v>
    <v>       0.88467153       0.63466297       0.80126500 </v>
    <v>       0.99917485       0.00639380       0.60406577 </v>
    <v>       0.00850917       0.50363829       0.60415197 </v>
    <v>       0.50230691       0.99428908       0.60288865 </v>
    <v>       0.49860792       0.50075263       0.60323369 </v>
    <v>       0.25572028       0.24968897       0.60604688 </v>
    <v>       0.24485262       0.75670634       0.60323729 </v>
    <v>       0.74857119       0.25118943       0.60590531 </v>
    <v>       0.75071362       0.75888995       0.60446642 </v>
    <v>       0.00000050       0.00000050       0.70482896 </v>
    <v>       0.00000050       0.50000048       0.70482896 </v>
    <v>       0.50000048       0.00000050       0.70482896 </v>
    <v>       0.50000046       0.50000048       0.70482896 </v>
    <v>       0.24999999       0.24999947       0.70482499 </v>
    <v>       0.25000001       0.74999950       0.70482499 </v>
    <v>       0.74999999       0.24999947       0.70482499 </v>
    <v>       0.74999998       0.74999950       0.70482499 </v>
    <v>       0.00000000       0.00000000       0.80731797 </v>
    <v>       0.00000000       0.50000000       0.80731797 </v>
    <v>       0.50000000       0.00000000       0.80731797 </v>
    <v>       0.49999999       0.50000000       0.80731797 </v>
    <v>       0.24999999       0.25000000       0.80731797 </v>
    <v>       0.25000001       0.74999997       0.80731797 </v>
    <v>       0.74999999       0.25000000       0.80731797 </v>
    <v>       0.74999998       0.74999997       0.80731797 </v>
   </varray>
  </structure>
  <varray name="primitive_index" >
   <v type="int" >        1 </v>
   <v type="int" >        2 </v>
   <v type="int" >        3 </v>
   <v type="int" >        4 </v>
   <v type="int" >        5 </v>
   <v type="int" >        6 </v>
   <v type="int" >        7 </v>
   <v type="int" >        8 </v>
   <v type="int" >        9 </v>
   <v type="int" >       10 </v>
   <v type="int" >       11 </v>
   <v type="int" >       12 </v>
   <v type="int" >       13 </v>
   <v type="int" >       14 </v>
   <v type="int" >       15 </v>
   <v type="int" >       16 </v>
   <v type="int" >       17 </v>
   <v type="int" >       18 </v>
   <v type="int" >       19 </v>
   <v type="int" >       20 </v>
   <v type="int" >       21 </v>
   <v type="int" >       22 </v>
   <v type="int" >       23 </v>
   <v type="int" >       24 </v>
   <v type="int" >       25 </v>
   <v type="int" >       26 </v>
   <v type="int" >       27 </v>
   <v type="int" >       28 </v>
   <v type="int" >       29 </v>
   <v type="int" >       30 </v>
   <v type="int" >       31 </v>
   <v type="int" >       32 </v>
   <v type="int" >       33 </v>
   <v type="int" >       34 </v>
   <v type="int" >       35 </v>
   <v type="int" >       36 </v>
   <v type="int" >       37 </v>
   <v type="int" >       38 </v>
   <v type="int" >       39 </v>
   <v type="int" >       40 </v>
   <v type="int" >       41 </v>
   <v type="int" >       42 </v>
   <v type="int" >       43 </v>
   <v type="int" >       44 </v>
   <v type="int" >       45 </v>
   <v type="int" >       46 </v>
   <v type="int" >       47 </v>
   <v type="int" >       48 </v>
   <v type="int" >       49 </v>
   <v type="int" >       50 </v>
   <v type="int" >       51 </v>
   <v type="int" >       52 </v>
   <v type="int" >       53 </v>
   <v type="int" >       54 </v>
   <v type="int" >       55 </v>
   <v type="int" >       56 </v>
   <v type="int" >       57 </v>
   <v type="int" >       58 </v>
   <v type="int" >       59 </v>
   <v type="int" >       60 </v>
   <v type="int" >       61 </v>
   <v type="int" >       62 </v>
   <v type="int" >       63 </v>
   <v type="int" >       64 </v>
   <v type="int" >       65 </v>
   <v type="int" >       66 </v>
   <v type="int" >       67 </v>
   <v type="int" >       68 </v>
   <v type="int" >       69 </v>
   <v type="int" >       70 </v>
   <v type="int" >       71 </v>
   <v type="int" >       72 </v>
   <v type="int" >       73 </v>
   <v type="int" >       74 </v>
   <v type="int" >       75 </v>
   <v type="int" >       76 </v>
   <v type="int" >       77 </v>
   <v type="int" >       78 </v>
   <v type="int" >       79 </v>
   <v type="int" >       80 </v>
   <v type="int" >       81 </v>
   <v type="int" >       82 </v>
   <v type="int" >       83 </v>
   <v type="int" >       84 </v>
   <v type="int" >       85 </v>
   <v type="int" >       86 </v>
   <v type="int" >       87 </v>
   <v type="int" >       88 </v>
   <v type="int" >       89 </v>
   <v type="int" >       90 </v>
   <v type="int" >       91 </v>
   <v type="int" >       92 </v>
   <v type="int" >       93 </v>
   <v type="int" >       94 </v>
   <v type="int" >       95 </v>
   <v type="int" >       96 </v>
   <v type="int" >       97 </v>
   <v type="int" >       98 </v>
   <v type="int" >       99 </v>
   <v type="int" >      100 </v>
   <v type="int" >      101 </v>
   <v type="int" >      102 </v>
   <v type="int" >      103 </v>
   <v type="int" >      104 </v>
   <v type="int" >      105 </v>
   <v type="int" >      106 </v>
   <v type="int" >      107 </v>
   <v type="int" >      108 </v>
   <v type="int" >      109 </v>
   <v type="int" >      110 </v>
   <v type="int" >      111 </v>
   <v type="int" >      112 </v>
   <v type="int" >      113 </v>
   <v type="int" >      114 </v>
   <v type="int" >      115 </v>
   <v type="int" >      116 </v>
   <v type="int" >      117 </v>
   <v type="int" >      118 </v>
   <v type="int" >      119 </v>
   <v type="int" >      120 </v>
   <v type="int" >      121 </v>
   <v type="int" >      122 </v>
   <v type="int" >      123 </v>
   <v type="int" >      124 </v>
   <v type="int" >      125 </v>
   <v type="int" >      126 </v>
   <v type="int" >      127 </v>
   <v type="int" >      128 </v>
   <v type="int" >      129 </v>
   <v type="int" >      130 </v>
   <v type="int" >      131 </v>
   <v type="int" >      132 </v>
   <v type="int" >      133 </v>
   <v type="int" >      134 </v>
   <v type="int" >      135 </v>
   <v type="int" >      136 </v>
   <v type="int" >      137 </v>
   <v type="int" >      138 </v>
   <v type="int" >      139 </v>
   <v type="int" >      140 </v>
   <v type="int" >      141 </v>
   <v type="int" >      142 </v>
   <v type="int" >      143 </v>
   <v type="int" >      144 </v>
   <v type="int" >      145 </v>
   <v type="int" >      146 </v>
   <v type="int" >      147 </v>
   <v type="int" >      148 </v>
   <v type="int" >      149 </v>
   <v type="int" >      150 </v>
   <v type="int" >      151 </v>
   <v type="int" >      152 </v>
   <v type="int" >      153 </v>
   <v type="int" >      154 </v>
   <v type="int" >      155 </v>
   <v type="int" >      156 </v>
   <v type="int" >      157 </v>
   <v type="int" >      158 </v>
   <v type="int" >      159 </v>
   <v type="int" >      160 </v>
   <v type="int" >      161 </v>
   <v type="int" >      162 </v>
   <v type="int" >      163 </v>
   <v type="int" >      164 </v>
   <v type="int" >      165 </v>
   <v type="int" >      166 </v>
   <v type="int" >      167 </v>
   <v type="int" >      168 </v>
   <v type="int" >      169 </v>
   <v type="int" >      170 </v>
   <v type="int" >      171 </v>
   <v type="int" >      172 </v>
   <v type="int" >      173 </v>
   <v type="int" >      174 </v>
   <v type="int" >      175 </v>
   <v type="int" >      176 </v>
   <v type="int" >      177 </v>
   <v type="int" >      178 </v>
   <v type="int" >      179 </v>
   <v type="int" >      180 </v>
   <v type="int" >      181 </v>
   <v type="int" >      182 </v>
   <v type="int" >      183 </v>
   <v type="int" >      184 </v>
   <v type="int" >      185 </v>
   <v type="int" >      186 </v>
   <v type="int" >      187 </v>
   <v type="int" >      188 </v>
   <v type="int" >      189 </v>
   <v type="int" >      190 </v>
   <v type="int" >      191 </v>
   <v type="int" >      192 </v>
   <v type="int" >      193 </v>
   <v type="int" >      194 </v>
   <v type="int" >      195 </v>
   <v type="int" >      196 </v>
   <v type="int" >      197 </v>
   <v type="int" >      198 </v>
   <v type="int" >      199 </v>
   <v type="int" >      200 </v>
   <v type="int" >      201 </v>
   <v type="int" >      202 </v>
   <v type="int" >      203 </v>
   <v type="int" >      204 </v>
   <v type="int" >      205 </v>
   <v type="int" >      206 </v>
   <v type="int" >      207 </v>
   <v type="int" >      208 </v>
   <v type="int" >      209 </v>
   <v type="int" >      210 </v>
   <v type="int" >      211 </v>
   <v type="int" >      212 </v>
   <v type="int" >      213 </v>
   <v type="int" >      214 </v>
   <v type="int" >      215 </v>
   <v type="int" >      216 </v>
   <v type="int" >      217 </v>
   <v type="int" >      218 </v>
   <v type="int" >      219 </v>
   <v type="int" >      220 </v>
   <v type="int" >      221 </v>
   <v type="int" >      222 </v>
   <v type="int" >      223 </v>
   <v type="int" >      224 </v>
   <v type="int" >      225 </v>
   <v type="int" >      226 </v>
   <v type="int" >      227 </v>
   <v type="int" >      228 </v>
   <v type="int" >      229 </v>
   <v type="int" >      230 </v>
   <v type="int" >      231 </v>
   <v type="int" >      232 </v>
   <v type="int" >      233 </v>
   <v type="int" >      234 </v>
   <v type="int" >      235 </v>
   <v type="int" >      236 </v>
   <v type="int" >      237 </v>
   <v type="int" >      238 </v>
   <v type="int" >      239 </v>
   <v type="int" >      240 </v>
   <v type="int" >      241 </v>
   <v type="int" >      242 </v>
   <v type="int" >      243 </v>
   <v type="int" >      244 </v>
   <v type="int" >      245 </v>
   <v type="int" >      246 </v>
   <v type="int" >      247 </v>
   <v type="int" >      248 </v>
   <v type="int" >      249 </v>
   <v type="int" >      250 </v>
   <v type="int" >      251 </v>
   <v type="int" >      252 </v>
   <v type="int" >      253 </v>
   <v type="int" >      254 </v>
   <v type="int" >      255 </v>
   <v type="int" >      256 </v>
   <v type="int" >      257 </v>
   <v type="int" >      258 </v>
   <v type="int" >      259 </v>
   <v type="int" >      260 </v>
   <v type="int" >      261 </v>
   <v type="int" >      262 </v>
   <v type="int" >      263 </v>
   <v type="int" >      264 </v>
   <v type="int" >      265 </v>
   <v type="int" >      266 </v>
   <v type="int" >      267 </v>
   <v type="int" >      268 </v>
   <v type="int" >      269 </v>
   <v type="int" >      270 </v>
   <v type="int" >      271 </v>
   <v type="int" >      272 </v>
   <v type="int" >      273 </v>
   <v type="int" >      274 </v>
   <v type="int" >      275 </v>
   <v type="int" >      276 </v>
   <v type="int" >      277 </v>
   <v type="int" >      278 </v>
   <v type="int" >      279 </v>
   <v type="int" >      280 </v>
   <v type="int" >      281 </v>
   <v type="int" >      282 </v>
   <v type="int" >      283 </v>
   <v type="int" >      284 </v>
   <v type="int" >      285 </v>
   <v type="int" >      286 </v>
   <v type="int" >      287 </v>
   <v type="int" >      288 </v>
   <v type="int" >      289 </v>
   <v type="int" >      290 </v>
   <v type="int" >      291 </v>
   <v type="int" >      292 </v>
   <v type="int" >      293 </v>
   <v type="int" >      294 </v>
   <v type="int" >      295 </v>
   <v type="int" >      296 </v>
   <v type="int" >      297 </v>
   <v type="int" >      298 </v>
   <v type="int" >      299 </v>
   <v type="int" >      300 </v>
   <v type="int" >      301 </v>
   <v type="int" >      302 </v>
   <v type="int" >      303 </v>
   <v type="int" >      304 </v>
   <v type="int" >      305 </v>
   <v type="int" >      306 </v>
   <v type="int" >      307 </v>
   <v type="int" >      308 </v>
   <v type="int" >      309 </v>
   <v type="int" >      310 </v>
   <v type="int" >      311 </v>
   <v type="int" >      312 </v>
   <v type="int" >      313 </v>
   <v type="int" >      314 </v>
   <v type="int" >      315 </v>
   <v type="int" >      316 </v>
   <v type="int" >      317 </v>
   <v type="int" >      318 </v>
   <v type="int" >      319 </v>
   <v type="int" >      320 </v>
   <v type="int" >      321 </v>
   <v type="int" >      322 </v>
   <v type="int" >      323 </v>
   <v type="int" >      324 </v>
   <v type="int" >      325 </v>
  </varray>
 </primitive_cell>
 <kpoints>
  <generation param="Gamma">
   <v type="int" name="divisions">       3        3        1 </v>
   <v name="usershift">      0.00000000       0.00000000       0.00000000 </v>
   <v name="genvec1">      0.33333333       0.00000000       0.00000000 </v>
   <v name="genvec2">      0.00000000       0.33333333       0.00000000 </v>
   <v name="genvec3">      0.00000000       0.00000000       1.00000000 </v>
   <v name="shift">      0.00000000       0.00000000       0.00000000 </v>
  </generation>
  <varray name="kpointlist" >
   <v>       0.00000000       0.00000000       0.00000000 </v>
   <v>       0.33333333       0.00000000       0.00000000 </v>
   <v>       0.00000000       0.33333333       0.00000000 </v>
   <v>       0.33333333       0.33333333       0.00000000 </v>
   <v>      -0.33333333       0.33333333       0.00000000 </v>
  </varray>
  <varray name="weights" >
   <v>       0.11111111 </v>
   <v>       0.22222222 </v>
   <v>       0.22222222 </v>
   <v>       0.22222222 </v>
   <v>       0.22222222 </v>
  </varray>
 </kpoints>
 <parameters>
  <separator name="general" >
   <i type="string" name="SYSTEM">PSC</i>
   <i type="logical" name="LCOMPAT"> F  </i>
  </separator>
  <separator name="electronic" >
   <i type="string" name="PREC">normal</i>
   <i name="ENMAX">    500.00000000</i>
   <i name="ENAUG">    644.87300000</i>
   <i name="EDIFF">      0.00010000</i>
   <i type="int" name="IALGO">    38</i>
   <i type="int" name="IWAVPR">    10</i>
   <i type="int" name="NBANDS">   732</i>
   <i type="int" name="NBANDSLOW">    -1</i>
   <i type="int" name="NBANDSHIGH">    -1</i>
   <i name="NELECT">   1134.00000000</i>
   <i type="int" name="TURBO">     0</i>
   <i type="int" name="IRESTART">     0</i>
   <i type="int" name="NREBOOT">     0</i>
   <i type="int" name="NMIN">     0</i>
   <i name="EREF">      0.00000000</i>
   <separator name="electronic smearing" >
    <i type="int" name="ISMEAR">     0</i>
    <i name="SIGMA">      0.05000000</i>
    <i name="KSPACING">      0.50000000</i>
    <i type="logical" name="KGAMMA"> T  </i>
    <i type="logical" name="KBLOWUP"> T  </i>
   </separator>
   <separator name="electronic projectors" >
    <i type="logical" name="LREAL"> T  </i>
    <v name="ROPT">     -0.00050000     -0.00050000     -0.00050000     -0.00050000     -0.00050000</v>
    <i type="int" name="LMAXPAW">  -100</i>
    <i type="int" name="LMAXMIX">     2</i>
    <i type="logical" name="NLSPLINE"> F  </i>
   </separator>
   <separator name="electronic startup" >
    <i type="int" name="ISTART">     0</i>
    <i type="int" name="ICHARG">     1</i>
    <i type="int" name="INIWAV">     1</i>
   </separator>
   <separator name="electronic spin" >
    <i type="int" name="ISPIN">     1</i>
    <i type="logical" name="LNONCOLLINEAR"> F  </i>
    <v name="MAGMOM">      1.00000000      1.00000000      1.00000000      1.00000000      1.00000000      1.00000000      1.00000000      1.00000000      1.00000000      1.00000000      1.00000000      1.00000000      1.00000000      1.00000000      1.00000000      1.00000000      1.00000000      1.00000000      1.00000000      1.00000000
      1.00000000      1.00000000      1.00000000      1.00000000      1.00000000      1.00000000      1.00000000      1.00000000      1.00000000      1.00000000      1.00000000      1.00000000      1.00000000      1.00000000      1.00000000      1.00000000      1.00000000      1.00000000      1.00000000      1.00000000
      1.00000000      1.00000000      1.00000000      1.00000000      1.00000000      1.00000000      1.00000000      1.00000000      1.00000000      1.00000000      1.00000000      1.00000000      1.00000000      1.00000000      1.00000000      1.00000000      1.00000000      1.00000000      1.00000000      1.00000000
      1.00000000      1.00000000      1.00000000      1.00000000      1.00000000      1.00000000      1.00000000      1.00000000      1.00000000      1.00000000      1.00000000      1.00000000      1.00000000      1.00000000      1.00000000      1.00000000      1.00000000      1.00000000      1.00000000      1.00000000
      1.00000000      1.00000000      1.00000000      1.00000000      1.00000000      1.00000000      1.00000000      1.00000000      1.00000000      1.00000000      1.00000000      1.00000000      1.00000000      1.00000000      1.00000000      1.00000000      1.00000000      1.00000000      1.00000000      1.00000000
      1.00000000      1.00000000      1.00000000      1.00000000      1.00000000      1.00000000      1.00000000      1.00000000      1.00000000      1.00000000      1.00000000      1.00000000      1.00000000      1.00000000      1.00000000      1.00000000      1.00000000      1.00000000      1.00000000      1.00000000
      1.00000000      1.00000000      1.00000000      1.00000000      1.00000000      1.00000000      1.00000000      1.00000000      1.00000000      1.00000000      1.00000000      1.00000000      1.00000000      1.00000000      1.00000000      1.00000000      1.00000000      1.00000000      1.00000000      1.00000000
      1.00000000      1.00000000      1.00000000      1.00000000      1.00000000      1.00000000      1.00000000      1.00000000      1.00000000      1.00000000      1.00000000      1.00000000      1.00000000      1.00000000      1.00000000      1.00000000      1.00000000      1.00000000      1.00000000      1.00000000
      1.00000000      1.00000000      1.00000000      1.00000000      1.00000000      1.00000000      1.00000000      1.00000000      1.00000000      1.00000000      1.00000000      1.00000000      1.00000000      1.00000000      1.00000000      1.00000000      1.00000000      1.00000000      1.00000000      1.00000000
      1.00000000      1.00000000      1.00000000      1.00000000      1.00000000      1.00000000      1.00000000      1.00000000      1.00000000      1.00000000      1.00000000      1.00000000      1.00000000      1.00000000      1.00000000      1.00000000      1.00000000      1.00000000      1.00000000      1.00000000
      1.00000000      1.00000000      1.00000000      1.00000000      1.00000000      1.00000000      1.00000000      1.00000000      1.00000000      1.00000000      1.00000000      1.00000000      1.00000000      1.00000000      1.00000000      1.00000000      1.00000000      1.00000000      1.00000000      1.00000000
      1.00000000      1.00000000      1.00000000      1.00000000      1.00000000      1.00000000      1.00000000      1.00000000      1.00000000      1.00000000      1.00000000      1.00000000      1.00000000      1.00000000      1.00000000      1.00000000      1.00000000      1.00000000      1.00000000      1.00000000
      1.00000000      1.00000000      1.00000000      1.00000000      1.00000000      1.00000000      1.00000000      1.00000000      1.00000000      1.00000000      1.00000000      1.00000000      1.00000000      1.00000000      1.00000000      1.00000000      1.00000000      1.00000000      1.00000000      1.00000000
      1.00000000      1.00000000      1.00000000      1.00000000      1.00000000      1.00000000      1.00000000      1.00000000      1.00000000      1.00000000      1.00000000      1.00000000      1.00000000      1.00000000      1.00000000      1.00000000      1.00000000      1.00000000      1.00000000      1.00000000
      1.00000000      1.00000000      1.00000000      1.00000000      1.00000000      1.00000000      1.00000000      1.00000000      1.00000000      1.00000000      1.00000000      1.00000000      1.00000000      1.00000000      1.00000000      1.00000000      1.00000000      1.00000000      1.00000000      1.00000000
      1.00000000      1.00000000      1.00000000      1.00000000      1.00000000      1.00000000      1.00000000      1.00000000      1.00000000      1.00000000      1.00000000      1.00000000      1.00000000      1.00000000      1.00000000      1.00000000      1.00000000      1.00000000      1.00000000      1.00000000
      1.00000000      1.00000000      1.00000000      1.00000000      1.00000000</v>
    <i name="NUPDOWN">     -1.00000000</i>
    <i type="logical" name="LSORBIT"> F  </i>
    <v name="SAXIS">      0.00000000      0.00000000      1.00000000</v>
    <i type="logical" name="LSPIRAL"> F  </i>
    <v name="QSPIRAL">      0.00000000      0.00000000      0.00000000</v>
    <i type="logical" name="LZEROZ"> F  </i>
   </separator>
   <separator name="electronic exchange-correlation" >
    <i type="logical" name="LASPH"> F  </i>
    <i type="logical" name="LMETAGGA"> F  </i>
   </separator>
   <separator name="electronic convergence" >
    <i type="int" name="NELM">   600</i>
    <i type="int" name="NELMDL">     0</i>
    <i type="int" name="NELMIN">     2</i>
    <i name="ENINI">    500.00000000</i>
    <separator name="electronic convergence detail" >
     <i type="logical" name="LDIAG"> T  </i>
     <i type="logical" name="LSUBROT"> F  </i>
     <i name="WEIMIN">      0.00000000</i>
     <i name="EBREAK">      0.00000003</i>
     <i name="DEPER">      0.30000000</i>
     <i type="int" name="NRMM">     4</i>
     <i name="TIME">      0.40000000</i>
    </separator>
   </separator>
   <separator name="electronic mixer" >
    <i name="AMIX">      0.40000000</i>
    <i name="BMIX">      0.01000000</i>
    <i name="AMIN">      0.01000000</i>
    <i name="AMIX_MAG">      1.60000000</i>
    <i name="BMIX_MAG">      0.01000000</i>
    <separator name="electronic mixer details" >
     <i type="int" name="IMIX">     4</i>
     <i type="logical" name="MIXFIRST"> F  </i>
     <i type="int" name="MAXMIX">   -45</i>
     <i name="WC">    100.00000000</i>
     <i type="int" name="INIMIX">     1</i>
     <i type="int" name="MIXPRE">     1</i>
     <i type="int" name="MREMOVE">     5</i>
    </separator>
   </separator>
   <separator name="electronic dipolcorrection" >
    <i type="logical" name="LDIPOL"> T  </i>
    <i type="logical" name="LMONO"> F  </i>
    <i type="int" name="IDIPOL">     3</i>
    <i name="EPSILON">      1.00000000</i>
    <v name="DIPOL">   -100.00000000   -100.00000000   -100.00000000</v>
    <i name="EFIELD">      0.00000000</i>
   </separator>
  </separator>
  <separator name="grids" >
   <i type="int" name="NGX">   100</i>
   <i type="int" name="NGY">   100</i>
   <i type="int" name="NGZ">   350</i>
   <i type="int" name="NGXF">   200</i>
   <i type="int" name="NGYF">   200</i>
   <i type="int" name="NGZF">   700</i>
   <i type="logical" name="ADDGRID"> F  </i>
  </separator>
  <separator name="ionic" >
   <i type="int" name="NSW">     0</i>
   <i type="int" name="IBRION">    -1</i>
   <i type="int" name="MDALGO">     0</i>
   <i type="int" name="ISIF">     2</i>
   <i name="PSTRESS">      0.00000000</i>
   <i name="EDIFFG">      0.00100000</i>
   <i type="int" name="NFREE">     0</i>
   <i name="POTIM">      0.50000000</i>
   <i name="SMASS">     -3.00000000</i>
   <i name="SCALEE">      1.00000000</i>
  </separator>
  <separator name="ionic md" >
   <i name="TEBEG">      0.00010000</i>
   <i name="TEEND">      0.00010000</i>
   <i type="int" name="NBLOCK">     1</i>
   <i type="int" name="KBLOCK">     1</i>
   <i type="int" name="NPACO">   256</i>
   <i name="APACO">     16.00000000</i>
  </separator>
  <separator name="symmetry" >
   <i type="int" name="ISYM">     0</i>
   <i name="SYMPREC">      0.00001000</i>
  </separator>
  <separator name="dos" >
   <i type="int" name="LORBIT">     0</i>
   <v name="RWIGS">     -1.00000000     -1.00000000     -1.00000000     -1.00000000     -1.00000000</v>
   <i type="int" name="NEDOS">   301</i>
   <i name="EMIN">     10.00000000</i>
   <i name="EMAX">    -10.00000000</i>
   <i name="EFERMI">      0.00000000</i>
  </separator>
  <separator name="writing" >
   <i type="int" name="NWRITE">     2</i>
   <i type="logical" name="LWAVE"> F  </i>
   <i type="logical" name="LDOWNSAMPLE"> F  </i>
   <i type="logical" name="LCHARG"> T  </i>
   <i type="logical" name="LPARD"> F  </i>
   <i type="logical" name="LVTOT"> T  </i>
   <i type="logical" name="LVHAR"> F  </i>
   <i type="logical" name="LELF"> F  </i>
   <i type="logical" name="LOPTICS"> F  </i>
   <v name="STM">      0.00000000      0.00000000      0.00000000      0.00000000      0.00000000      0.00000000      0.00000000</v>
  </separator>
  <separator name="performance" >
   <i type="int" name="NPAR">     4</i>
   <i type="int" name="NSIM">     4</i>
   <i type="int" name="NBLK">    -1</i>
   <i type="logical" name="LPLANE"> T  </i>
   <i type="logical" name="LSCALAPACK"> T  </i>
   <i type="logical" name="LSCAAWARE"> F  </i>
   <i type="logical" name="LSCALU"> F  </i>
   <i type="logical" name="LASYNC"> F  </i>
   <i type="logical" name="LORBITALREAL"> F  </i>
  </separator>
  <separator name="miscellaneous" >
   <i type="int" name="IDIOT">     3</i>
   <i type="int" name="PHON_NSTRUCT">    -1</i>
   <i type="logical" name="LMUSIC"> F  </i>
   <v name="POMASS">      1.00000000     12.01100000     14.00100000    126.90400000    207.20000000</v>
   <v name="DARWINR">      0.00000000      0.00000000      0.00000000      0.00000000      0.00000000</v>
   <v name="DARWINV">      1.00000000      1.00000000      1.00000000      1.00000000      1.00000000</v>
   <i type="logical" name="LCORR"> T  </i>
  </separator>
  <i type="logical" name="GGA_COMPAT"> F  </i>
  <i type="logical" name="LBERRY"> F  </i>
  <i type="int" name="ICORELEVEL">     0</i>
  <i type="logical" name="LDAU"> F  </i>
  <i type="int" name="I_CONSTRAINED_M">     0</i>
  <separator name="electronic exchange-correlation" >
   <i type="string" name="GGA">--</i>
   <i type="int" name="VOSKOWN">     0</i>
   <i type="logical" name="LHFCALC"> F  </i>
   <i type="string" name="PRECFOCK"></i>
   <i type="logical" name="LSYMGRAD"> F  </i>
   <i type="logical" name="LHFONE"> F  </i>
   <i type="logical" name="LRHFCALC"> F  </i>
   <i type="logical" name="LTHOMAS"> F  </i>
   <i type="logical" name="LMODELHF"> F  </i>
   <i type="logical" name="LFOCKACE"> F  </i>
   <i name="ENCUT4O">     -1.00000000</i>
   <i type="int" name="EXXOEP">     0</i>
   <i type="int" name="FOURORBIT">     0</i>
   <i name="AEXX">      0.00000000</i>
   <i name="HFALPHA">      0.00000000</i>
   <i name="MCALPHA">      0.00000000</i>
   <i name="ALDAX">      1.00000000</i>
   <i name="AGGAX">      1.00000000</i>
   <i name="ALDAC">      1.00000000</i>
   <i name="AGGAC">      1.00000000</i>
   <i type="int" name="NKREDX">     1</i>
   <i type="int" name="NKREDY">     1</i>
   <i type="int" name="NKREDZ">     1</i>
   <i type="logical" name="SHIFTRED"> F  </i>
   <i type="logical" name="ODDONLY"> F  </i>
   <i type="logical" name="EVENONLY"> F  </i>
   <i type="int" name="LMAXFOCK">     0</i>
   <i type="int" name="NMAXFOCKAE">     0</i>
   <i type="logical" name="LFOCKAEDFT"> F  </i>
   <i name="HFSCREEN">      0.00000000</i>
   <i name="HFSCREENC">      0.00000000</i>
   <i type="int" name="NBANDSGWLOW">     0</i>
  </separator>
  <separator name="vdW DFT" >
   <i type="logical" name="LUSE_VDW"> F  </i>
   <i name="Zab_VDW">     -0.84910000</i>
   <i name="PARAM1">      0.12340000</i>
   <i name="PARAM2">      1.00000000</i>
   <i name="PARAM3">      0.00000000</i>
  </separator>
  <separator name="model GW" >
   <i type="int" name="MODEL_GW">     0</i>
   <i name="MODEL_EPS0">     37.63423484</i>
   <i name="MODEL_ALPHA">      1.00000000</i>
  </separator>
  <separator name="linear response parameters" >
   <i type="logical" name="LEPSILON"> F  </i>
   <i type="logical" name="LRPA"> F  </i>
   <i type="logical" name="LNABLA"> F  </i>
   <i type="logical" name="LVEL"> F  </i>
   <i type="int" name="KINTER">     0</i>
   <i name="CSHIFT">      0.10000000</i>
   <i name="OMEGAMAX">     -1.00000000</i>
   <i name="DEG_THRESHOLD">      0.00200000</i>
   <i name="RTIME">     -0.10000000</i>
   <i name="WPLASMAI">      0.00000000</i>
   <v name="DFIELD">      0.00000000      0.00000000      0.00000000</v>
   <v name="WPLASMA">      0.00000000      0.00000000      0.00000000      0.00000000      0.00000000      0.00000000      0.00000000      0.00000000      0.00000000</v>
  </separator>
  <separator name="orbital magnetization" >
   <i type="logical" name="NUCIND"> F  </i>
   <v name="MAGPOS">      0.00000000      0.00000000      0.00000000</v>
   <i type="logical" name="LNICSALL"> T  </i>
   <i type="logical" name="ORBITALMAG"> F  </i>
   <i type="logical" name="LMAGBLOCH"> F  </i>
   <i type="logical" name="LCHIMAG"> F  </i>
   <i type="logical" name="LGAUGE"> T  </i>
   <i type="int" name="MAGATOM">     0</i>
   <v name="MAGDIPOL">      0.00000000      0.00000000      0.00000000</v>
   <v name="AVECCONST">      0.00000000      0.00000000      0.00000000</v>
  </separator>
  <separator name="response functions" >
   <i type="logical" name="LFINITE_TEMPERATURE"> F  </i>
   <i type="logical" name="LADDER"> F  </i>
   <i type="logical" name="LRPAFORCE"> F  </i>
   <i type="logical" name="LFXC"> F  </i>
   <i type="logical" name="LHARTREE"> T  </i>
   <i type="int" name="IBSE">     0</i>
   <v type="int" name="KPOINT">    -1     0     0     0</v>
   <i type="logical" name="LTCTC"> F  </i>
   <i type="logical" name="LTCTE"> F  </i>
   <i type="logical" name="LTETE"> F  </i>
   <i type="logical" name="LTRIPLET"> F  </i>
   <i type="logical" name="LFXCEPS"> F  </i>
   <i type="logical" name="LFXHEG"> F  </i>
   <i type="int" name="NATURALO">     2</i>
   <i type="logical" name="LHOLEGF"> F  </i>
   <i type="logical" name="L2ORDER"> F  </i>
   <i type="logical" name="LDMP1"> F  </i>
   <i type="logical" name="LMP2LT"> F  </i>
   <i type="logical" name="LSMP2LT"> F  </i>
   <i type="logical" name="LGWLF"> F  </i>
   <i name="ENCUTGW">     -2.00000000</i>
   <i name="ENCUTGWSOFT">     -2.00000000</i>
   <i name="ENCUTLF">     -1.00000000</i>
   <i type="logical" name="LESF_SPLINES"> F  </i>
   <i type="int" name="LMAXMP2">    -1</i>
   <i name="SCISSOR">      0.00000000</i>
   <i type="int" name="NOMEGA">     0</i>
   <i type="int" name="NOMEGAR">     0</i>
   <i type="int" name="NBANDSGW">    -1</i>
   <i type="int" name="NBANDSO">    -1</i>
   <i type="int" name="NBANDSV">    -1</i>
   <i type="int" name="NELM">   600</i>
   <i type="int" name="NELMHF">     1</i>
   <i type="int" name="DIM">     3</i>
   <i type="int" name="IESPILON">     4</i>
   <i type="int" name="ANTIRES">     0</i>
   <i name="OMEGAMAX">    -30.00000000</i>
   <i name="OMEGAMIN">    -30.00000000</i>
   <i name="OMEGATL">   -200.00000000</i>
   <i type="int" name="OMEGAGRID">     0</i>
   <i name="CSHIFT">     -0.10000000</i>
   <i type="logical" name="LSELFENERGY"> F  </i>
   <i type="logical" name="LSPECTRAL"> F  </i>
   <i type="logical" name="LSPECTRALGW"> F  </i>
   <i type="logical" name="LSINGLES"> F  </i>
   <i type="logical" name="LFERMIGW"> F  </i>
   <i type="logical" name="ODDONLYGW"> F  </i>
   <i type="logical" name="EVENONLYGW"> F  </i>
   <i type="int" name="NKREDLFX">     1</i>
   <i type="int" name="NKREDLFY">     1</i>
   <i type="int" name="NKREDLFZ">     1</i>
   <i type="int" name="MAXMEM">  2800</i>
   <i type="int" name="TELESCOPE">     0</i>
   <i type="int" name="NTAUPAR">    -1</i>
   <i type="int" name="NOMEGAPAR">    -1</i>
   <i name="DAMP_NEWTON">      0.80000001</i>
   <i name="LAMBDA">      1.00000000</i>
  </separator>
  <separator name="External order field" >
   <i name="OFIELD_KAPPA">      0.00000000</i>
   <v name="OFIELD_K">      0.00000000      0.00000000      0.00000000</v>
   <i name="OFIELD_Q6_NEAR">      0.00000000</i>
   <i name="OFIELD_Q6_FAR">      0.00000000</i>
   <i name="OFIELD_A">      0.00000000</i>
  </separator>
 </parameters>
 <atominfo>
  <atoms>     325 </atoms>
  <types>       5 </types>
  <array name="atoms" >
   <dimension dim="1">ion</dimension>
   <field type="string">element</field>
   <field type="int">atomtype</field>
   <set>
    <rc><c>H </c><c>   1</c></rc>
    <rc><c>H </c><c>   1</c></rc>
    <rc><c>H </c><c>   1</c></rc>
    <rc><c>H </c><c>   1</c></rc>
    <rc><c>H </c><c>   1</c></rc>
    <rc><c>H </c><c>   1</c></rc>
    <rc><c>H </c><c>   1</c></rc>
    <rc><c>H </c><c>   1</c></rc>
    <rc><c>H </c><c>   1</c></rc>
    <rc><c>H </c><c>   1</c></rc>
    <rc><c>H </c><c>   1</c></rc>
    <rc><c>H </c><c>   1</c></rc>
    <rc><c>H </c><c>   1</c></rc>
    <rc><c>H </c><c>   1</c></rc>
    <rc><c>H </c><c>   1</c></rc>
    <rc><c>H </c><c>   1</c></rc>
    <rc><c>H </c><c>   1</c></rc>
    <rc><c>H </c><c>   1</c></rc>
    <rc><c>H </c><c>   1</c></rc>
    <rc><c>H </c><c>   1</c></rc>
    <rc><c>H </c><c>   1</c></rc>
    <rc><c>H </c><c>   1</c></rc>
    <rc><c>H </c><c>   1</c></rc>
    <rc><c>H </c><c>   1</c></rc>
    <rc><c>H </c><c>   1</c></rc>
    <rc><c>H </c><c>   1</c></rc>
    <rc><c>H </c><c>   1</c></rc>
    <rc><c>H </c><c>   1</c></rc>
    <rc><c>H </c><c>   1</c></rc>
    <rc><c>H </c><c>   1</c></rc>
    <rc><c>H </c><c>   1</c></rc>
    <rc><c>H </c><c>   1</c></rc>
    <rc><c>H </c><c>   1</c></rc>
    <rc><c>H </c><c>   1</c></rc>
    <rc><c>H </c><c>   1</c></rc>
    <rc><c>H </c><c>   1</c></rc>
    <rc><c>H </c><c>   1</c></rc>
    <rc><c>H </c><c>   1</c></rc>
    <rc><c>H </c><c>   1</c></rc>
    <rc><c>H </c><c>   1</c></rc>
    <rc><c>H </c><c>   1</c></rc>
    <rc><c>H </c><c>   1</c></rc>
    <rc><c>H </c><c>   1</c></rc>
    <rc><c>H </c><c>   1</c></rc>
    <rc><c>H </c><c>   1</c></rc>
    <rc><c>H </c><c>   1</c></rc>
    <rc><c>H </c><c>   1</c></rc>
    <rc><c>H </c><c>   1</c></rc>
    <rc><c>H </c><c>   1</c></rc>
    <rc><c>H </c><c>   1</c></rc>
    <rc><c>H </c><c>   1</c></rc>
    <rc><c>H </c><c>   1</c></rc>
    <rc><c>H </c><c>   1</c></rc>
    <rc><c>H </c><c>   1</c></rc>
    <rc><c>H </c><c>   1</c></rc>
    <rc><c>H </c><c>   1</c></rc>
    <rc><c>H </c><c>   1</c></rc>
    <rc><c>H </c><c>   1</c></rc>
    <rc><c>H </c><c>   1</c></rc>
    <rc><c>H </c><c>   1</c></rc>
    <rc><c>H </c><c>   1</c></rc>
    <rc><c>H </c><c>   1</c></rc>
    <rc><c>H </c><c>   1</c></rc>
    <rc><c>H </c><c>   1</c></rc>
    <rc><c>H </c><c>   1</c></rc>
    <rc><c>H </c><c>   1</c></rc>
    <rc><c>H </c><c>   1</c></rc>
    <rc><c>H </c><c>   1</c></rc>
    <rc><c>H </c><c>   1</c></rc>
    <rc><c>H </c><c>   1</c></rc>
    <rc><c>H </c><c>   1</c></rc>
    <rc><c>H </c><c>   1</c></rc>
    <rc><c>H </c><c>   1</c></rc>
    <rc><c>H </c><c>   1</c></rc>
    <rc><c>H </c><c>   1</c></rc>
    <rc><c>H </c><c>   1</c></rc>
    <rc><c>H </c><c>   1</c></rc>
    <rc><c>H </c><c>   1</c></rc>
    <rc><c>H </c><c>   1</c></rc>
    <rc><c>H </c><c>   1</c></rc>
    <rc><c>H </c><c>   1</c></rc>
    <rc><c>H </c><c>   1</c></rc>
    <rc><c>H </c><c>   1</c></rc>
    <rc><c>H </c><c>   1</c></rc>
    <rc><c>H </c><c>   1</c></rc>
    <rc><c>H </c><c>   1</c></rc>
    <rc><c>H </c><c>   1</c></rc>
    <rc><c>H </c><c>   1</c></rc>
    <rc><c>H </c><c>   1</c></rc>
    <rc><c>H </c><c>   1</c></rc>
    <rc><c>H </c><c>   1</c></rc>
    <rc><c>H </c><c>   1</c></rc>
    <rc><c>H </c><c>   1</c></rc>
    <rc><c>H </c><c>   1</c></rc>
    <rc><c>H </c><c>   1</c></rc>
    <rc><c>H </c><c>   1</c></rc>
    <rc><c>H </c><c>   1</c></rc>
    <rc><c>H </c><c>   1</c></rc>
    <rc><c>H </c><c>   1</c></rc>
    <rc><c>H </c><c>   1</c></rc>
    <rc><c>H </c><c>   1</c></rc>
    <rc><c>H </c><c>   1</c></rc>
    <rc><c>H </c><c>   1</c></rc>
    <rc><c>H </c><c>   1</c></rc>
    <rc><c>H </c><c>   1</c></rc>
    <rc><c>H </c><c>   1</c></rc>
    <rc><c>H </c><c>   1</c></rc>
    <rc><c>H </c><c>   1</c></rc>
    <rc><c>H </c><c>   1</c></rc>
    <rc><c>H </c><c>   1</c></rc>
    <rc><c>H </c><c>   1</c></rc>
    <rc><c>H </c><c>   1</c></rc>
    <rc><c>H </c><c>   1</c></rc>
    <rc><c>H </c><c>   1</c></rc>
    <rc><c>H </c><c>   1</c></rc>
    <rc><c>H </c><c>   1</c></rc>
    <rc><c>H </c><c>   1</c></rc>
    <rc><c>H </c><c>   1</c></rc>
    <rc><c>H </c><c>   1</c></rc>
    <rc><c>H </c><c>   1</c></rc>
    <rc><c>H </c><c>   1</c></rc>
    <rc><c>H </c><c>   1</c></rc>
    <rc><c>H </c><c>   1</c></rc>
    <rc><c>H </c><c>   1</c></rc>
    <rc><c>H </c><c>   1</c></rc>
    <rc><c>H </c><c>   1</c></rc>
    <rc><c>H </c><c>   1</c></rc>
    <rc><c>H </c><c>   1</c></rc>
    <rc><c>H </c><c>   1</c></rc>
    <rc><c>H </c><c>   1</c></rc>
    <rc><c>H </c><c>   1</c></rc>
    <rc><c>H </c><c>   1</c></rc>
    <rc><c>H </c><c>   1</c></rc>
    <rc><c>H </c><c>   1</c></rc>
    <rc><c>H </c><c>   1</c></rc>
    <rc><c>H </c><c>   1</c></rc>
    <rc><c>H </c><c>   1</c></rc>
    <rc><c>H </c><c>   1</c></rc>
    <rc><c>H </c><c>   1</c></rc>
    <rc><c>H </c><c>   1</c></rc>
    <rc><c>H </c><c>   1</c></rc>
    <rc><c>H </c><c>   1</c></rc>
    <rc><c>H </c><c>   1</c></rc>
    <rc><c>C </c><c>   2</c></rc>
    <rc><c>C </c><c>   2</c></rc>
    <rc><c>C </c><c>   2</c></rc>
    <rc><c>C </c><c>   2</c></rc>
    <rc><c>C </c><c>   2</c></rc>
    <rc><c>C </c><c>   2</c></rc>
    <rc><c>C </c><c>   2</c></rc>
    <rc><c>C </c><c>   2</c></rc>
    <rc><c>C </c><c>   2</c></rc>
    <rc><c>C </c><c>   2</c></rc>
    <rc><c>C </c><c>   2</c></rc>
    <rc><c>C </c><c>   2</c></rc>
    <rc><c>C </c><c>   2</c></rc>
    <rc><c>C </c><c>   2</c></rc>
    <rc><c>C </c><c>   2</c></rc>
    <rc><c>C </c><c>   2</c></rc>
    <rc><c>C </c><c>   2</c></rc>
    <rc><c>C </c><c>   2</c></rc>
    <rc><c>C </c><c>   2</c></rc>
    <rc><c>C </c><c>   2</c></rc>
    <rc><c>C </c><c>   2</c></rc>
    <rc><c>C </c><c>   2</c></rc>
    <rc><c>C </c><c>   2</c></rc>
    <rc><c>C </c><c>   2</c></rc>
    <rc><c>C </c><c>   2</c></rc>
    <rc><c>C </c><c>   2</c></rc>
    <rc><c>C </c><c>   2</c></rc>
    <rc><c>C </c><c>   2</c></rc>
    <rc><c>C </c><c>   2</c></rc>
    <rc><c>C </c><c>   2</c></rc>
    <rc><c>C </c><c>   2</c></rc>
    <rc><c>C </c><c>   2</c></rc>
    <rc><c>C </c><c>   2</c></rc>
    <rc><c>C </c><c>   2</c></rc>
    <rc><c>C </c><c>   2</c></rc>
    <rc><c>C </c><c>   2</c></rc>
    <rc><c>C </c><c>   2</c></rc>
    <rc><c>C </c><c>   2</c></rc>
    <rc><c>C </c><c>   2</c></rc>
    <rc><c>N </c><c>   3</c></rc>
    <rc><c>N </c><c>   3</c></rc>
    <rc><c>N </c><c>   3</c></rc>
    <rc><c>N </c><c>   3</c></rc>
    <rc><c>N </c><c>   3</c></rc>
    <rc><c>N </c><c>   3</c></rc>
    <rc><c>N </c><c>   3</c></rc>
    <rc><c>N </c><c>   3</c></rc>
    <rc><c>N </c><c>   3</c></rc>
    <rc><c>N </c><c>   3</c></rc>
    <rc><c>N </c><c>   3</c></rc>
    <rc><c>N </c><c>   3</c></rc>
    <rc><c>N </c><c>   3</c></rc>
    <rc><c>N </c><c>   3</c></rc>
    <rc><c>N </c><c>   3</c></rc>
    <rc><c>N </c><c>   3</c></rc>
    <rc><c>N </c><c>   3</c></rc>
    <rc><c>N </c><c>   3</c></rc>
    <rc><c>N </c><c>   3</c></rc>
    <rc><c>N </c><c>   3</c></rc>
    <rc><c>N </c><c>   3</c></rc>
    <rc><c>N </c><c>   3</c></rc>
    <rc><c>N </c><c>   3</c></rc>
    <rc><c>N </c><c>   3</c></rc>
    <rc><c>N </c><c>   3</c></rc>
    <rc><c>N </c><c>   3</c></rc>
    <rc><c>N </c><c>   3</c></rc>
    <rc><c>N </c><c>   3</c></rc>
    <rc><c>N </c><c>   3</c></rc>
    <rc><c>N </c><c>   3</c></rc>
    <rc><c>N </c><c>   3</c></rc>
    <rc><c>N </c><c>   3</c></rc>
    <rc><c>N </c><c>   3</c></rc>
    <rc><c>N </c><c>   3</c></rc>
    <rc><c>N </c><c>   3</c></rc>
    <rc><c>N </c><c>   3</c></rc>
    <rc><c>N </c><c>   3</c></rc>
    <rc><c>N </c><c>   3</c></rc>
    <rc><c>N </c><c>   3</c></rc>
    <rc><c>N </c><c>   3</c></rc>
    <rc><c>N </c><c>   3</c></rc>
    <rc><c>N </c><c>   3</c></rc>
    <rc><c>N </c><c>   3</c></rc>
    <rc><c>N </c><c>   3</c></rc>
    <rc><c>N </c><c>   3</c></rc>
    <rc><c>N </c><c>   3</c></rc>
    <rc><c>N </c><c>   3</c></rc>
    <rc><c>I </c><c>   4</c></rc>
    <rc><c>I </c><c>   4</c></rc>
    <rc><c>I </c><c>   4</c></rc>
    <rc><c>I </c><c>   4</c></rc>
    <rc><c>I </c><c>   4</c></rc>
    <rc><c>I </c><c>   4</c></rc>
    <rc><c>I </c><c>   4</c></rc>
    <rc><c>I </c><c>   4</c></rc>
    <rc><c>I </c><c>   4</c></rc>
    <rc><c>I </c><c>   4</c></rc>
    <rc><c>I </c><c>   4</c></rc>
    <rc><c>I </c><c>   4</c></rc>
    <rc><c>I </c><c>   4</c></rc>
    <rc><c>I </c><c>   4</c></rc>
    <rc><c>I </c><c>   4</c></rc>
    <rc><c>I </c><c>   4</c></rc>
    <rc><c>I </c><c>   4</c></rc>
    <rc><c>I </c><c>   4</c></rc>
    <rc><c>I </c><c>   4</c></rc>
    <rc><c>I </c><c>   4</c></rc>
    <rc><c>I </c><c>   4</c></rc>
    <rc><c>I </c><c>   4</c></rc>
    <rc><c>I </c><c>   4</c></rc>
    <rc><c>I </c><c>   4</c></rc>
    <rc><c>I </c><c>   4</c></rc>
    <rc><c>I </c><c>   4</c></rc>
    <rc><c>I </c><c>   4</c></rc>
    <rc><c>I </c><c>   4</c></rc>
    <rc><c>I </c><c>   4</c></rc>
    <rc><c>I </c><c>   4</c></rc>
    <rc><c>I </c><c>   4</c></rc>
    <rc><c>I </c><c>   4</c></rc>
    <rc><c>I </c><c>   4</c></rc>
    <rc><c>I </c><c>   4</c></rc>
    <rc><c>I </c><c>   4</c></rc>
    <rc><c>I </c><c>   4</c></rc>
    <rc><c>I </c><c>   4</c></rc>
    <rc><c>I </c><c>   4</c></rc>
    <rc><c>I </c><c>   4</c></rc>
    <rc><c>I </c><c>   4</c></rc>
    <rc><c>I </c><c>   4</c></rc>
    <rc><c>I </c><c>   4</c></rc>
    <rc><c>I </c><c>   4</c></rc>
    <rc><c>I </c><c>   4</c></rc>
    <rc><c>I </c><c>   4</c></rc>
    <rc><c>I </c><c>   4</c></rc>
    <rc><c>I </c><c>   4</c></rc>
    <rc><c>I </c><c>   4</c></rc>
    <rc><c>I </c><c>   4</c></rc>
    <rc><c>I </c><c>   4</c></rc>
    <rc><c>I </c><c>   4</c></rc>
    <rc><c>I </c><c>   4</c></rc>
    <rc><c>I </c><c>   4</c></rc>
    <rc><c>I </c><c>   4</c></rc>
    <rc><c>I </c><c>   4</c></rc>
    <rc><c>I </c><c>   4</c></rc>
    <rc><c>I </c><c>   4</c></rc>
    <rc><c>I </c><c>   4</c></rc>
    <rc><c>I </c><c>   4</c></rc>
    <rc><c>I </c><c>   4</c></rc>
    <rc><c>I </c><c>   4</c></rc>
    <rc><c>I </c><c>   4</c></rc>
    <rc><c>I </c><c>   4</c></rc>
    <rc><c>I </c><c>   4</c></rc>
    <rc><c>I </c><c>   4</c></rc>
    <rc><c>I </c><c>   4</c></rc>
    <rc><c>I </c><c>   4</c></rc>
    <rc><c>I </c><c>   4</c></rc>
    <rc><c>I </c><c>   4</c></rc>
    <rc><c>I </c><c>   4</c></rc>
    <rc><c>I </c><c>   4</c></rc>
    <rc><c>I </c><c>   4</c></rc>
    <rc><c>Pb</c><c>   5</c></rc>
    <rc><c>Pb</c><c>   5</c></rc>
    <rc><c>Pb</c><c>   5</c></rc>
    <rc><c>Pb</c><c>   5</c></rc>
    <rc><c>Pb</c><c>   5</c></rc>
    <rc><c>Pb</c><c>   5</c></rc>
    <rc><c>Pb</c><c>   5</c></rc>
    <rc><c>Pb</c><c>   5</c></rc>
    <rc><c>Pb</c><c>   5</c></rc>
    <rc><c>Pb</c><c>   5</c></rc>
    <rc><c>Pb</c><c>   5</c></rc>
    <rc><c>Pb</c><c>   5</c></rc>
    <rc><c>Pb</c><c>   5</c></rc>
    <rc><c>Pb</c><c>   5</c></rc>
    <rc><c>Pb</c><c>   5</c></rc>
    <rc><c>Pb</c><c>   5</c></rc>
    <rc><c>Pb</c><c>   5</c></rc>
    <rc><c>Pb</c><c>   5</c></rc>
    <rc><c>Pb</c><c>   5</c></rc>
    <rc><c>Pb</c><c>   5</c></rc>
    <rc><c>Pb</c><c>   5</c></rc>
    <rc><c>Pb</c><c>   5</c></rc>
    <rc><c>Pb</c><c>   5</c></rc>
    <rc><c>Pb</c><c>   5</c></rc>
   </set>
  </array>
  <array name="atomtypes" >
   <dimension dim="1">type</dimension>
   <field type="int">atomspertype</field>
   <field type="string">element</field>
   <field>mass</field>
   <field>valence</field>
   <field type="string">pseudopotential</field>
   <set>
    <rc><c> 143</c><c>H </c><c>      1.00000000</c><c>      1.00000000</c><c>  PAW_PBE H 15Jun2001                   </c></rc>
    <rc><c>  39</c><c>C </c><c>     12.01100000</c><c>      4.00000000</c><c>  PAW_PBE C 08Apr2002                   </c></rc>
    <rc><c>  47</c><c>N </c><c>     14.00100000</c><c>      5.00000000</c><c>  PAW_PBE N 08Apr2002                   </c></rc>
    <rc><c>  72</c><c>I </c><c>    126.90400000</c><c>      7.00000000</c><c>  PAW_PBE I 08Apr2002                   </c></rc>
    <rc><c>  24</c><c>Pb</c><c>    207.20000000</c><c>      4.00000000</c><c>  PAW_PBE Pb 08Apr2002                  </c></rc>
   </set>
  </array>
 </atominfo>
 <structure name="initialpos" >
  <crystal>
   <varray name="basis" >
    <v>      18.06080055       0.00000000       0.00000000 </v>
    <v>      -0.00491865      18.06279945       0.00000000 </v>
    <v>       0.00000000       0.00000000      62.48749924 </v>
   </varray>
   <i name="volume">  20385.21054034 </i>
   <varray name="rec_basis" >
    <v>       0.05536853       0.00001508      -0.00000000 </v>
    <v>       0.00000000       0.05536240       0.00000000 </v>
    <v>       0.00000000      -0.00000000       0.01600320 </v>
   </varray>
  </crystal>
  <varray name="positions" >
   <v>       0.40925470       0.27908148       0.56583644 </v>
   <v>       0.41277706       0.70079537       0.57294596 </v>
   <v>       0.92846391       0.28981335       0.58094145 </v>
   <v>       0.93166410       0.81478946       0.57355985 </v>
   <v>       0.32370094       0.09236120       0.56533219 </v>
   <v>       0.31889572       0.57633629       0.56963475 </v>
   <v>       0.80243274       0.09948389       0.56864682 </v>
   <v>       0.11075043       0.24066479       0.56216701 </v>
   <v>       0.07952027       0.67988288       0.56946821 </v>
   <v>       0.59005747       0.18871525       0.56496279 </v>
   <v>       0.60127625       0.75034918       0.55893894 </v>
   <v>       0.37767910       0.02032975       0.55497227 </v>
   <v>       0.25317398       0.62309938       0.55441631 </v>
   <v>       0.87501327       0.04479679       0.55837712 </v>
   <v>       0.06327235       0.28684480       0.58261348 </v>
   <v>       0.99425020       0.69441772       0.58185295 </v>
   <v>       0.49640096       0.17235437       0.57170828 </v>
   <v>       0.54927568       0.68965035       0.57472677 </v>
   <v>       0.30659091       0.43947622       0.57283754 </v>
   <v>       0.18869732       0.06712163       0.56977589 </v>
   <v>       0.67962489       0.03316026       0.57302080 </v>
   <v>       0.45112771       0.36191199       0.55766739 </v>
   <v>       0.37614501       0.76841697       0.55611801 </v>
   <v>       0.88505347       0.24013243       0.56045328 </v>
   <v>       0.97828541       0.87298795       0.55614914 </v>
   <v>       0.23436618       0.39929097       0.55878193 </v>
   <v>       0.15475223       0.98635479       0.55873877 </v>
   <v>       0.67765951       0.94230051       0.56362872 </v>
   <v>       0.56800144       0.30935270       0.55468651 </v>
   <v>       0.49529115       0.80855732       0.54530890 </v>
   <v>       0.99980508       0.20175389       0.54577573 </v>
   <v>       0.07458621       0.79005162       0.55060970 </v>
   <v>       0.18959427       0.51248845       0.54615709 </v>
   <v>       0.27395034       0.94484418       0.54880404 </v>
   <v>       0.79953064       0.94239478       0.55338034 </v>
   <v>       0.45303716       0.29412457       0.67333566 </v>
   <v>       0.44030389       0.81146885       0.67143239 </v>
   <v>       0.96030894       0.28230414       0.67796360 </v>
   <v>       0.91567533       0.74047342       0.66814084 </v>
   <v>       0.29853608       0.04191317       0.67496386 </v>
   <v>       0.30355161       0.55762552       0.67398783 </v>
   <v>       0.79607213       0.05450211       0.67498120 </v>
   <v>       0.82882165       0.50015739       0.66938602 </v>
   <v>       0.09055616       0.17109167       0.64664289 </v>
   <v>       0.10530085       0.69785981       0.65245716 </v>
   <v>       0.57735881       0.16376071       0.64668153 </v>
   <v>       0.57552269       0.67723175       0.65111857 </v>
   <v>       0.18648217       0.41247619       0.65078721 </v>
   <v>       0.16283789       0.93124001       0.64574909 </v>
   <v>       0.64052610       0.46191696       0.65152344 </v>
   <v>       0.67549394       0.91694080       0.64958018 </v>
   <v>       0.06524415       0.18778985       0.67314214 </v>
   <v>       0.02869216       0.65755267       0.66465314 </v>
   <v>       0.54371853       0.18532405       0.67202626 </v>
   <v>       0.54374251       0.71255294       0.67525023 </v>
   <v>       0.21667755       0.44443506       0.67568086 </v>
   <v>       0.18625309       0.95466412       0.67203810 </v>
   <v>       0.70191984       0.43540069       0.67134943 </v>
   <v>       0.69832810       0.95030500       0.67506385 </v>
   <v>       0.43894929       0.33965190       0.64915499 </v>
   <v>       0.41434284       0.82959848       0.64520571 </v>
   <v>       0.92579499       0.31989194       0.65420629 </v>
   <v>       0.92635564       0.83063072       0.65800405 </v>
   <v>       0.34134725       0.06213372       0.65093391 </v>
   <v>       0.32025976       0.59018117       0.64836918 </v>
   <v>       0.82780185       0.07958816       0.64979000 </v>
   <v>       0.83884603       0.56372107       0.64891226 </v>
   <v>       0.00444198       0.25261832       0.63264918 </v>
   <v>       0.04578383       0.80996539       0.64602423 </v>
   <v>       0.51435702       0.26079660       0.63009429 </v>
   <v>       0.49811736       0.74770528       0.63045184 </v>
   <v>       0.25768991       0.99504656       0.63059323 </v>
   <v>       0.24856008       0.50153119       0.63181057 </v>
   <v>       0.75532116       0.99403892       0.63206825 </v>
   <v>       0.72058546       0.54431512       0.63557219 </v>
   <v>       0.44874502       0.30128397       0.76888902 </v>
   <v>       0.44874501       0.80128391       0.76888902 </v>
   <v>       0.94874497       0.30128397       0.76888902 </v>
   <v>       0.94874501       0.80128391       0.76888902 </v>
   <v>       0.30127600       0.05129450       0.76887296 </v>
   <v>       0.30127601       0.55129450       0.76887296 </v>
   <v>       0.80127594       0.05129450       0.76887296 </v>
   <v>       0.80127598       0.55129450       0.76887296 </v>
   <v>       0.07877100       0.17118050       0.74344197 </v>
   <v>       0.07877101       0.67118045       0.74344197 </v>
   <v>       0.57877100       0.17118050       0.74344197 </v>
   <v>       0.57877099       0.67118045       0.74344197 </v>
   <v>       0.17119950       0.42117448       0.74342103 </v>
   <v>       0.17119950       0.92117451       0.74342103 </v>
   <v>       0.67119951       0.42117448       0.74342103 </v>
   <v>       0.67119950       0.92117451       0.74342103 </v>
   <v>       0.05125600       0.19871499       0.76888902 </v>
   <v>       0.05125600       0.69871493       0.76888902 </v>
   <v>       0.55125603       0.19871499       0.76888902 </v>
   <v>       0.55125602       0.69871493       0.76888902 </v>
   <v>       0.19872349       0.44870397       0.76887205 </v>
   <v>       0.19872349       0.94870397       0.76887205 </v>
   <v>       0.69872352       0.44870397       0.76887205 </v>
   <v>       0.69872351       0.94870397       0.76887205 </v>
   <v>       0.42123152       0.32881747       0.74344197 </v>
   <v>       0.42123151       0.82881744       0.74344197 </v>
   <v>       0.92123147       0.32881747       0.74344197 </v>
   <v>       0.92123151       0.82881744       0.74344197 </v>
   <v>       0.32880050       0.07882500       0.74342103 </v>
   <v>       0.32880049       0.57882496       0.74342103 </v>
   <v>       0.82880048       0.07882500       0.74342103 </v>
   <v>       0.82880052       0.57882496       0.74342103 </v>
   <v>       0.00000350       0.25000148       0.72582199 </v>
   <v>       0.00000350       0.75000145       0.72582199 </v>
   <v>       0.50000351       0.25000148       0.72582199 </v>
   <v>       0.50000350       0.75000145       0.72582199 </v>
   <v>       0.25000050       0.00000000       0.72580398 </v>
   <v>       0.25000052       0.50000000       0.72580398 </v>
   <v>       0.75000050       0.00000000       0.72580398 </v>
   <v>       0.75000049       0.50000000       0.72580398 </v>
   <v>       0.80017809       0.50861336       0.51470091 </v>
   <v>       0.87901050       0.50064360       0.53128723 </v>
   <v>       0.76257546       0.62261316       0.53209110 </v>
   <v>       0.76132378       0.62581244       0.56016911 </v>
   <v>       0.68626591       0.44818882       0.55065408 </v>
   <v>       0.67014610       0.54048829       0.55825369 </v>
   <v>       0.79735789       0.42732013       0.56701368 </v>
   <v>       0.86668216       0.49664914       0.56909014 </v>
   <v>       0.85769749       0.37569190       0.53934066 </v>
   <v>       0.76287050       0.37741546       0.53310699 </v>
   <v>       0.78242502       0.38206387       0.49565740 </v>
   <v>       0.87519693       0.40836961       0.49800277 </v>
   <v>       0.89837306       0.61899668       0.53073903 </v>
   <v>       0.90539135       0.60569562       0.55883791 </v>
   <v>       0.86898046       0.68966725       0.54848531 </v>
   <v>       0.60026801       0.51472227       0.52639532 </v>
   <v>       0.68005150       0.48653263       0.51136577 </v>
   <v>       0.66732886       0.58095102       0.51927830 </v>
   <v>       0.70848644       0.50674866       0.58784560 </v>
   <v>       0.77851030       0.57527828       0.59087502 </v>
   <v>       0.79028901       0.48542366       0.60176599 </v>
   <v>       0.82214910       0.25593069       0.51319145 </v>
   <v>       0.84446155       0.27489744       0.48653701 </v>
   <v>       0.92449033       0.15988187       0.49854088 </v>
   <v>       0.97265803       0.38398695       0.51784149 </v>
   <v>       0.05586103       0.12662051       0.50377639 </v>
   <v>       0.10135245       0.35191303       0.52291544 </v>
   <v>       0.14657639       0.22287447       0.51567840 </v>
   <v>       0.99829250       0.23678455       0.55988829 </v>
   <v>       0.02758770       0.77425819       0.56069668 </v>
   <v>       0.52158123       0.27474100       0.55968860 </v>
   <v>       0.48988638       0.76161056       0.55625664 </v>
   <v>       0.24026758       0.51114195       0.55566473 </v>
   <v>       0.26664725       0.99973387       0.55584604 </v>
   <v>       0.77638020       0.99282062       0.56014109 </v>
   <v>       0.00769705       0.24567822       0.64994982 </v>
   <v>       0.01650576       0.76542857       0.65431337 </v>
   <v>       0.50830753       0.25167704       0.64725562 </v>
   <v>       0.49545927       0.75347707       0.64774302 </v>
   <v>       0.25352154       0.50098204       0.64918276 </v>
   <v>       0.25196607       0.99672174       0.64788386 </v>
   <v>       0.73955119       0.51373912       0.64949636 </v>
   <v>       0.75194288       0.99765480       0.64939154 </v>
   <v>       0.49998898       0.24999498       0.74327702 </v>
   <v>       0.49998903       0.74999496       0.74327702 </v>
   <v>       0.99998898       0.24999498       0.74327702 </v>
   <v>       0.99998903       0.74999496       0.74327702 </v>
   <v>       0.25000050       0.00000100       0.74325596 </v>
   <v>       0.25000052       0.50000100       0.74325596 </v>
   <v>       0.75000050       0.00000100       0.74325596 </v>
   <v>       0.75000049       0.50000100       0.74325596 </v>
   <v>       0.93757131       0.27451474       0.50742382 </v>
   <v>       0.96313931       0.20197471       0.50386375 </v>
   <v>       0.98913559       0.32738599       0.51426918 </v>
   <v>       0.03788165       0.18365760       0.50652441 </v>
   <v>       0.06363202       0.30926146       0.51717314 </v>
   <v>       0.08860952       0.23770648       0.51318193 </v>
   <v>       0.82128163       0.48387632       0.52939733 </v>
   <v>       0.79135246       0.60288968       0.54648986 </v>
   <v>       0.69551603       0.50593504       0.54581400 </v>
   <v>       0.80665618       0.48688320       0.56857558 </v>
   <v>       0.81707084       0.39947837       0.52815251 </v>
   <v>       0.83304048       0.37309119       0.50525908 </v>
   <v>       0.87086313       0.62939767       0.54613591 </v>
   <v>       0.66053382       0.52292260       0.52426404 </v>
   <v>       0.76789838       0.51636650       0.58813417 </v>
   <v>       0.85691132       0.29242660       0.50303998 </v>
   <v>       0.06125482       0.25501422       0.56894235 </v>
   <v>       0.03226094       0.71032488       0.57051316 </v>
   <v>       0.53560008       0.20527488       0.56467703 </v>
   <v>       0.55007118       0.72887044       0.56301123 </v>
   <v>       0.45500621       0.30558223       0.56004091 </v>
   <v>       0.42223315       0.74159268       0.56160165 </v>
   <v>       0.93349496       0.25815703       0.56725066 </v>
   <v>       0.97154162       0.82047810       0.56213575 </v>
   <v>       0.26233573       0.44624423       0.56260563 </v>
   <v>       0.19930535       0.01945529       0.56133432 </v>
   <v>       0.70597313       0.99073296       0.56514105 </v>
   <v>       0.32576639       0.04083684       0.55845771 </v>
   <v>       0.27406634       0.57425564       0.55950955 </v>
   <v>       0.82046494       0.04964309       0.56259202 </v>
   <v>       0.05670496       0.19881907       0.65720176 </v>
   <v>       0.05128654       0.70284434       0.65732013 </v>
   <v>       0.54444169       0.19702213       0.65598600 </v>
   <v>       0.54064175       0.71184286       0.65891750 </v>
   <v>       0.21672293       0.44944361       0.65937724 </v>
   <v>       0.19633716       0.95892636       0.65598631 </v>
   <v>       0.69202562       0.46700344       0.65800209 </v>
   <v>       0.70606936       0.95204345       0.65881909 </v>
   <v>       0.46414932       0.29791114       0.65741421 </v>
   <v>       0.44732898       0.80073350       0.65549463 </v>
   <v>       0.96176660       0.28489561       0.66164290 </v>
   <v>       0.94808615       0.77928396       0.66055112 </v>
   <v>       0.30016398       0.03646840       0.65866104 </v>
   <v>       0.29482164       0.55243672       0.65800759 </v>
   <v>       0.79401661       0.04700134       0.65889802 </v>
   <v>       0.80656234       0.52583703       0.65641217 </v>
   <v>       0.04586250       0.20411950       0.75272599 </v>
   <v>       0.04586250       0.70411946       0.75272599 </v>
   <v>       0.54586251       0.20411950       0.75272599 </v>
   <v>       0.54586250       0.70411946       0.75272599 </v>
   <v>       0.20411900       0.45410100       0.75270499 </v>
   <v>       0.20411899       0.95410095       0.75270499 </v>
   <v>       0.70411898       0.45410100       0.75270499 </v>
   <v>       0.70411896       0.95410095       0.75270499 </v>
   <v>       0.45414002       0.29588849       0.75272697 </v>
   <v>       0.45414001       0.79588852       0.75272697 </v>
   <v>       0.95414002       0.29588849       0.75272697 </v>
[...]
   <v>       0.59005747       0.18871525       0.56496279 </v>
   <v>       0.60127625       0.75034918       0.55893894 </v>
   <v>       0.37767910       0.02032975       0.55497227 </v>
   <v>       0.25317398       0.62309938       0.55441631 </v>
   <v>       0.87501327       0.04479679       0.55837712 </v>
   <v>       0.06327235       0.28684480       0.58261348 </v>
   <v>       0.99425020       0.69441772       0.58185295 </v>
   <v>       0.49640096       0.17235437       0.57170828 </v>
   <v>       0.54927568       0.68965035       0.57472677 </v>
   <v>       0.30659091       0.43947622       0.57283754 </v>
   <v>       0.18869732       0.06712163       0.56977589 </v>
   <v>       0.67962489       0.03316026       0.57302080 </v>
   <v>       0.45112771       0.36191199       0.55766739 </v>
   <v>       0.37614501       0.76841697       0.55611801 </v>
   <v>       0.88505347       0.24013243       0.56045328 </v>
   <v>       0.97828541       0.87298795       0.55614914 </v>
   <v>       0.23436618       0.39929097       0.55878193 </v>
   <v>       0.15475223       0.98635479       0.55873877 </v>
   <v>       0.67765951       0.94230051       0.56362872 </v>
   <v>       0.56800144       0.30935270       0.55468651 </v>
   <v>       0.49529115       0.80855732       0.54530890 </v>
   <v>       0.99980508       0.20175389       0.54577573 </v>
   <v>       0.07458621       0.79005162       0.55060970 </v>
   <v>       0.18959427       0.51248845       0.54615709 </v>
   <v>       0.27395034       0.94484418       0.54880404 </v>
   <v>       0.79953064       0.94239478       0.55338034 </v>
   <v>       0.45303716       0.29412457       0.67333566 </v>
   <v>       0.44030389       0.81146885       0.67143239 </v>
   <v>       0.96030894       0.28230414       0.67796360 </v>
   <v>       0.91567533       0.74047342       0.66814084 </v>
   <v>       0.29853608       0.04191317       0.67496386 </v>
   <v>       0.30355161       0.55762552       0.67398783 </v>
   <v>       0.79607213       0.05450211       0.67498120 </v>
   <v>       0.82882165       0.50015739       0.66938602 </v>
   <v>       0.09055616       0.17109167       0.64664289 </v>
   <v>       0.10530085       0.69785981       0.65245716 </v>
   <v>       0.57735881       0.16376071       0.64668153 </v>
   <v>       0.57552269       0.67723175       0.65111857 </v>
   <v>       0.18648217       0.41247619       0.65078721 </v>
   <v>       0.16283789       0.93124001       0.64574909 </v>
   <v>       0.64052610       0.46191696       0.65152344 </v>
   <v>       0.67549394       0.91694080       0.64958018 </v>
   <v>       0.06524415       0.18778985       0.67314214 </v>
   <v>       0.02869216       0.65755267       0.66465314 </v>
   <v>       0.54371853       0.18532405       0.67202626 </v>
   <v>       0.54374251       0.71255294       0.67525023 </v>
   <v>       0.21667755       0.44443506       0.67568086 </v>
   <v>       0.18625309       0.95466412       0.67203810 </v>
   <v>       0.70191984       0.43540069       0.67134943 </v>
   <v>       0.69832810       0.95030500       0.67506385 </v>
   <v>       0.43894929       0.33965190       0.64915499 </v>
   <v>       0.41434284       0.82959848       0.64520571 </v>
   <v>       0.92579499       0.31989194       0.65420629 </v>
   <v>       0.92635564       0.83063072       0.65800405 </v>
   <v>       0.34134725       0.06213372       0.65093391 </v>
   <v>       0.32025976       0.59018117       0.64836918 </v>
   <v>       0.82780185       0.07958816       0.64979000 </v>
   <v>       0.83884603       0.56372107       0.64891226 </v>
   <v>       0.00444198       0.25261832       0.63264918 </v>
   <v>       0.04578383       0.80996539       0.64602423 </v>
   <v>       0.51435702       0.26079660       0.63009429 </v>
   <v>       0.49811736       0.74770528       0.63045184 </v>
   <v>       0.25768991       0.99504656       0.63059323 </v>
   <v>       0.24856008       0.50153119       0.63181057 </v>
   <v>       0.75532116       0.99403892       0.63206825 </v>
   <v>       0.72058546       0.54431512       0.63557219 </v>
   <v>       0.44874502       0.30128397       0.76888902 </v>
   <v>       0.44874501       0.80128391       0.76888902 </v>
   <v>       0.94874497       0.30128397       0.76888902 </v>
   <v>       0.94874501       0.80128391       0.76888902 </v>
   <v>       0.30127600       0.05129450       0.76887296 </v>
   <v>       0.30127601       0.55129450       0.76887296 </v>
   <v>       0.80127594       0.05129450       0.76887296 </v>
   <v>       0.80127598       0.55129450       0.76887296 </v>
   <v>       0.07877100       0.17118050       0.74344197 </v>
   <v>       0.07877101       0.67118045       0.74344197 </v>
   <v>       0.57877100       0.17118050       0.74344197 </v>
   <v>       0.57877099       0.67118045       0.74344197 </v>
   <v>       0.17119950       0.42117448       0.74342103 </v>
   <v>       0.17119950       0.92117451       0.74342103 </v>
   <v>       0.67119951       0.42117448       0.74342103 </v>
   <v>       0.67119950       0.92117451       0.74342103 </v>
   <v>       0.05125600       0.19871499       0.76888902 </v>
   <v>       0.05125600       0.69871493       0.76888902 </v>
   <v>       0.55125603       0.19871499       0.76888902 </v>
   <v>       0.55125602       0.69871493       0.76888902 </v>
   <v>       0.19872349       0.44870397       0.76887205 </v>
   <v>       0.19872349       0.94870397       0.76887205 </v>
   <v>       0.69872352       0.44870397       0.76887205 </v>
   <v>       0.69872351       0.94870397       0.76887205 </v>
   <v>       0.42123152       0.32881747       0.74344197 </v>
   <v>       0.42123151       0.82881744       0.74344197 </v>
   <v>       0.92123147       0.32881747       0.74344197 </v>
   <v>       0.92123151       0.82881744       0.74344197 </v>
   <v>       0.32880050       0.07882500       0.74342103 </v>
   <v>       0.32880049       0.57882496       0.74342103 </v>
   <v>       0.82880048       0.07882500       0.74342103 </v>
   <v>       0.82880052       0.57882496       0.74342103 </v>
   <v>       0.00000350       0.25000148       0.72582199 </v>
   <v>       0.00000350       0.75000145       0.72582199 </v>
   <v>       0.50000351       0.25000148       0.72582199 </v>
   <v>       0.50000350       0.75000145       0.72582199 </v>
   <v>       0.25000050       0.00000000       0.72580398 </v>
   <v>       0.25000052       0.50000000       0.72580398 </v>
   <v>       0.75000050       0.00000000       0.72580398 </v>
   <v>       0.75000049       0.50000000       0.72580398 </v>
   <v>       0.80017809       0.50861336       0.51470091 </v>
   <v>       0.87901050       0.50064360       0.53128723 </v>
   <v>       0.76257546       0.62261316       0.53209110 </v>
   <v>       0.76132378       0.62581244       0.56016911 </v>
   <v>       0.68626591       0.44818882       0.55065408 </v>
   <v>       0.67014610       0.54048829       0.55825369 </v>
   <v>       0.79735789       0.42732013       0.56701368 </v>
   <v>       0.86668216       0.49664914       0.56909014 </v>
   <v>       0.85769749       0.37569190       0.53934066 </v>
   <v>       0.76287050       0.37741546       0.53310699 </v>
   <v>       0.78242502       0.38206387       0.49565740 </v>
   <v>       0.87519693       0.40836961       0.49800277 </v>
   <v>       0.89837306       0.61899668       0.53073903 </v>
   <v>       0.90539135       0.60569562       0.55883791 </v>
   <v>       0.86898046       0.68966725       0.54848531 </v>
   <v>       0.60026801       0.51472227       0.52639532 </v>
   <v>       0.68005150       0.48653263       0.51136577 </v>
   <v>       0.66732886       0.58095102       0.51927830 </v>
   <v>       0.70848644       0.50674866       0.58784560 </v>
   <v>       0.77851030       0.57527828       0.59087502 </v>
   <v>       0.79028901       0.48542366       0.60176599 </v>
   <v>       0.82214910       0.25593069       0.51319145 </v>
   <v>       0.84446155       0.27489744       0.48653701 </v>
   <v>       0.92449033       0.15988187       0.49854088 </v>
   <v>       0.97265803       0.38398695       0.51784149 </v>
   <v>       0.05586103       0.12662051       0.50377639 </v>
   <v>       0.10135245       0.35191303       0.52291544 </v>
   <v>       0.14657639       0.22287447       0.51567840 </v>
   <v>       0.99829250       0.23678455       0.55988829 </v>
   <v>       0.02758770       0.77425819       0.56069668 </v>
   <v>       0.52158123       0.27474100       0.55968860 </v>
   <v>       0.48988638       0.76161056       0.55625664 </v>
   <v>       0.24026758       0.51114195       0.55566473 </v>
   <v>       0.26664725       0.99973387       0.55584604 </v>
   <v>       0.77638020       0.99282062       0.56014109 </v>
   <v>       0.00769705       0.24567822       0.64994982 </v>
   <v>       0.01650576       0.76542857       0.65431337 </v>
   <v>       0.50830753       0.25167704       0.64725562 </v>
   <v>       0.49545927       0.75347707       0.64774302 </v>
   <v>       0.25352154       0.50098204       0.64918276 </v>
   <v>       0.25196607       0.99672174       0.64788386 </v>
   <v>       0.73955119       0.51373912       0.64949636 </v>
   <v>       0.75194288       0.99765480       0.64939154 </v>
   <v>       0.49998898       0.24999498       0.74327702 </v>
   <v>       0.49998903       0.74999496       0.74327702 </v>
   <v>       0.99998898       0.24999498       0.74327702 </v>
   <v>       0.99998903       0.74999496       0.74327702 </v>
   <v>       0.25000050       0.00000100       0.74325596 </v>
   <v>       0.25000052       0.50000100       0.74325596 </v>
   <v>       0.75000050       0.00000100       0.74325596 </v>
   <v>       0.75000049       0.50000100       0.74325596 </v>
   <v>       0.93757131       0.27451474       0.50742382 </v>
   <v>       0.96313931       0.20197471       0.50386375 </v>
   <v>       0.98913559       0.32738599       0.51426918 </v>
   <v>       0.03788165       0.18365760       0.50652441 </v>
   <v>       0.06363202       0.30926146       0.51717314 </v>
   <v>       0.08860952       0.23770648       0.51318193 </v>
   <v>       0.82128163       0.48387632       0.52939733 </v>
   <v>       0.79135246       0.60288968       0.54648986 </v>
   <v>       0.69551603       0.50593504       0.54581400 </v>
   <v>       0.80665618       0.48688320       0.56857558 </v>
   <v>       0.81707084       0.39947837       0.52815251 </v>
   <v>       0.83304048       0.37309119       0.50525908 </v>
   <v>       0.87086313       0.62939767       0.54613591 </v>
   <v>       0.66053382       0.52292260       0.52426404 </v>
   <v>       0.76789838       0.51636650       0.58813417 </v>
   <v>       0.85691132       0.29242660       0.50303998 </v>
   <v>       0.06125482       0.25501422       0.56894235 </v>
   <v>       0.03226094       0.71032488       0.57051316 </v>
   <v>       0.53560008       0.20527488       0.56467703 </v>
   <v>       0.55007118       0.72887044       0.56301123 </v>
   <v>       0.45500621       0.30558223       0.56004091 </v>
   <v>       0.42223315       0.74159268       0.56160165 </v>
   <v>       0.93349496       0.25815703       0.56725066 </v>
   <v>       0.97154162       0.82047810       0.56213575 </v>
   <v>       0.26233573       0.44624423       0.56260563 </v>
   <v>       0.19930535       0.01945529       0.56133432 </v>
   <v>       0.70597313       0.99073296       0.56514105 </v>
   <v>       0.32576639       0.04083684       0.55845771 </v>
   <v>       0.27406634       0.57425564       0.55950955 </v>
   <v>       0.82046494       0.04964309       0.56259202 </v>
   <v>       0.05670496       0.19881907       0.65720176 </v>
   <v>       0.05128654       0.70284434       0.65732013 </v>
   <v>       0.54444169       0.19702213       0.65598600 </v>
   <v>       0.54064175       0.71184286       0.65891750 </v>
   <v>       0.21672293       0.44944361       0.65937724 </v>
   <v>       0.19633716       0.95892636       0.65598631 </v>
   <v>       0.69202562       0.46700344       0.65800209 </v>
   <v>       0.70606936       0.95204345       0.65881909 </v>
   <v>       0.46414932       0.29791114       0.65741421 </v>
   <v>       0.44732898       0.80073350       0.65549463 </v>
   <v>       0.96176660       0.28489561       0.66164290 </v>
   <v>       0.94808615       0.77928396       0.66055112 </v>
   <v>       0.30016398       0.03646840       0.65866104 </v>
   <v>       0.29482164       0.55243672       0.65800759 </v>
   <v>       0.79401661       0.04700134       0.65889802 </v>
   <v>       0.80656234       0.52583703       0.65641217 </v>
   <v>       0.04586250       0.20411950       0.75272599 </v>
   <v>       0.04586250       0.70411946       0.75272599 </v>
   <v>       0.54586251       0.20411950       0.75272599 </v>
   <v>       0.54586250       0.70411946       0.75272599 </v>
   <v>       0.20411900       0.45410100       0.75270499 </v>
   <v>       0.20411899       0.95410095       0.75270499 </v>
   <v>       0.70411898       0.45410100       0.75270499 </v>
   <v>       0.70411896       0.95410095       0.75270499 </v>
   <v>       0.45414002       0.29588849       0.75272697 </v>
   <v>       0.45414001       0.79588852       0.75272697 </v>
   <v>       0.95414002       0.29588849       0.75272697 </v>
   <v>       0.95414006       0.79588852       0.75272697 </v>
   <v>       0.29588249       0.04590050       0.75270499 </v>
   <v>       0.29588248       0.54590053       0.75270499 </v>
   <v>       0.79588244       0.04590050       0.75270499 </v>
   <v>       0.79588248       0.54590053       0.75270499 </v>
   <v>       0.77919115       0.51962575       0.54752089 </v>
   <v>       0.50949902       0.97645026       0.55262225 </v>
   <v>       0.46892590       0.50410940       0.55352197 </v>
   <v>       0.00799749       0.01257483       0.55129880 </v>
   <v>       0.03336255       0.49253340       0.55455415 </v>
   <v>       0.25488884       0.24255827       0.55485982 </v>
   <v>       0.23192534       0.76709576       0.55127310 </v>
   <v>       0.73623027       0.22523389       0.55510413 </v>
   <v>       0.72601955       0.79626623       0.55433793 </v>
   <v>       0.99552596       0.98397319       0.65411576 </v>
   <v>       0.00574517       0.50232975       0.65547925 </v>
   <v>       0.49707995       0.00151195       0.65459229 </v>
   <v>       0.49786073       0.50047111       0.65421020 </v>
   <v>       0.26394388       0.24010241       0.65551508 </v>
   <v>       0.24559281       0.75307248       0.65365204 </v>
   <v>       0.74363448       0.26068560       0.65523152 </v>
   <v>       0.75070415       0.73830153       0.65460072 </v>
   <v>       0.13727124       0.11583122       0.60897471 </v>
   <v>       0.14648651       0.60873106       0.60645834 </v>
   <v>       0.64082866       0.10940828       0.60892324 </v>
   <v>       0.61703293       0.63070383       0.60865580 </v>
   <v>       0.36799899       0.38442485       0.60926181 </v>
   <v>       0.36463814       0.88630258       0.60559476 </v>
   <v>       0.88783069       0.36372293       0.61257376 </v>
   <v>       0.86286718       0.89031235       0.60546021 </v>
   <v>       0.12649004       0.36986274       0.61133932 </v>
   <v>       0.11702357       0.87253098       0.60613704 </v>
   <v>       0.61872080       0.37091220       0.60199266 </v>
   <v>       0.61593532       0.86538391       0.61216034 </v>
   <v>       0.39803454       0.14117943       0.60421246 </v>
   <v>       0.37865283       0.63218908       0.60770114 </v>
   <v>       0.88193135       0.13253665       0.61292246 </v>
   <v>       0.90288847       0.64914543       0.61087127 </v>
   <v>       0.00000000       0.00000000       0.75492797 </v>
   <v>       0.00000000       0.50000000       0.75492797 </v>
   <v>       0.50000000       0.00000000       0.75492797 </v>
   <v>       0.49999999       0.50000000       0.75492797 </v>
   <v>       0.25000050       0.25000000       0.75493902 </v>
   <v>       0.25000051       0.74999997       0.75493902 </v>
   <v>       0.75000047       0.25000000       0.75493902 </v>
   <v>       0.75000046       0.74999997       0.75493902 </v>
   <v>       0.13579050       0.11421000       0.70478299 </v>
   <v>       0.13579050       0.61420998       0.70478299 </v>
   <v>       0.63579045       0.11421000       0.70478299 </v>
   <v>       0.63579049       0.61420998       0.70478299 </v>
   <v>       0.36420952       0.38578999       0.70478299 </v>
   <v>       0.36420950       0.88578996       0.70478299 </v>
   <v>       0.86420954       0.38578999       0.70478299 </v>
   <v>       0.86420953       0.88578996       0.70478299 </v>
   <v>       0.11421799       0.36421899       0.70478098 </v>
   <v>       0.11421799       0.86421899       0.70478098 </v>
   <v>       0.61421800       0.36421899       0.70478098 </v>
   <v>       0.61421799       0.86421899       0.70478098 </v>
   <v>       0.38578201       0.13578149       0.70478202 </v>
   <v>       0.38578200       0.63578149       0.70478202 </v>
   <v>       0.88578199       0.13578149       0.70478202 </v>
   <v>       0.88578203       0.63578149       0.70478202 </v>
   <v>       0.13466700       0.11533200       0.80125603 </v>
   <v>       0.13466699       0.61533199       0.80125603 </v>
   <v>       0.63466699       0.11533200       0.80125603 </v>
   <v>       0.63466698       0.61533199       0.80125603 </v>
   <v>       0.36533300       0.38466799       0.80125603 </v>
   <v>       0.36533299       0.88466796       0.80125603 </v>
   <v>       0.86533295       0.38466799       0.80125603 </v>
   <v>       0.86533294       0.88466796       0.80125603 </v>
   <v>       0.11532850       0.36533700       0.80126500 </v>
   <v>       0.11532850       0.86533698       0.80126500 </v>
   <v>       0.61532850       0.36533700       0.80126500 </v>
   <v>       0.61532849       0.86533698       0.80126500 </v>
   <v>       0.38467151       0.13466300       0.80126500 </v>
   <v>       0.38467150       0.63466297       0.80126500 </v>
   <v>       0.88467149       0.13466300       0.80126500 </v>
   <v>       0.88467153       0.63466297       0.80126500 </v>
   <v>       0.99917485       0.00639380       0.60406577 </v>
   <v>       0.00850917       0.50363829       0.60415197 </v>
   <v>       0.50230691       0.99428908       0.60288865 </v>
   <v>       0.49860792       0.50075263       0.60323369 </v>
   <v>       0.25572028       0.24968897       0.60604688 </v>
   <v>       0.24485262       0.75670634       0.60323729 </v>
   <v>       0.74857119       0.25118943       0.60590531 </v>
   <v>       0.75071362       0.75888995       0.60446642 </v>
   <v>       0.00000050       0.00000050       0.70482896 </v>
   <v>       0.00000050       0.50000048       0.70482896 </v>
   <v>       0.50000048       0.00000050       0.70482896 </v>
   <v>       0.50000046       0.50000048       0.70482896 </v>
   <v>       0.24999999       0.24999947       0.70482499 </v>
   <v>       0.25000001       0.74999950       0.70482499 </v>
   <v>       0.74999999       0.24999947       0.70482499 </v>
   <v>       0.74999998       0.74999950       0.70482499 </v>
   <v>       0.00000000       0.00000000       0.80731797 </v>
   <v>       0.00000000       0.50000000       0.80731797 </v>
   <v>       0.50000000       0.00000000       0.80731797 </v>
   <v>       0.49999999       0.50000000       0.80731797 </v>
   <v>       0.24999999       0.25000000       0.80731797 </v>
   <v>       0.25000001       0.74999997       0.80731797 </v>
   <v>       0.74999999       0.25000000       0.80731797 </v>
   <v>       0.74999998       0.74999997       0.80731797 </v>
  </varray>
 </structure>
</modeling>
