 vasp.6.2.1 16May21 (build Nov 15 2021 14:57:28) complex                         
 executed on             LinuxPGI date 2023.07.30  20:28:00
 running on    4 total cores
 distrk:  each k-point on    4 cores,    1 groups
 distr:  one band on NCORE=   1 cores,    4 groups


--------------------------------------------------------------------------------------------------------


 INCAR:
   SYSTEM = PSC
   ISTART = 1
   ICHARG = 1
   PREC = Normal
   ENCUT = 500
   GGA_COMPAT = F
   NELM = 600
   ISYM = 0
   LREAL = Auto
   ISMEAR = 0
   SIGMA = 0.05
   AMIN = 0.01
   BMIX = 0.01
   LVTOT = T
   LWAVE = F
   LDIPOL = T
   IDIPOL = 3
   LVDW = T
   IVDW = 12

 POTCAR:    PAW_PBE H 15Jun2001                   
 POTCAR:    PAW_PBE C 08Apr2002                   
 POTCAR:    PAW_PBE N 08Apr2002                   
 POTCAR:    PAW_PBE I 08Apr2002                   
 POTCAR:    PAW_PBE Pb 08Apr2002                  
 WARNING: For LVTOT=.TRUE., VASP.5.x writes the TOTAL local potential to the
     file LOCPOT. If you want only the Hartree contributions, use LVHAR=.TRUE.
     instead. 

 POTCAR:    PAW_PBE H 15Jun2001                   
   SHA256 =  030f79b5d3ab3cf0e668861823c8fb652ff669f3e15e46930bd03bfd63a607b6 H/POTCAR              
   COPYR  = (c) Copyright 15Jun2001 Georg Kresse                                                    
   COPYR  = This file is part of the software VASP. Any use, copying, and all other rights are regul
   COPYR  = If you do not have a valid VASP license, you may not use, copy or distribute this file. 
   VRHFIN =H: ultrasoft test                                                                        
   LEXCH  = PE                                                                                      
   EATOM  =    12.4884 eV,    0.9179 Ry                                                             
                                                                                                    
   TITEL  = PAW_PBE H 15Jun2001                                                                     
   LULTRA =        F    use ultrasoft PP ?                                                          
   IUNSCR =        0    unscreen: 0-lin 1-nonlin 2-no                                               
   RPACOR =    0.000    partial core radius                                                         
   POMASS =    1.000; ZVAL   =    1.000    mass and valenz                                          
   RCORE  =    1.100    outmost cutoff radius                                                       
   RWIGS  =    0.700; RWIGS  =    0.370    wigner-seitz radius (au A)                               
   ENMAX  =  250.000; ENMIN  =  200.000 eV                                                          
   RCLOC  =    0.701    cutoff for local pot                                                        
   LCOR   =        T    correct aug charges                                                         
   LPAW   =        T    paw PP                                                                      
   EAUG   =  400.000                                                                                
   RMAX   =    1.123    core radius for proj-oper                                                   
   RAUG   =    1.200    factor for augmentation sphere                                              
   RDEP   =    1.112    radius for radial grids                                                     
   RDEPT  =    0.926    core radius for aug-charge                                                  
                                                                                                    
   Atomic configuration                                                                             
    2 entries                                                                                       
     n  l   j            E        occ.                                                              
     1  0  0.50        -6.4927   1.0000                                                             
     2  1  0.50        -3.4015   0.0000                                                             
   Description                                                                                      
     l       E           TYP  RCUT    TYP  RCUT                                                     
     0     -6.4927494     23  1.100                                                                 
     0      6.8029130     23  1.100                                                                 
     1     -4.0817478     23  1.100                                                                 
  local pseudopotential read in
  atomic valenz-charges read in
  non local Contribution for L=            0  read in
    real space projection operators read in
  non local Contribution for L=            0  read in
    real space projection operators read in
  non local Contribution for L=            1  read in
    real space projection operators read in
    PAW grid and wavefunctions read in
 
   number of l-projection  operators is LMAX  =            3
   number of lm-projection operators is LMMAX =            5
 
 POTCAR:    PAW_PBE C 08Apr2002                   
   SHA256 =  253f7b50bb8d59471dbedb8285d89021f4a42ed1a2c5d38a03a736e69125dd95 C/POTCAR              
   COPYR  = (c) Copyright 08Apr2002 Georg Kresse                                                    
   COPYR  = This file is part of the software VASP. Any use, copying, and all other rights are regul
   COPYR  = If you do not have a valid VASP license, you may not use, copy or distribute this file. 
   VRHFIN =C: s2p2                                                                                  
   LEXCH  = PE                                                                                      
   EATOM  =   147.1560 eV,   10.8157 Ry                                                             
                                                                                                    
   TITEL  = PAW_PBE C 08Apr2002                                                                     
   LULTRA =        F    use ultrasoft PP ?                                                          
   IUNSCR =        1    unscreen: 0-lin 1-nonlin 2-no                                               
   RPACOR =    1.200    partial core radius                                                         
   POMASS =   12.011; ZVAL   =    4.000    mass and valenz                                          
   RCORE  =    1.500    outmost cutoff radius                                                       
   RWIGS  =    1.630; RWIGS  =    0.863    wigner-seitz radius (au A)                               
   ENMAX  =  400.000; ENMIN  =  300.000 eV                                                          
   ICORE  =        2    local potential                                                             
   LCOR   =        T    correct aug charges                                                         
   LPAW   =        T    paw PP                                                                      
   EAUG   =  644.873                                                                                
   DEXC   =    0.000                                                                                
   RMAX   =    1.529    core radius for proj-oper                                                   
   RAUG   =    1.300    factor for augmentation sphere                                              
   RDEP   =    1.501    radius for radial grids                                                     
   RDEPT  =    1.300    core radius for aug-charge                                                  
                                                                                                    
   Atomic configuration                                                                             
    4 entries                                                                                       
     n  l   j            E        occ.                                                              
     1  0  0.50      -273.3789   2.0000                                                             
     2  0  0.50       -13.7508   2.0000                                                             
     2  1  0.50        -5.2854   2.0000                                                             
     3  2  1.50        -5.4423   0.0000                                                             
   Description                                                                                      
     l       E           TYP  RCUT    TYP  RCUT                                                     
     0    -13.7508458     23  1.200                                                                 
     0     -8.2022199     23  1.200                                                                 
     1     -5.2854383     23  1.500                                                                 
     1     34.0145650     23  1.500                                                                 
     2     -5.4423304      7  1.500                                                                 
  local pseudopotential read in
  partial core-charges read in
  partial kinetic energy density read in
  atomic valenz-charges read in
  non local Contribution for L=            0  read in
    real space projection operators read in
  non local Contribution for L=            0  read in
    real space projection operators read in
  non local Contribution for L=            1  read in
    real space projection operators read in
  non local Contribution for L=            1  read in
    real space projection operators read in
    PAW grid and wavefunctions read in
 
   number of l-projection  operators is LMAX  =            4
   number of lm-projection operators is LMMAX =            8
 
 POTCAR:    PAW_PBE N 08Apr2002                   
   SHA256 =  e053789ff3a61a86a1b75d8a110fcc91f86041011e7b0817c7c99e4e8a6349d7 N/POTCAR              
   COPYR  = (c) Copyright 08Apr2002 Georg Kresse                                                    
   COPYR  = This file is part of the software VASP. Any use, copying, and all other rights are regul
   COPYR  = If you do not have a valid VASP license, you may not use, copy or distribute this file. 
   VRHFIN =N: s2p3                                                                                  
   LEXCH  = PE                                                                                      
   EATOM  =   264.5486 eV,   19.4438 Ry                                                             
                                                                                                    
   TITEL  = PAW_PBE N 08Apr2002                                                                     
   LULTRA =        F    use ultrasoft PP ?                                                          
   IUNSCR =        1    unscreen: 0-lin 1-nonlin 2-no                                               
   RPACOR =    1.200    partial core radius                                                         
   POMASS =   14.001; ZVAL   =    5.000    mass and valenz                                          
   RCORE  =    1.500    outmost cutoff radius                                                       
   RWIGS  =    1.400; RWIGS  =    0.741    wigner-seitz radius (au A)                               
   ENMAX  =  400.000; ENMIN  =  300.000 eV                                                          
   ICORE  =        2    local potential                                                             
   LCOR   =        T    correct aug charges                                                         
   LPAW   =        T    paw PP                                                                      
   EAUG   =  627.112                                                                                
   DEXC   =    0.000                                                                                
   RMAX   =    1.529    core radius for proj-oper                                                   
   RAUG   =    1.300    factor for augmentation sphere                                              
   RDEP   =    1.514    radius for radial grids                                                     
   RDEPT  =    1.338    core radius for aug-charge                                                  
                                                                                                    
   Atomic configuration                                                                             
    4 entries                                                                                       
     n  l   j            E        occ.                                                              
     1  0  0.50      -384.7179   2.0000                                                             
     2  0  0.50       -18.5828   2.0000                                                             
     2  1  0.50        -7.0898   3.0000                                                             
     3  2  1.50        -6.8029   0.0000                                                             
   Description                                                                                      
     l       E           TYP  RCUT    TYP  RCUT                                                     
     0    -18.5828119     23  1.200                                                                 
     0    -13.5018863     23  1.200                                                                 
     1     -7.0897853     23  1.500                                                                 
     1      9.5240782     23  1.500                                                                 
     2     -6.8029130      7  1.500                                                                 
  local pseudopotential read in
  partial core-charges read in
  partial kinetic energy density read in
  atomic valenz-charges read in
  non local Contribution for L=            0  read in
    real space projection operators read in
  non local Contribution for L=            0  read in
    real space projection operators read in
  non local Contribution for L=            1  read in
    real space projection operators read in
  non local Contribution for L=            1  read in
    real space projection operators read in
    PAW grid and wavefunctions read in
 
   number of l-projection  operators is LMAX  =            4
   number of lm-projection operators is LMMAX =            8
 
 POTCAR:    PAW_PBE I 08Apr2002                   
   SHA256 =  e40f3f59b681c1fc3e3091736183c4589116986673d2b852a5012aec72758799 I/POTCAR              
   COPYR  = (c) Copyright 08Apr2002 Georg Kresse                                                    
   COPYR  = This file is part of the software VASP. Any use, copying, and all other rights are regul
   COPYR  = If you do not have a valid VASP license, you may not use, copy or distribute this file. 
   VRHFIN =I : s2p5                                                                                 
   LEXCH  = PE                                                                                      
   EATOM  =   315.8678 eV,   23.2156 Ry                                                             
                                                                                                    
   TITEL  = PAW_PBE I 08Apr2002                                                                     
   LULTRA =        F    use ultrasoft PP ?                                                          
   IUNSCR =        1    unscreen: 0-lin 1-nonlin 2-no                                               
   RPACOR =    2.200    partial core radius                                                         
   POMASS =  126.904; ZVAL   =    7.000    mass and valenz                                          
   RCORE  =    2.300    outmost cutoff radius                                                       
   RWIGS  =    2.810; RWIGS  =    1.487    wigner-seitz radius (au A)                               
   ENMAX  =  175.647; ENMIN  =  131.735 eV                                                          
   ICORE  =        3    local potential                                                             
   LCOR   =        T    correct aug charges                                                         
   LPAW   =        T    paw PP                                                                      
   EAUG   =  370.139                                                                                
   DEXC   =    0.000                                                                                
   RMAX   =    2.359    core radius for proj-oper                                                   
   RAUG   =    1.300    factor for augmentation sphere                                              
   RDEP   =    2.392    radius for radial grids                                                     
   RDEPT  =    2.170    core radius for aug-charge                                                  
                                                                                                    
   Atomic configuration                                                                             
   13 entries                                                                                       
     n  l   j            E        occ.                                                              
     1  0  0.50    -32976.3739   2.0000                                                             
     2  0  0.50     -5094.5933   2.0000                                                             
     2  1  1.50     -4572.0131   6.0000                                                             
     3  0  0.50     -1028.2813   2.0000                                                             
     3  1  1.50      -859.0250   6.0000                                                             
     3  2  2.50      -605.7620  10.0000                                                             
     4  0  0.50      -180.5540   2.0000                                                             
     4  1  1.50      -127.5306   6.0000                                                             
     4  2  2.50       -50.2720  10.0000                                                             
     5  0  0.50       -17.4058   2.0000                                                             
     5  1  0.50        -7.0851   5.0000                                                             
     5  2  1.50        -7.0750   0.0000                                                             
     4  3  2.50        -7.0750   0.0000                                                             
   Description                                                                                      
     l       E           TYP  RCUT    TYP  RCUT                                                     
     0    -17.4058016     23  2.300                                                                 
     0    -18.7663842     23  2.300                                                                 
     1     -7.0850686     23  2.300                                                                 
     1     -4.2150896     23  2.300                                                                 
     2     -7.0750295     23  2.300                                                                 
     3     -1.3605826     23  2.300                                                                 
  local pseudopotential read in
  partial core-charges read in
  partial kinetic energy density read in
  atomic valenz-charges read in
  non local Contribution for L=            0  read in
    real space projection operators read in
  non local Contribution for L=            0  read in
    real space projection operators read in
  non local Contribution for L=            1  read in
    real space projection operators read in
  non local Contribution for L=            1  read in
    real space projection operators read in
  non local Contribution for L=            2  read in
    real space projection operators read in
    PAW grid and wavefunctions read in
 
   number of l-projection  operators is LMAX  =            5
   number of lm-projection operators is LMMAX =           13
 
 POTCAR:    PAW_PBE Pb 08Apr2002                  
   SHA256 =  797118a27cf1bcd06b9881c67a26cdde129e3cd1a551dd4a281f9681ce847303 Pb/POTCAR             
   COPYR  = (c) Copyright 08Apr2002 Georg Kresse                                                    
   COPYR  = This file is part of the software VASP. Any use, copying, and all other rights are regul
   COPYR  = If you do not have a valid VASP license, you may not use, copy or distribute this file. 
   VRHFIN =Pb:                                                                                      
   LEXCH  = PE                                                                                      
   EATOM  =    96.9868 eV,    7.1283 Ry                                                             
                                                                                                    
   TITEL  = PAW_PBE Pb 08Apr2002                                                                    
   LULTRA =        F    use ultrasoft PP ?                                                          
   IUNSCR =        1    unscreen: 0-lin 1-nonlin 2-no                                               
   RPACOR =    2.200    partial core radius                                                         
   POMASS =  207.200; ZVAL   =    4.000    mass and valenz                                          
   RCORE  =    3.100    outmost cutoff radius                                                       
   RWIGS  =    3.260; RWIGS  =    1.725    wigner-seitz radius (au A)                               
   ENMAX  =   97.973; ENMIN  =   73.480 eV                                                          
   ICORE  =        3    local potential                                                             
   LCOR   =        T    correct aug charges                                                         
   LPAW   =        T    paw PP                                                                      
   EAUG   =  234.873                                                                                
   DEXC   =    0.000                                                                                
   RMAX   =    3.158    core radius for proj-oper                                                   
   RAUG   =    1.300    factor for augmentation sphere                                              
   RDEP   =    3.202    radius for radial grids                                                     
   RDEPT  =    2.659    core radius for aug-charge                                                  
                                                                                                    
   Atomic configuration                                                                             
   17 entries                                                                                       
     n  l   j            E        occ.                                                              
     1  0  0.50    -88091.8466   2.0000                                                             
     2  0  0.50    -15753.4197   2.0000                                                             
     2  1  1.50    -13508.1797   6.0000                                                             
     3  0  0.50     -3781.7194   2.0000                                                             
     3  1  1.50     -3138.2529   6.0000                                                             
     3  2  2.50     -2483.2977  10.0000                                                             
     4  0  0.50      -856.2895   2.0000                                                             
     4  1  1.50      -645.4943   6.0000                                                             
     4  2  2.50      -401.8768  10.0000                                                             
     4  3  3.50      -132.9059  14.0000                                                             
     5  0  0.50      -144.0950   2.0000                                                             
     5  1  1.50       -85.7879   6.0000                                                             
     5  2  2.50       -21.1769  10.0000                                                             
     6  0  0.50       -12.0372   2.0000                                                             
     6  1  1.50        -3.4971   2.0000                                                             
     6  2  2.50        -1.3606   0.0000                                                             
     5  3  2.50        -2.7212   0.0000                                                             
   Description                                                                                      
     l       E           TYP  RCUT    TYP  RCUT                                                     
     0    -12.0371566     23  3.100                                                                 
     0    -13.3977392     23  3.100                                                                 
     1     -3.4971341     23  3.100                                                                 
     1     -5.4423304     23  3.100                                                                 
     2     -1.3605826     23  3.100                                                                 
     3     -1.3605826     23  3.100                                                                 
  local pseudopotential read in
  partial core-charges read in
  partial kinetic energy density read in
  atomic valenz-charges read in
  non local Contribution for L=            0  read in
    real space projection operators read in
  non local Contribution for L=            0  read in
    real space projection operators read in
  non local Contribution for L=            1  read in
    real space projection operators read in
  non local Contribution for L=            1  read in
    real space projection operators read in
  non local Contribution for L=            2  read in
    real space projection operators read in
    PAW grid and wavefunctions read in
 
   number of l-projection  operators is LMAX  =            5
   number of lm-projection operators is LMMAX =           13
 
 Optimization of the real space projectors (new method)

 maximal supplied QI-value         = 34.20
 optimisation between [QCUT,QGAM] = [ 11.29, 22.57] = [ 35.68,142.71] Ry 
 Optimized for a Real-space Cutoff    1.16 Angstroem

   l    n(q)    QCUT    max X(q) W(low)/X(q) W(high)/X(q)  e(spline) 
   0      8    11.287    19.460    0.40E-03    0.73E-03    0.16E-06
   0      8    11.287    12.209    0.38E-03    0.70E-03    0.15E-06
   1      7    11.287     4.655    0.22E-03    0.25E-04    0.22E-06
 Optimization of the real space projectors (new method)

 maximal supplied QI-value         = 25.13
 optimisation between [QCUT,QGAM] = [ 11.31, 22.87] = [ 35.82,146.48] Ry 
 Optimized for a Real-space Cutoff    1.00 Angstroem

   l    n(q)    QCUT    max X(q) W(low)/X(q) W(high)/X(q)  e(spline) 
   0      7    11.310   115.676    0.43E-03    0.13E-02    0.19E-06
   0      7    11.310    87.132    0.43E-03    0.13E-02    0.18E-06
   1      6    11.310     4.429    0.42E-03    0.74E-03    0.11E-06
   1      6    11.310     2.733    0.34E-03    0.55E-03    0.92E-07
 Optimization of the real space projectors (new method)

 maximal supplied QI-value         = 25.13
 optimisation between [QCUT,QGAM] = [ 11.31, 22.87] = [ 35.82,146.48] Ry 
 Optimized for a Real-space Cutoff    1.27 Angstroem

   l    n(q)    QCUT    max X(q) W(low)/X(q) W(high)/X(q)  e(spline) 
   0      9    11.310    79.467    0.75E-04    0.16E-03    0.36E-06
   0      9    11.310    66.151    0.74E-04    0.16E-03    0.36E-06
   1      8    11.310    17.416    0.35E-03    0.12E-03    0.95E-06
   1      8    11.310    12.382    0.37E-03    0.13E-03    0.98E-06
 Optimization of the real space projectors (new method)

 maximal supplied QI-value         = 16.25
 optimisation between [QCUT,QGAM] = [ 11.38, 22.75] = [ 36.24,144.96] Ry 
 Optimized for a Real-space Cutoff    1.31 Angstroem

   l    n(q)    QCUT    max X(q) W(low)/X(q) W(high)/X(q)  e(spline) 
   0      9    11.376   194.483    0.24E-03    0.23E-03    0.67E-07
   0      9    11.376   190.334    0.23E-03    0.22E-03    0.65E-07
   1      8    11.376   116.687    0.25E-03    0.63E-04    0.16E-06
   1      8    11.376    88.696    0.25E-03    0.61E-04    0.16E-06
   2      8    11.376     4.877    0.17E-03    0.14E-03    0.29E-07
 Optimization of the real space projectors (new method)

 maximal supplied QI-value         = 12.09
 optimisation between [QCUT,QGAM] = [ 11.37, 22.86] = [ 36.19,146.31] Ry 
 Optimized for a Real-space Cutoff    1.66 Angstroem

   l    n(q)    QCUT    max X(q) W(low)/X(q) W(high)/X(q)  e(spline) 
   0     11    11.369   135.111    0.12E-03    0.69E-04    0.19E-05
   0     11    11.369   146.850    0.11E-03    0.65E-04    0.18E-05
   1     11    11.369   148.016    0.17E-03    0.32E-03    0.89E-06
   1     11    11.369   122.989    0.17E-03    0.32E-03    0.91E-06
   2     10    11.369     8.916    0.12E-03    0.45E-04    0.33E-06
  PAW_PBE H 15Jun2001                   :
 energy of atom  1       EATOM=  -12.4884
 kinetic energy error for atom=    0.0020 (will be added to EATOM!!)
  PAW_PBE C 08Apr2002                   :
 energy of atom  2       EATOM= -147.1560
 kinetic energy error for atom=    0.0076 (will be added to EATOM!!)
  PAW_PBE N 08Apr2002                   :
 energy of atom  3       EATOM= -264.5486
 kinetic energy error for atom=    0.0138 (will be added to EATOM!!)
  PAW_PBE I 08Apr2002                   :
 energy of atom  4       EATOM= -315.8678
 kinetic energy error for atom=    0.0009 (will be added to EATOM!!)
  PAW_PBE Pb 08Apr2002                  :
 energy of atom  5       EATOM=  -96.9868
 kinetic energy error for atom=    0.0000 (will be added to EATOM!!)
 
 
 POSCAR:  H  C  N  I Pb
  positions in cartesian coordinates
  No initial velocities read in
 exchange correlation table for  LEXCH =        8
   RHO(1)=    0.500       N(1)  =     2000
   RHO(2)=  100.500       N(2)  =     4000
 


--------------------------------------------------------------------------------------------------------


 ion  position               nearest neighbor table
   1  0.473  0.332  0.571- 187 1.01
   2  0.451  0.838  0.573- 188 1.03
   3  0.922  0.243  0.581- 189 1.02
   4  0.942  0.814  0.576- 190 1.02
   5  0.318  0.072  0.570- 194 1.02
   6  0.337  0.567  0.570- 195 1.01
   7  0.796  0.088  0.574- 196 1.01
   8  0.105  0.247  0.557- 183 1.03
   9  0.087  0.675  0.573- 184 1.03
  10  0.553  0.154  0.559- 185 1.02
  11  0.495  0.646  0.562- 186 1.03
  12  0.368  0.007  0.556- 194 1.03
  13  0.283  0.633  0.557- 195 1.03
  14  0.868  0.032  0.564- 196 1.03
  15  0.058  0.245  0.582- 183 1.02
  16  0.005  0.695  0.587- 184 1.03
  17  0.574  0.241  0.571- 185 1.03
  18  0.453  0.703  0.581- 186 1.02
  19  0.283  0.441  0.574- 191 1.01
  20  0.181  0.058  0.571- 192 1.01
  21  0.669  0.029  0.573- 193 1.02
  22  0.388  0.304  0.560- 187 1.02
  23  0.503  0.869  0.552- 188 1.01
  24  0.878  0.235  0.556- 189 1.02
  25  0.987  0.867  0.557- 190 1.03
  26  0.197  0.427  0.563- 191 1.02
  27  0.142  0.988  0.557- 192 1.03
  28  0.666  0.940  0.563- 193 1.02
  29  0.433  0.189  0.551- 146 1.09
  30  0.538  0.747  0.542- 147 1.09
  31  0.993  0.241  0.538- 144 1.10
  32  0.082  0.779  0.552- 145 1.10
  33  0.187  0.548  0.551- 148 1.09
  34  0.259  0.942  0.546- 149 1.09
  35  0.791  0.935  0.556- 150 1.09
  36  0.465  0.309  0.674- 205 1.03
  37  0.441  0.808  0.672- 206 1.03
  38  0.949  0.277  0.676- 207 1.02
  39  0.923  0.744  0.673- 208 1.01
  40  0.308  0.050  0.672- 209 1.03
  41  0.294  0.550  0.676- 210 1.02
  42  0.792  0.053  0.675- 211 1.02
  43  0.845  0.474  0.665- 212 1.03
  44  0.092  0.174  0.648- 197 1.01
  45  0.106  0.708  0.652- 198 1.01
  46  0.580  0.168  0.648- 199 1.02
  47  0.575  0.670  0.653- 200 1.02
  48  0.185  0.409  0.648- 201 1.02
  49  0.170  0.925  0.648- 202 1.02
  50  0.645  0.478  0.660- 203 1.02
  51  0.680  0.912  0.647- 204 1.02
  52  0.058  0.183  0.673- 197 1.02
  53  0.046  0.676  0.672- 198 1.02
  54  0.566  0.209  0.673- 199 1.02
  55  0.537  0.702  0.677- 200 1.02
  56  0.204  0.437  0.674- 201 1.02
  57  0.200  0.953  0.673- 202 1.03
  58  0.716  0.425  0.670- 203 1.02
  59  0.699  0.942  0.673- 204 1.03
  60  0.421  0.324  0.650- 205 1.01
  61  0.425  0.832  0.646- 206 1.02
  62  0.926  0.320  0.652- 207 1.02
  63  0.911  0.816  0.655- 208 1.01
  64  0.336  0.073  0.646- 209 1.02
  65  0.321  0.585  0.652- 210 1.02
  66  0.823  0.082  0.650- 211 1.02
  67  0.853  0.554  0.649- 212 1.03
  68  0.014  0.259  0.632- 151 1.08
  69  0.027  0.799  0.640- 152 1.09
  70  0.491  0.238  0.631- 153 1.08
  71  0.507  0.748  0.632- 154 1.09
  72  0.254  0.997  0.629- 156 1.09
  73  0.256  0.498  0.632- 155 1.09
  74  0.757  0.996  0.631- 158 1.09
  75  0.726  0.563  0.644- 157 1.10
  76  0.449  0.301  0.769- 221 1.02
  77  0.449  0.801  0.769- 222 1.02
  78  0.949  0.301  0.769- 223 1.02
  79  0.949  0.801  0.769- 224 1.02
  80  0.301  0.051  0.769- 225 1.02
  81  0.301  0.551  0.769- 226 1.02
  82  0.801  0.051  0.769- 227 1.02
  83  0.801  0.551  0.769- 228 1.02
  84  0.079  0.171  0.743- 213 1.02
  85  0.079  0.671  0.743- 214 1.02
  86  0.579  0.171  0.743- 215 1.02
  87  0.579  0.671  0.743- 216 1.02
  88  0.171  0.421  0.743- 217 1.02
  89  0.171  0.921  0.743- 218 1.02
  90  0.671  0.421  0.743- 219 1.02
  91  0.671  0.921  0.743- 220 1.02
  92  0.051  0.199  0.769- 213 1.02
  93  0.051  0.699  0.769- 214 1.02
  94  0.551  0.199  0.769- 215 1.02
  95  0.551  0.699  0.769- 216 1.02
  96  0.199  0.449  0.769- 217 1.02
  97  0.199  0.949  0.769- 218 1.02
  98  0.699  0.449  0.769- 219 1.02
  99  0.699  0.949  0.769- 220 1.02
 100  0.421  0.329  0.743- 221 1.02
 101  0.421  0.829  0.743- 222 1.02
 102  0.921  0.329  0.743- 223 1.02
 103  0.921  0.829  0.743- 224 1.02
 104  0.329  0.079  0.743- 225 1.02
 105  0.329  0.579  0.743- 226 1.02
 106  0.829  0.079  0.743- 227 1.02
 107  0.829  0.579  0.743- 228 1.02
 108  0.000  0.250  0.726- 161 1.09
 109  0.000  0.750  0.726- 162 1.09
 110  0.500  0.250  0.726- 159 1.09
 111  0.500  0.750  0.726- 160 1.09
 112  0.250  0.000  0.726- 163 1.09
 113  0.250  0.500  0.726- 164 1.09
 114  0.750  0.000  0.726- 165 1.09
 115  0.750  0.500  0.726- 166 1.09
 116  0.719  0.440  0.542- 173 1.10
 117  0.737  0.493  0.519- 173 1.08
 118  0.659  0.553  0.559- 174 1.10
 119  0.708  0.638  0.557- 174 1.10
 120  0.848  0.506  0.570- 175 1.09
 121  0.789  0.574  0.579- 175 1.09
 122  0.868  0.562  0.530- 176 1.09
 123  0.795  0.625  0.525- 176 1.10
 124  0.869  0.463  0.519- 177 1.10
 125  0.863  0.423  0.544- 177 1.10
 126  0.870  0.325  0.518- 178 1.10
 127  0.783  0.322  0.530- 178 1.10
 128  0.635  0.551  0.520- 179 1.10
 129  0.687  0.635  0.516- 179 1.10
 130  0.606  0.633  0.532- 179 1.10
 131  0.754  0.464  0.597- 180 1.10
 132  0.755  0.409  0.574- 180 1.09
 133  0.683  0.475  0.578- 180 1.09
 134  0.818  0.689  0.559- 181 1.10
 135  0.902  0.683  0.544- 181 1.10
 136  0.888  0.623  0.566- 181 1.10
 137  0.820  0.382  0.485- 182 1.12
 138  0.782  0.293  0.491- 182 1.11
 139  0.662  0.311  0.520- 168 1.09
 140  0.729  0.461  0.470- 169 1.11
 141  0.537  0.366  0.520- 170 1.09
 142  0.602  0.514  0.469- 171 1.10
 143  0.506  0.467  0.495- 172 1.10
 144  0.991  0.242  0.555-  31 1.10 189 1.31 183 1.31
 145  0.036  0.769  0.563-  32 1.10 184 1.31 190 1.31
 146  0.471  0.229  0.558-  29 1.09 187 1.31 185 1.31
 147  0.503  0.757  0.556-  30 1.09 188 1.30 186 1.31
 148  0.238  0.531  0.559-  33 1.09 195 1.31 191 1.31
 149  0.255  0.993  0.555-  34 1.09 194 1.31 192 1.31
 150  0.767  0.985  0.563-  35 1.09 196 1.31 193 1.31
 151  0.009  0.248  0.649-  68 1.08 207 1.31 197 1.32
 152  0.009  0.763  0.653-  69 1.09 208 1.31 198 1.32
 153  0.501  0.246  0.648-  70 1.08 205 1.30 199 1.32
 154  0.500  0.751  0.649-  71 1.09 206 1.30 200 1.31
 155  0.254  0.496  0.649-  73 1.09 201 1.31 210 1.31
 156  0.253  0.999  0.647-  72 1.09 209 1.30 202 1.32
 157  0.748  0.518  0.653-  75 1.10 212 1.30 203 1.31
 158  0.752  0.997  0.648-  74 1.09 211 1.30 204 1.32
 159  0.500  0.250  0.743- 110 1.09 221 1.31 215 1.31
 160  0.500  0.750  0.743- 111 1.09 222 1.31 216 1.31
 161  1.000  0.250  0.743- 108 1.09 223 1.31 213 1.31
 162  1.000  0.750  0.743- 109 1.09 224 1.31 214 1.31
 163  0.250  0.000  0.743- 112 1.09 225 1.31 218 1.31
 164  0.250  0.500  0.743- 113 1.09 226 1.31 217 1.31
 165  0.750  0.000  0.743- 114 1.09 227 1.31 220 1.31
 166  0.750  0.500  0.743- 115 1.09 228 1.31 219 1.31
 167  0.705  0.382  0.495- 169 1.40 168 1.41 182 1.51
 168  0.649  0.356  0.509- 139 1.09 170 1.39 167 1.41
 169  0.686  0.439  0.481- 140 1.11 171 1.40 167 1.40
 170  0.579  0.385  0.509- 141 1.09 168 1.39 172 1.40
 171  0.615  0.469  0.481- 142 1.10 172 1.39 169 1.40
 172  0.562  0.443  0.495- 143 1.10 171 1.39 170 1.40
 173  0.761  0.475  0.534- 117 1.08 116 1.10 229 1.52 177 1.53
 174  0.696  0.586  0.549- 118 1.10 119 1.10 179 1.51 229 1.53
 175  0.790  0.523  0.570- 120 1.09 121 1.09 180 1.51 229 1.52
 176  0.825  0.596  0.537- 122 1.09 123 1.10 181 1.51 229 1.52
 177  0.832  0.431  0.529- 125 1.10 124 1.10 173 1.53 178 1.53
 178  0.817  0.355  0.519- 127 1.10 126 1.10 177 1.53 182 1.54
 179  0.656  0.601  0.528- 129 1.10 128 1.10 130 1.10 174 1.51
 180  0.742  0.465  0.580- 133 1.09 132 1.09 131 1.10 175 1.51
 181  0.860  0.651  0.553- 136 1.10 135 1.10 134 1.10 176 1.51
 182  0.783  0.352  0.497- 138 1.11 137 1.12 167 1.51 178 1.54
 183  0.054  0.242  0.565-  15 1.02   8 1.03 144 1.31
 184  0.042  0.709  0.575-   9 1.03  16 1.03 145 1.31
 185  0.539  0.208  0.562-  10 1.02  17 1.03 146 1.31
 186  0.485  0.699  0.568-  18 1.02  11 1.03 147 1.31
 187  0.443  0.294  0.563-   1 1.01  22 1.02 146 1.31
 188  0.483  0.825  0.560-  23 1.01   2 1.03 147 1.30
 189  0.927  0.244  0.564-  24 1.02   3 1.02 144 1.31
 190  0.980  0.816  0.564-   4 1.02  25 1.03 145 1.31
 191  0.241  0.461  0.565-  19 1.01  26 1.02 148 1.31
 192  0.189  0.015  0.561-  20 1.01  27 1.03 149 1.31
 193  0.695  0.987  0.565-  21 1.02  28 1.02 150 1.31
 194  0.316  0.028  0.560-   5 1.02  12 1.03 149 1.31
 195  0.291  0.579  0.561-   6 1.01  13 1.03 148 1.31
 196  0.813  0.039  0.567-   7 1.01  14 1.03 150 1.31
 197  0.055  0.199  0.657-  44 1.01  52 1.02 151 1.32
 198  0.056  0.712  0.659-  45 1.01  53 1.02 152 1.32
 199  0.553  0.205  0.657-  46 1.02  54 1.02 153 1.32
 200  0.539  0.705  0.661-  55 1.02  47 1.02 154 1.31
 201  0.213  0.444  0.658-  56 1.02  48 1.02 155 1.31
 202  0.205  0.957  0.657-  49 1.02  57 1.03 156 1.32
 203  0.701  0.469  0.661-  58 1.02  50 1.02 157 1.31
 204  0.708  0.947  0.657-  51 1.02  59 1.03 158 1.32
 205  0.461  0.296  0.658-  60 1.01  36 1.03 153 1.30
 206  0.453  0.799  0.657-  61 1.02  37 1.03 154 1.30
 207  0.958  0.284  0.660-  62 1.02  38 1.02 151 1.31
 208  0.944  0.776  0.661-  63 1.01  39 1.01 152 1.31
 209  0.301  0.043  0.656-  64 1.02  40 1.03 156 1.30
 210  0.292  0.546  0.660-  65 1.02  41 1.02 155 1.31
 211  0.791  0.047  0.659-  66 1.02  42 1.02 158 1.30
 212  0.819  0.515  0.656-  43 1.03  67 1.03 157 1.30
 213  0.046  0.204  0.753-  92 1.02  84 1.02 161 1.31
 214  0.046  0.704  0.753-  93 1.02  85 1.02 162 1.31
 215  0.546  0.204  0.753-  94 1.02  86 1.02 159 1.31
 216  0.546  0.704  0.753-  95 1.02  87 1.02 160 1.31
 217  0.204  0.454  0.753-  96 1.02  88 1.02 164 1.31
 218  0.204  0.954  0.753-  97 1.02  89 1.02 163 1.31
 219  0.704  0.454  0.753-  98 1.02  90 1.02 166 1.31
 220  0.704  0.954  0.753-  99 1.02  91 1.02 165 1.31
 221  0.454  0.296  0.753-  76 1.02 100 1.02 159 1.31
 222  0.454  0.796  0.753-  77 1.02 101 1.02 160 1.31
 223  0.954  0.296  0.753-  78 1.02 102 1.02 161 1.31
 224  0.954  0.796  0.753-  79 1.02 103 1.02 162 1.31
 225  0.296  0.046  0.753-  80 1.02 104 1.02 163 1.31
 226  0.296  0.546  0.753-  81 1.02 105 1.02 164 1.31
 227  0.796  0.046  0.753-  82 1.02 106 1.02 165 1.31
 228  0.796  0.546  0.753-  83 1.02 107 1.02 166 1.31
 229  0.769  0.544  0.547- 175 1.52 176 1.52 173 1.52 174 1.53
 230  0.509  0.015  0.551- 304 3.33
 231  0.483  0.508  0.555- 305 3.16
 232  0.997  0.008  0.552- 302 3.32
 233  0.032  0.506  0.555- 303 3.16
 234  0.249  0.248  0.553- 306 3.21
 235  0.241  0.766  0.553- 307 3.22
 236  0.732  0.211  0.556- 308 3.20
 237  0.701  0.795  0.554- 309 3.21
 238  0.999  0.991  0.655- 302 3.10 310 3.15
 239  0.017  0.495  0.656- 311 3.09 303 3.18
 240  0.502  0.005  0.654- 304 3.12 312 3.17
 241  0.505  0.496  0.655- 313 3.10 305 3.15
 242  0.257  0.243  0.655- 314 3.12 306 3.17
 243  0.251  0.757  0.655- 315 3.15 307 3.17
 244  0.747  0.269  0.655- 316 3.11 308 3.14
 245  0.747  0.744  0.654- 317 3.19 309 3.20
 246  0.133  0.119  0.608- 302 3.24 306 3.25
 247  0.150  0.607  0.610- 307 3.19 303 3.19
 248  0.640  0.114  0.610- 304 3.19 308 3.22
 249  0.627  0.622  0.611- 305 3.17 309 3.24
 250  0.364  0.388  0.608- 306 3.16 305 3.23
 251  0.373  0.882  0.606- 304 3.22 307 3.27
 252  0.887  0.371  0.611- 303 3.28 308 3.30
 253  0.867  0.879  0.608- 309 3.18 302 3.24
 254  0.123  0.365  0.609- 306 3.07 303 3.30
 255  0.123  0.877  0.608- 307 3.17 302 3.23
 256  0.593  0.346  0.603- 308 3.20 305 3.26
 257  0.615  0.866  0.612- 309 3.07 304 3.28
 258  0.384  0.132  0.606- 304 3.12 306 3.27
 259  0.381  0.632  0.612- 305 3.24 307 3.30
 260  0.884  0.138  0.612- 302 3.21 308 3.32
 261  0.906  0.645  0.616- 303 3.18 309 3.70
 262  0.000  0.000  0.755- 310 3.13 318 3.27
 263  0.000  0.500  0.755- 311 3.13 319 3.27
 264  0.500  0.000  0.755- 312 3.13 320 3.27
 265  0.500  0.500  0.755- 313 3.13 321 3.27
 266  0.250  0.250  0.755- 314 3.13 322 3.27
 267  0.250  0.750  0.755- 315 3.13 323 3.27
 268  0.750  0.250  0.755- 316 3.13 324 3.27
 269  0.750  0.750  0.755- 317 3.13 325 3.27
 270  0.136  0.114  0.705- 310 3.20 314 3.20
 271  0.136  0.614  0.705- 311 3.20 315 3.20
 272  0.636  0.114  0.705- 312 3.20 316 3.20
 273  0.636  0.614  0.705- 313 3.20 317 3.20
 274  0.364  0.386  0.705- 313 3.20 314 3.20
 275  0.364  0.886  0.705- 312 3.20 315 3.20
 276  0.864  0.386  0.705- 311 3.20 316 3.20
 277  0.864  0.886  0.705- 310 3.20 317 3.20
 278  0.114  0.364  0.705- 314 3.21 311 3.21
 279  0.114  0.864  0.705- 315 3.21 310 3.21
 280  0.614  0.364  0.705- 316 3.21 313 3.21
 281  0.614  0.864  0.705- 317 3.21 312 3.21
 282  0.386  0.136  0.705- 314 3.21 312 3.21
 283  0.386  0.636  0.705- 315 3.21 313 3.21
 284  0.886  0.136  0.705- 316 3.21 310 3.21
 285  0.886  0.636  0.705- 317 3.21 311 3.21
 286  0.135  0.115  0.801- 318 3.22 322 3.22
 287  0.135  0.615  0.801- 319 3.22 323 3.22
 288  0.635  0.115  0.801- 320 3.22 324 3.22
 289  0.635  0.615  0.801- 321 3.22 325 3.22
 290  0.365  0.385  0.801- 321 3.22 322 3.22
 291  0.365  0.885  0.801- 320 3.22 323 3.22
 292  0.865  0.385  0.801- 319 3.22 324 3.22
 293  0.865  0.885  0.801- 318 3.22 325 3.22
 294  0.115  0.365  0.801- 319 3.23 322 3.23
 295  0.115  0.865  0.801- 318 3.23 323 3.23
 296  0.615  0.365  0.801- 321 3.23 324 3.23
 297  0.615  0.865  0.801- 320 3.23 325 3.23
 298  0.385  0.135  0.801- 320 3.23 322 3.23
 299  0.385  0.635  0.801- 321 3.23 323 3.23
 300  0.885  0.135  0.801- 318 3.23 324 3.23
 301  0.885  0.635  0.801- 319 3.23 325 3.23
 302  0.997  0.003  0.605- 238 3.10 260 3.21 255 3.23 246 3.24 253 3.24 232 3.32
 303  0.007  0.506  0.605- 233 3.16 261 3.18 239 3.18 247 3.19 252 3.28 254 3.30
 304  0.502  0.006  0.604- 240 3.12 258 3.12 248 3.19 251 3.22 257 3.28 230 3.33
 305  0.501  0.501  0.605- 241 3.15 231 3.16 249 3.17 250 3.23 259 3.24 256 3.26
 306  0.251  0.255  0.604- 254 3.07 250 3.16 242 3.17 234 3.21 246 3.25 258 3.27
 307  0.247  0.753  0.604- 243 3.17 255 3.17 247 3.19 235 3.22 251 3.27 259 3.30
 308  0.746  0.257  0.605- 244 3.14 256 3.20 236 3.20 248 3.22 252 3.30 260 3.32
 309  0.741  0.757  0.603- 257 3.07 253 3.18 245 3.20 237 3.21 249 3.24 261 3.70
 310  0.000  0.000  0.705- 262 3.13 238 3.15 270 3.20 277 3.20 279 3.21 284 3.21
 311  0.000  0.500  0.705- 239 3.09 263 3.13 271 3.20 276 3.20 278 3.21 285 3.21
 312  0.500  0.000  0.705- 264 3.13 240 3.17 272 3.20 275 3.20 281 3.21 282 3.21
 313  0.500  0.500  0.705- 241 3.10 265 3.13 273 3.20 274 3.20 280 3.21 283 3.21
 314  0.250  0.250  0.705- 242 3.12 266 3.13 270 3.20 274 3.20 282 3.21 278 3.21
 315  0.250  0.750  0.705- 267 3.13 243 3.15 271 3.20 275 3.20 283 3.21 279 3.21
 316  0.750  0.250  0.705- 244 3.11 268 3.13 272 3.20 276 3.20 284 3.21 280 3.21
 317  0.750  0.750  0.705- 269 3.13 245 3.19 273 3.20 277 3.20 285 3.21 281 3.21
 318  0.000  0.000  0.807- 286 3.22 293 3.22 300 3.23 295 3.23 262 3.27
 319  0.000  0.500  0.807- 287 3.22 292 3.22 301 3.23 294 3.23 263 3.27
 320  0.500  0.000  0.807- 288 3.22 291 3.22 298 3.23 297 3.23 264 3.27
 321  0.500  0.500  0.807- 289 3.22 290 3.22 299 3.23 296 3.23 265 3.27
 322  0.250  0.250  0.807- 290 3.22 286 3.22 294 3.23 298 3.23 266 3.27
 323  0.250  0.750  0.807- 291 3.22 287 3.22 299 3.23 295 3.23 267 3.27
 324  0.750  0.250  0.807- 292 3.22 288 3.22 296 3.23 300 3.23 268 3.27
 325  0.750  0.750  0.807- 293 3.22 289 3.22 297 3.23 301 3.23 269 3.27
 

IMPORTANT INFORMATION: All symmetrisations will be switched off!
NOSYMM: (Re-)initialisation of all symmetry stuff for point group C_1.


----------------------------------------------------------------------------------------

                                     Primitive cell                                     

  volume of cell :   20385.2105

  direct lattice vectors                    reciprocal lattice vectors
    18.060800552  0.000000000  0.000000000     0.055368531  0.000015077 -0.000000000
    -0.004918649 18.062799454  0.000000000     0.000000000  0.055362404  0.000000000
     0.000000000  0.000000000 62.487499237     0.000000000 -0.000000000  0.016003201

  length of vectors
    18.060800552 18.062800123 62.487499237     0.055368533  0.055362404  0.016003201

  position of ions in fractional coordinates (direct lattice)
     0.472597158  0.332254201  0.571098358
     0.450789909  0.837852975  0.573431710
     0.922192023  0.242563127  0.580812459
     0.942330763  0.814133766  0.575937277
     0.317957520  0.071993588  0.570459863
     0.337215023  0.566591947  0.569850061
     0.795890239  0.087531094  0.573720952
     0.104580949  0.247164367  0.557465199
     0.086696186  0.674917628  0.572813972
     0.552832854  0.154343683  0.559395699
     0.494841904  0.645720762  0.562462475
     0.367549472  0.007317083  0.556014286
     0.282611928  0.633470797  0.556999407
     0.868163888  0.032114150  0.564098056
     0.057572624  0.244569228  0.581614621
     0.005202527  0.694529704  0.586638636
     0.573921998  0.240969982  0.570797150
     0.453177272  0.702552579  0.581190281
     0.283177131  0.440527031  0.574202006
     0.181346854  0.057797348  0.571414094
     0.669141805  0.029497730  0.573048332
     0.388335612  0.303668284  0.560066976
     0.502686836  0.868744858  0.552042178
     0.878417326  0.235477596  0.556254324
     0.986597299  0.867074550  0.556580622
     0.196526346  0.427122750  0.563239486
     0.141572122  0.987615230  0.556594907
     0.665918258  0.939548373  0.562899757
     0.433101384  0.188624558  0.551148078
     0.537888859  0.747217218  0.542311960
     0.993400434  0.241316626  0.537514675
     0.082076973  0.779381578  0.552065559
     0.186613549  0.547962542  0.551208637
     0.259336371  0.942381590  0.545927979
     0.790552477  0.934708354  0.555902386
     0.465130296  0.309117825  0.673692181
     0.441161996  0.808074437  0.672446387
     0.948626818  0.276724059  0.676093662
     0.923127059  0.744266090  0.673412340
     0.308094904  0.049902316  0.671884202
     0.294161532  0.549577307  0.676243839
     0.791620507  0.052686748  0.674838223
     0.844716287  0.474273844  0.664641054
     0.092109502  0.173868814  0.647601086
     0.105828368  0.707656374  0.652211261
     0.580099770  0.167756213  0.648125727
     0.575192062  0.669779355  0.653136495
     0.185456567  0.408688168  0.647752300
     0.169962518  0.924994805  0.647757733
     0.645206197  0.478068204  0.659868066
     0.679947985  0.911758592  0.647443828
     0.057818654  0.183413372  0.673229808
     0.045618895  0.676253515  0.671684028
     0.565556343  0.209404929  0.673053442
     0.537292019  0.702037115  0.677077868
     0.203853408  0.437117250  0.673790528
     0.199800536  0.952532661  0.672984214
     0.716020799  0.425054189  0.670223836
     0.699007314  0.941600151  0.673319364
     0.421267709  0.323848384  0.649525665
     0.424571613  0.832173685  0.646049994
     0.925598501  0.320178126  0.651929954
     0.911373860  0.815519283  0.654984765
     0.335926560  0.072839968  0.646293390
     0.320996352  0.584688730  0.651532902
     0.823435798  0.082325854  0.650154758
     0.853290338  0.553849961  0.648957680
     0.014126885  0.258571945  0.632429411
     0.026982124  0.798789011  0.639886835
     0.490639792  0.237950033  0.631189417
     0.506854579  0.748385420  0.631905319
     0.253603453  0.997214898  0.629251713
     0.255934590  0.498489405  0.631930593
     0.756852014  0.996080691  0.631005481
     0.725594788  0.563368067  0.643777384
     0.448745018  0.301283966  0.768889017
     0.448745007  0.801283913  0.768889017
     0.948744965  0.301283966  0.768889017
     0.948745007  0.801283913  0.768889017
     0.301275995  0.051294496  0.768872961
     0.301276011  0.551294499  0.768872961
     0.801275943  0.051294496  0.768872961
     0.801275984  0.551294499  0.768872961
     0.078771004  0.171180501  0.743441971
     0.078771006  0.671180448  0.743441971
     0.578771004  0.171180501  0.743441971
     0.578770992  0.671180448  0.743441971
     0.171199499  0.421174482  0.743421032
     0.171199501  0.921174508  0.743421032
     0.671199512  0.421174482  0.743421032
     0.671199501  0.921174508  0.743421032
     0.051256000  0.198714991  0.768889017
     0.051256002  0.698714925  0.768889017
     0.551256027  0.198714991  0.768889017
     0.551256016  0.698714925  0.768889017
     0.198723491  0.448703970  0.768872046
     0.198723493  0.948703970  0.768872046
     0.698723518  0.448703970  0.768872046
     0.698723507  0.948703970  0.768872046
     0.421231519  0.328817467  0.743441971
     0.421231508  0.828817440  0.743441971
     0.921231466  0.328817467  0.743441971
     0.921231508  0.828817440  0.743441971
     0.328800503  0.078824997  0.743421032
     0.328800492  0.578824964  0.743421032
     0.828800477  0.078824997  0.743421032
     0.828800519  0.578824964  0.743421032
     0.000003500  0.250001478  0.725821992
     0.000003500  0.750001452  0.725821992
     0.500003506  0.250001478  0.725821992
     0.500003495  0.750001452  0.725821992
     0.250000502  0.000000000  0.725803983
     0.250000517  0.500000000  0.725803983
     0.750000502  0.000000000  0.725803983
     0.750000490  0.500000000  0.725803983
     0.718985490  0.440310085  0.541553996
     0.737088055  0.493160005  0.518709278
     0.659355779  0.553203823  0.559146626
     0.708418562  0.638119002  0.556782872
     0.848233902  0.505880450  0.569694756
     0.788877317  0.574470632  0.579472225
     0.868184548  0.561871886  0.530007131
     0.795198363  0.624637636  0.524502856
     0.868919794  0.462827725  0.518530775
     0.862820488  0.423194337  0.544172379
     0.870155710  0.325345226  0.518289150
     0.782571040  0.321822352  0.530201506
     0.635066320  0.551119581  0.519727487
     0.687467445  0.635054253  0.516422077
     0.606289726  0.632818007  0.532218267
     0.753653638  0.464469892  0.597492492
     0.755209628  0.409120502  0.574278132
     0.683301704  0.475423673  0.577916066
     0.817861548  0.689235045  0.559229773
     0.901910029  0.682909510  0.544406068
     0.887618584  0.623359615  0.566304613
     0.819571418  0.381866513  0.485180813
     0.782444406  0.293280098  0.491436214
     0.662235827  0.310975301  0.520316106
     0.729253321  0.461334606  0.470024553
     0.536604044  0.366033089  0.519971860
     0.602084910  0.514480562  0.469445488
     0.505674613  0.467373501  0.494707468
     0.991208007  0.242394042  0.555090578
     0.035844620  0.769313056  0.563132592
     0.470511095  0.228891162  0.558434936
     0.502864559  0.757017686  0.556238085
     0.237651051  0.530500177  0.558991200
     0.255169009  0.992694636  0.555461929
     0.767088440  0.985159498  0.562636033
     0.008565825  0.247589389  0.649366087
     0.008889484  0.763180603  0.653045168
     0.500599699  0.246274145  0.648080735
     0.499623988  0.750940037  0.649236789
     0.253798791  0.496156327  0.649326040
     0.253236538  0.999119585  0.646641238
     0.747726787  0.517706132  0.653401318
     0.752186082  0.997050012  0.648363995
     0.499988984  0.249994984  0.743277021
     0.499989025  0.749994958  0.743277021
     0.999988984  0.249994984  0.743277021
     0.999989025  0.749994958  0.743277021
     0.250000502  0.000001000  0.743255960
     0.250000517  0.500001003  0.743255960
     0.750000502  0.000001000  0.743255960
     0.750000491  0.500001003  0.743255960
     0.704921194  0.382268251  0.495219625
     0.649472831  0.355538305  0.509088793
     0.686450833  0.439281322  0.480941623
     0.578715549  0.385390020  0.508799978
     0.614927866  0.469202044  0.480602779
     0.561557048  0.442629224  0.494651518
     0.761015496  0.474700027  0.533707822
     0.695606961  0.585642150  0.548596970
     0.790448392  0.523324600  0.570133504
     0.825377395  0.596172599  0.537373472
     0.831826795  0.431272122  0.529227373
     0.816950759  0.355038416  0.519344293
     0.655826534  0.601040600  0.527739404
     0.742252059  0.464567039  0.580238980
     0.859526757  0.650611413  0.552912469
     0.782853858  0.352078894  0.496709120
     0.054457231  0.242299798  0.565284084
     0.041929596  0.709210739  0.574768342
     0.538857963  0.208400413  0.561975866
     0.484860236  0.699029124  0.567669449
     0.443339230  0.294407778  0.562616375
     0.482622692  0.824888077  0.560301703
     0.926614136  0.244212870  0.564486806
     0.980446246  0.816396253  0.563917722
     0.240712776  0.461442260  0.565457031
     0.188814390  0.015259618  0.561045932
     0.695213971  0.987202461  0.565460694
     0.316216603  0.027648151  0.560408842
     0.291045331  0.578950570  0.561424426
     0.812573074  0.039168778  0.567272641
     0.055060988  0.198535611  0.657447782
     0.056107139  0.711715039  0.659446534
     0.552638247  0.205433552  0.657215558
     0.539369136  0.704887188  0.660775168
     0.213001516  0.443898903  0.657799964
     0.204573937  0.956845573  0.656662957
     0.700772592  0.469375379  0.661257809
     0.708108135  0.947308790  0.657179845
     0.460754473  0.295957760  0.657771272
     0.452680967  0.799479605  0.656564915
     0.957517935  0.283581266  0.660150349
     0.943910748  0.775926550  0.661476542
     0.301415553  0.042563145  0.655669350
     0.291964019  0.545840127  0.659927526
     0.790841986  0.046535341  0.658538149
     0.819334697  0.515251514  0.655958470
     0.045862501  0.204119496  0.752725994
     0.045862500  0.704119456  0.752725994
     0.545862507  0.204119496  0.752725994
     0.545862496  0.704119456  0.752725994
     0.204119002  0.454101003  0.752704994
     0.204118991  0.954100951  0.752704994
     0.704118976  0.454101003  0.752704994
     0.704118964  0.954100951  0.752704994
     0.454140018  0.295888490  0.752726971
     0.454140007  0.795888516  0.752726971
     0.954140018  0.295888490  0.752726971
     0.954140060  0.795888516  0.752726971
     0.295882492  0.045900498  0.752704994
     0.295882481  0.545900528  0.752704994
     0.795882439  0.045900498  0.752704994
     0.795882481  0.545900528  0.752704994
     0.769373412  0.543771302  0.547403616
     0.508884801  0.014626310  0.550951384
     0.482783155  0.507852497  0.554628327
     0.996579216  0.007942877  0.551890048
     0.031944267  0.506412545  0.555033682
     0.249413444  0.247933577  0.553157391
     0.240801689  0.766301528  0.552567490
     0.731848045  0.210671744  0.555982297
     0.700982223  0.795113393  0.553873843
     0.999169261  0.990949411  0.654536311
     0.016767003  0.494935275  0.655703414
     0.502084598  0.004531133  0.654138282
     0.504566384  0.495528774  0.655213021
     0.257018961  0.242543697  0.655053443
     0.251499505  0.757391546  0.654518180
     0.746646925  0.268645060  0.655368081
     0.746552486  0.743964510  0.653757713
     0.132913273  0.118958266  0.607661457
     0.150242591  0.607169199  0.610270926
     0.639806003  0.114032888  0.610009949
     0.627065681  0.622068553  0.610897333
     0.363637217  0.387679091  0.608465451
     0.373323175  0.882262760  0.606347778
     0.886858292  0.370820521  0.610623902
     0.866956324  0.879411314  0.607692408
     0.122707140  0.365052768  0.608513983
     0.123261650  0.877141277  0.607577761
     0.592787585  0.345626803  0.602982603
     0.614565634  0.865901174  0.611868536
     0.384110319  0.132055251  0.605637981
     0.381415843  0.632324348  0.612008457
     0.883889988  0.138133204  0.612207898
     0.906361841  0.645482222  0.615831609
     0.000000000  0.000000000  0.754927972
     0.000000000  0.500000000  0.754927972
     0.500000000  0.000000000  0.754927972
     0.499999989  0.500000000  0.754927972
     0.250000496  0.250000000  0.754939022
     0.250000511  0.749999974  0.754939022
     0.750000470  0.250000000  0.754939022
     0.750000458  0.749999974  0.754939022
     0.135790500  0.114209997  0.704782994
     0.135790502  0.614209984  0.704782994
     0.635790447  0.114209997  0.704782994
     0.635790488  0.614209984  0.704782994
     0.364209516  0.385789989  0.704782994
     0.364209505  0.885789963  0.704782994
     0.864209542  0.385789989  0.704782994
     0.864209531  0.885789963  0.704782994
     0.114217990  0.364218986  0.704780979
     0.114217992  0.864218986  0.704780979
     0.614218004  0.364218986  0.704780979
     0.614217992  0.864218986  0.704780979
     0.385782012  0.135781489  0.704782017
     0.385782001  0.635781489  0.704782017
     0.885781985  0.135781489  0.704782017
     0.885782027  0.635781489  0.704782017
     0.134667000  0.115332001  0.801256025
     0.134666989  0.615331988  0.801256025
     0.634666987  0.115332001  0.801256025
     0.634666976  0.615331988  0.801256025
     0.365333002  0.384667985  0.801256025
     0.365332990  0.884667959  0.801256025
     0.865332949  0.384667985  0.801256025
     0.865332938  0.884667959  0.801256025
     0.115328503  0.365337004  0.801264999
     0.115328505  0.865336978  0.801264999
     0.615328503  0.365337004  0.801264999
     0.615328492  0.865336978  0.801264999
     0.384671513  0.134662996  0.801264999
     0.384671501  0.634662970  0.801264999
     0.884671486  0.134662996  0.801264999
     0.884671528  0.634662970  0.801264999
     0.996686254  0.002929813  0.605047225
     0.006700088  0.505958485  0.605013588
     0.501916915  0.005578994  0.604164175
     0.501430921  0.501194970  0.604807065
     0.250932444  0.254719349  0.604483697
     0.246905153  0.753050202  0.603864372
     0.745660814  0.256605125  0.605310584
     0.741215689  0.757359498  0.602723335
     0.000000500  0.000000500  0.704828963
     0.000000500  0.500000475  0.704828963
     0.500000475  0.000000500  0.704828963
     0.500000464  0.500000475  0.704828963
     0.249999994  0.249999472  0.704824995
     0.250000010  0.749999498  0.704824995
     0.749999994  0.249999472  0.704824995
     0.749999983  0.749999498  0.704824995
     0.000000000  0.000000000  0.807317968
     0.000000000  0.500000000  0.807317968
     0.500000000  0.000000000  0.807317968
     0.499999989  0.500000000  0.807317968
     0.249999994  0.250000000  0.807317968
     0.250000010  0.749999974  0.807317968
     0.749999994  0.250000000  0.807317968
     0.749999983  0.749999974  0.807317968

  ion indices of the primitive-cell ions
   primitive index   ion index
                 1           1
                 2           2
                 3           3
                 4           4
                 5           5
                 6           6
                 7           7
                 8           8
                 9           9
                10          10
                11          11
                12          12
                13          13
                14          14
                15          15
                16          16
                17          17
                18          18
                19          19
                20          20
                21          21
                22          22
                23          23
                24          24
                25          25
                26          26
                27          27
                28          28
                29          29
                30          30
                31          31
                32          32
                33          33
                34          34
                35          35
                36          36
                37          37
                38          38
                39          39
                40          40
                41          41
                42          42
                43          43
                44          44
                45          45
                46          46
                47          47
                48          48
                49          49
                50          50
                51          51
                52          52
                53          53
                54          54
                55          55
                56          56
                57          57
                58          58
                59          59
                60          60
                61          61
                62          62
                63          63
                64          64
                65          65
                66          66
                67          67
                68          68
                69          69
                70          70
                71          71
                72          72
                73          73
                74          74
                75          75
                76          76
                77          77
                78          78
                79          79
                80          80
                81          81
                82          82
                83          83
                84          84
                85          85
                86          86
                87          87
                88          88
                89          89
                90          90
                91          91
                92          92
                93          93
                94          94
                95          95
                96          96
                97          97
                98          98
                99          99
               100         100
               101         101
               102         102
               103         103
               104         104
               105         105
               106         106
               107         107
               108         108
               109         109
               110         110
               111         111
               112         112
               113         113
               114         114
               115         115
               116         116
               117         117
               118         118
               119         119
               120         120
               121         121
               122         122
               123         123
               124         124
               125         125
               126         126
               127         127
               128         128
               129         129
               130         130
               131         131
               132         132
               133         133
               134         134
               135         135
               136         136
               137         137
               138         138
               139         139
               140         140
               141         141
               142         142
               143         143
               144         144
               145         145
               146         146
               147         147
               148         148
               149         149
               150         150
               151         151
               152         152
               153         153
               154         154
               155         155
               156         156
               157         157
               158         158
               159         159
               160         160
               161         161
               162         162
               163         163
               164         164
               165         165
               166         166
               167         167
               168         168
               169         169
               170         170
               171         171
               172         172
               173         173
               174         174
               175         175
               176         176
               177         177
               178         178
               179         179
               180         180
               181         181
               182         182
               183         183
               184         184
               185         185
               186         186
               187         187
               188         188
               189         189
               190         190
               191         191
               192         192
               193         193
               194         194
               195         195
               196         196
               197         197
               198         198
               199         199
               200         200
               201         201
               202         202
               203         203
               204         204
               205         205
               206         206
               207         207
               208         208
               209         209
               210         210
               211         211
               212         212
               213         213
               214         214
               215         215
               216         216
               217         217
               218         218
               219         219
               220         220
               221         221
               222         222
               223         223
               224         224
               225         225
               226         226
               227         227
               228         228
               229         229
               230         230
               231         231
               232         232
               233         233
               234         234
               235         235
               236         236
               237         237
               238         238
               239         239
               240         240
               241         241
               242         242
               243         243
               244         244
               245         245
               246         246
               247         247
               248         248
               249         249
               250         250
               251         251
               252         252
               253         253
               254         254
               255         255
               256         256
               257         257
               258         258
               259         259
               260         260
               261         261
               262         262
               263         263
               264         264
               265         265
               266         266
               267         267
               268         268
               269         269
               270         270
               271         271
               272         272
               273         273
               274         274
               275         275
               276         276
               277         277
               278         278
               279         279
               280         280
               281         281
               282         282
               283         283
               284         284
               285         285
               286         286
               287         287
               288         288
               289         289
               290         290
               291         291
               292         292
               293         293
               294         294
               295         295
               296         296
               297         297
               298         298
               299         299
               300         300
               301         301
               302         302
               303         303
               304         304
               305         305
               306         306
               307         307
               308         308
               309         309
               310         310
               311         311
               312         312
               313         313
               314         314
               315         315
               316         316
               317         317
               318         318
               319         319
               320         320
               321         321
               322         322
               323         323
               324         324
               325         325

----------------------------------------------------------------------------------------

 
 
 KPOINTS: Automatic Mesh                          

Automatic generation of k-mesh.
 Grid dimensions read from file:
 generate k-points for:    3    3    1

 Generating k-lattice:

  Cartesian coordinates                     Fractional coordinates (reciprocal lattice)
     0.018456177  0.000005026 -0.000000000     0.333333333  0.000000000  0.000000000
     0.000000000  0.018454135  0.000000000     0.000000000  0.333333333  0.000000000
     0.000000000 -0.000000000  0.016003201     0.000000000  0.000000000  1.000000000

  Length of vectors
     0.018456178  0.018454135  0.016003201

  Shift w.r.t. Gamma in fractional coordinates (k-lattice)
     0.000000000  0.000000000  0.000000000

 
 Subroutine IBZKPT returns following result:
 ===========================================
 
 Found      5 irreducible k-points:
 
 Following reciprocal coordinates:
            Coordinates               Weight
  0.000000  0.000000  0.000000      1.000000
  0.333333  0.000000  0.000000      2.000000
  0.000000  0.333333  0.000000      2.000000
  0.333333  0.333333  0.000000      2.000000
 -0.333333  0.333333  0.000000      2.000000
 
 Following cartesian coordinates:
            Coordinates               Weight
  0.000000  0.000000  0.000000      1.000000
  0.018456  0.000005  0.000000      2.000000
  0.000000  0.018454  0.000000      2.000000
  0.018456  0.018459  0.000000      2.000000
 -0.018456  0.018449  0.000000      2.000000
 


--------------------------------------------------------------------------------------------------------




 Dimension of arrays:
   k-points           NKPTS =      5   k-points in BZ     NKDIM =      5   number of bands    NBANDS=    732
   number of dos      NEDOS =    301   number of ions     NIONS =    325
   non local maximal  LDIM  =      5   non local SUM 2l+1 LMDIM =     13
   total plane-waves  NPLWV = ******
   max r-space proj   IRMAX =   3336   max aug-charges    IRDMAX=  19845
   dimension x,y,z NGX =   100 NGY =  100 NGZ =  350
   dimension x,y,z NGXF=   200 NGYF=  200 NGZF=  700
   support grid    NGXF=   200 NGYF=  200 NGZF=  700
   ions per type =             143  39  47  72  24
   NGX,Y,Z   is equivalent  to a cutoff of   9.20,  9.20,  9.31 a.u.
   NGXF,Y,Z  is equivalent  to a cutoff of  18.41, 18.41, 18.62 a.u.

 SYSTEM =  PSC                                     
 POSCAR =   H  C  N  I Pb                          

 Startparameter for this run:
   NWRITE =      2    write-flag & timer
   PREC   = normal    normal or accurate (medium, high low for compatibility)
   ISTART =      0    job   : 0-new  1-cont  2-samecut
   ICHARG =      1    charge: 1-file 2-atom 10-const
   ISPIN  =      1    spin polarized calculation?
   LNONCOLLINEAR =      F non collinear calculations
   LSORBIT =      F    spin-orbit coupling
   INIWAV =      1    electr: 0-lowe 1-rand  2-diag
   LASPH  =      F    aspherical Exc in radial PAW
 Electronic Relaxation 1
   ENCUT  =  500.0 eV  36.75 Ry    6.06 a.u.  32.93 32.93113.93*2*pi/ulx,y,z
   ENINI  =  500.0     initial cutoff
   ENAUG  =  644.9 eV  augmentation charge cutoff
   NELM   =    600;   NELMIN=  2; NELMDL=  0     # of ELM steps 
   EDIFF  = 0.1E-03   stopping-criterion for ELM
   LREAL  =      T    real-space projection
   NLSPLINE    = F    spline interpolate recip. space projectors
   LCOMPAT=      F    compatible to vasp.4.4
   GGA_COMPAT  = F    GGA compatible to vasp.4.4-vasp.4.6
   LMAXPAW     = -100 max onsite density
   LMAXMIX     =    2 max onsite mixed and CHGCAR
   VOSKOWN=      0    Vosko Wilk Nusair interpolation
   ROPT   =   -0.00050  -0.00050  -0.00050  -0.00050
   ROPT   =   -0.00050
 Ionic relaxation
   EDIFFG = 0.1E-02   stopping-criterion for IOM
   NSW    =      0    number of steps for IOM
   NBLOCK =      1;   KBLOCK =      1    inner block; outer block 
   IBRION =     -1    ionic relax: 0-MD 1-quasi-New 2-CG
   NFREE  =      0    steps in history (QN), initial steepest desc. (CG)
   ISIF   =      2    stress and relaxation
   IWAVPR =     10    prediction:  0-non 1-charg 2-wave 3-comb
   ISYM   =      0    0-nonsym 1-usesym 2-fastsym
   LCORR  =      T    Harris-Foulkes like correction to forces

   POTIM  = 0.5000    time-step for ionic-motion
   TEIN   =    0.0    initial temperature
   TEBEG  =    0.0;   TEEND  =   0.0 temperature during run
   SMASS  =  -3.00    Nose mass-parameter (am)
   estimated Nose-frequenzy (Omega)   =  0.10E-29 period in steps = 0.13E+47 mass=  -0.745E-26a.u.
   SCALEE = 1.0000    scale energy and forces
   NPACO  =    256;   APACO  = 16.0  distance and # of slots for P.C.
   PSTRESS=    0.0 pullay stress

  Mass of Ions in am
   POMASS =   1.00 12.01 14.00126.90207.20
  Ionic Valenz
   ZVAL   =   1.00  4.00  5.00  7.00  4.00
  Atomic Wigner-Seitz radii
   RWIGS  =  -1.00 -1.00 -1.00 -1.00 -1.00
  virtual crystal weights 
   VCA    =   1.00  1.00  1.00  1.00  1.00
   NELECT =    1134.0000    total number of electrons
   NUPDOWN=      -1.0000    fix difference up-down

 DOS related values:
   EMIN   =  10.00;   EMAX   =-10.00  energy-range for DOS
   EFERMI =   0.00
   ISMEAR =     0;   SIGMA  =   0.05  broadening in eV -4-tet -1-fermi 0-gaus

 Electronic relaxation 2 (details)
   IALGO  =     38    algorithm
   LDIAG  =      T    sub-space diagonalisation (order eigenvalues)
   LSUBROT=      F    optimize rotation matrix (better conditioning)
   TURBO    =      0    0=normal 1=particle mesh
   IRESTART =      0    0=no restart 2=restart with 2 vectors
   NREBOOT  =      0    no. of reboots
   NMIN     =      0    reboot dimension
   EREF     =   0.00    reference energy to select bands
   IMIX   =      4    mixing-type and parameters
     AMIX     =   0.40;   BMIX     =  0.01
     AMIX_MAG =   1.60;   BMIX_MAG =  0.01
     AMIN     =   0.01
     WC   =   100.;   INIMIX=   1;  MIXPRE=   1;  MAXMIX= -45

 Intra band minimization:
   WEIMIN = 0.0000     energy-eigenvalue tresh-hold
   EBREAK =  0.34E-07  absolut break condition
   DEPER  =   0.30     relativ break condition  

   TIME   =   0.40     timestep for ELM

  volume/ion in A,a.u.               =      62.72       423.28
  Fermi-wavevector in a.u.,A,eV,Ry     =   0.624944  1.180972  5.313816  0.390554
  Thomas-Fermi vector in A             =   1.685677
 
 Write flags
   LWAVE        =      F    write WAVECAR
   LDOWNSAMPLE  =      F    k-point downsampling of WAVECAR
   LCHARG       =      T    write CHGCAR
   LVTOT        =      T    write LOCPOT, total local potential
   LVHAR        =      F    write LOCPOT, Hartree potential only
   LELF         =      F    write electronic localiz. function (ELF)
   LORBIT       =      0    0 simple, 1 ext, 2 COOP (PROOUT), +10 PAW based schemes


 Dipole corrections
   LMONO  =      F    monopole corrections only (constant potential shift)
   LDIPOL =      T    correct potential (dipole corrections)
   IDIPOL =      3    1-x, 2-y, 3-z, 4-all directions 
   EPSILON=  1.0000000 bulk dielectric constant

 Exchange correlation treatment:
   GGA     =    --    GGA type
   LEXCH   =     8    internal setting for exchange type
   VOSKOWN=      0    Vosko Wilk Nusair interpolation
   LHFCALC =     F    Hartree Fock is set to
   LHFONE  =     F    Hartree Fock one center treatment
   AEXX    =    0.0000 exact exchange contribution

 Linear response parameters
   LEPSILON=     F    determine dielectric tensor
   LRPA    =     F    only Hartree local field effects (RPA)
   LNABLA  =     F    use nabla operator in PAW spheres
   LVEL    =     F    velocity operator in full k-point grid
   LINTERFAST=   F  fast interpolation
   KINTER  =     0    interpolate to denser k-point grid
   CSHIFT  =0.1000    complex shift for real part using Kramers Kronig
   OMEGAMAX=  -1.0    maximum frequency
   DEG_THRESHOLD= 0.2000000E-02 threshold for treating states as degnerate
   RTIME   =   -0.100 relaxation time in fs
  (WPLASMAI=    0.000 imaginary part of plasma frequency in eV, 0.658/RTIME)
   DFIELD  = 0.0000000 0.0000000 0.0000000 field for delta impulse in time
 
 Orbital magnetization related:
   ORBITALMAG=     F  switch on orbital magnetization
   LCHIMAG   =     F  perturbation theory with respect to B field
   DQ        =  0.001000  dq finite difference perturbation B field
   LLRAUG    =     F  two centre corrections for induced B field



--------------------------------------------------------------------------------------------------------


 Static calculation
 charge density and potential will be updated during run
 non-spin polarized calculation
 Variant of blocked Davidson
 Davidson routine will perform the subspace rotation
 perform sub-space diagonalisation
    after iterative eigenvector-optimisation
 modified Broyden-mixing scheme, WC =      100.0
 initial mixing is a Kerker type mixing with AMIX =  0.4000 and BMIX =      0.0100
 Hartree-type preconditioning will be used
 using additional bands           165
 real space projection scheme for non local part
[...]
     13.54561      0.00000     45.35368         0.002360     -0.009580      0.011484
     13.54315      9.03140     45.35368        -0.005669      0.006123     -0.005941
     12.98329      7.95323     33.84035         0.037164      0.006095      0.018369
     13.30997      8.90785     32.41285        -0.147130      0.146877     -0.251039
     11.90577      9.99241     34.93967         0.029038      0.071222     -0.101895
     12.79147     11.52622     34.79197        -0.014481     -0.135157     -0.045245
     15.31730      9.13762     35.59880         0.260060     -0.110017     -0.023638
     14.24493     10.37655     36.20977        -0.118119      0.086585      0.026146
     15.67734     10.14898     33.11882         0.121352     -0.012938      0.094224
     14.35885     11.28270     32.77487         0.123003     -0.018973      0.051106
     15.69111      8.35996     32.40169        -0.095142     -0.072368      0.075697
     15.58115      7.64407     34.00397         0.086393     -0.054417      0.041956
     15.71411      5.87665     32.38659         0.055332      0.068450      0.100155
     14.13228      5.81301     33.13097        -0.021014      0.046838      0.059356
     11.46710      9.95476     32.47647         0.092781      0.003278      0.019681
     12.41309     11.47086     32.26992         0.012226      0.000937      0.011453
     10.94697     11.43046     33.25699         0.053772      0.046850     -0.051942
     13.60930      8.38963     37.33581        -0.080688      0.017457     -0.070100
     13.63768      7.38986     35.88520        -0.033274     -0.102993     -0.059515
     12.33864      8.58748     36.11253        -0.115604     -0.080283      0.118758
     14.76784     12.44951     34.94487         0.123644      0.057352     -0.048928
     16.28586     12.33526     34.01857        -0.136215      0.016951     -0.049497
     16.02804     11.25962     35.38696         0.057039     -0.010262     -0.076279
     14.80024      6.89758     30.31774        -0.297071     -0.169530      0.270376
     14.13013      5.29746     30.70862         0.041237      0.249704      0.134864
     11.95898      5.61708     32.51325         0.040438     -0.002642      0.011311
     13.16863      8.33299     29.37066        -0.267262     -0.159216      0.238317
      9.68970      6.61158     32.49174         0.003149     -0.068561      0.015366
     10.87160      9.29296     29.33447         0.010895     -0.214946      0.168528
      9.13059      8.44207     30.91303         0.362409     -0.196603      0.026418
     17.90082      4.37831     34.68622         0.267105      0.012548     -0.427015
      0.64360     13.89595     35.18875         0.297241     -0.259198     -0.006140
      8.49668      4.13442     34.89520        -0.229597     -0.338353     -0.173075
      9.07841     13.67386     34.75793         0.245942     -0.385941     -0.317617
      4.28956      9.58232     34.92996         0.107173      0.004640      0.083122
      4.60367     17.93084     34.70943        -0.306591      0.108404     -0.075451
     13.84939     17.79474     35.15772         0.085261      0.160575      0.083592
      0.15349      4.47216     40.57726         0.342130     -0.543853      0.692335
      0.15680     13.78518     40.80716         0.715126     -0.325567      0.044435
      9.04002      4.44840     40.49694         0.832030     -0.688178      0.328859
      9.01992     13.56408     40.56918         0.304191     -0.340973     -0.156389
      4.58137      8.96197     40.57476        -0.040715     -0.028920      0.085868
      4.56874     18.04690     40.40699        -0.628691     -0.588780      0.228791
     13.50200      9.35122     40.82941        -0.376437      0.136856     -0.113834
     13.58018     18.00951     40.51464        -0.659918     -0.820424      0.031123
      9.02897      4.51561     46.44552         0.003536      0.009376      0.028215
      9.02651     13.54701     46.44552         0.026039     -0.010439      0.045150
     18.05937      4.51561     46.44552         0.025162     -0.005200      0.037428
     18.05691     13.54701     46.44552         0.013979      0.005775      0.011399
      4.51521      0.00002     46.44421        -0.004558     -0.004829      0.052619
      4.51275      9.03142     46.44421        -0.008924     -0.008506      0.047407
     13.54561      0.00002     46.44421        -0.007688     -0.010443      0.032368
     13.54315      9.03142     46.44421        -0.006446      0.000630      0.017309
     12.72956      6.90483     30.94504        -0.047027      0.033028      0.084444
     11.72825      6.42202     31.81169         0.257324     -0.154355     -0.148315
     12.39569      7.93465     30.05284         0.274765      0.070904     -0.177889
     10.45017      6.96122     31.79364        -0.187761      0.114504      0.061918
     11.10378      8.47510     30.03167         0.258287      0.233158     -0.301754
     10.13999      7.99512     30.90954        -0.718139      0.330704     -0.041126
     13.74221      8.57441     33.35007        -0.034238      0.084924     -0.061701
     12.56034     10.57834     34.28045        -0.113658     -0.156044      0.209367
     14.27356      9.45271     35.62622         0.145374     -0.006448      0.066862
     14.90404     10.76855     33.57912         0.223775     -0.047724     -0.061922
     15.02134      7.78998     33.07010         0.061477      0.101688      0.043402
     14.75304      6.41299     32.45253         0.074954     -0.208597     -0.238991
     11.84180     10.85648     32.97712        -0.118175     -0.073543     -0.004709
     13.40338      8.39138     36.25768         0.050040      0.077105     -0.041830
     15.52054     11.75186     34.55012         0.004127      0.126152      0.024736
     14.13724      6.35953     31.03811         0.229936      0.133002     -0.313613
      0.98235      4.37661     35.32319         0.445006      0.174780      0.046656
      0.75379     12.81033     35.91584         0.086245     -0.175269     -0.064736
      9.73118      3.76429     35.11647         0.093328      0.016924      0.252623
      8.75353     12.62642     35.47224        -0.170590     -0.180883      0.042749
      8.00561      5.31783     35.15649        -0.133230      0.127384     -0.044151
      8.71249     14.89979     35.01185        -0.325185      0.078249      0.419078
     16.73419      4.41117     35.27337        -0.266855     -0.149760      0.022782
     17.70363     14.74640     35.23781         0.246130      0.053598     -0.189353
      4.34520      8.33494     35.33400        -0.384871     -0.213103     -0.215137
      3.41006      0.27563     35.05836        -0.052026     -0.523739     -0.282229
     12.55127     17.83164     35.33422        -0.066995     -0.438216     -0.031319
      5.71099      0.49940     35.01855         0.594167     -0.320155     -0.147628
      5.25366     10.45747     35.08201        -0.389774      0.216673     -0.218386
     14.67553      0.70750     35.44745         0.483950     -0.543242     -0.253792
      0.99347      3.58611     41.08227        -0.477927      0.384098      0.103148
      1.00984     12.85557     41.20716        -0.944972      0.536232     -0.158055
      9.98008      3.71071     41.06776        -0.637072      0.527636     -0.232059
      9.73797     12.73224     41.29019         0.061325     -0.081011     -0.092585
      3.84479      8.01806     41.10427        -0.124317     -0.167852     -0.136081
      3.69006     17.28331     41.03323         0.365836      0.331699      0.114613
     12.65421      8.47823     41.32035         0.080602      0.156883     -0.044357
     12.78434     17.11105     41.06553         0.271867      0.313011      0.104875
      8.32014      5.34583     41.10248        -0.338293      0.486882      0.646001
      8.17185     14.44084     41.02710        -0.364417      0.374497      0.388047
     17.29215      5.12227     41.25114         0.291873     -0.137647     -0.238708
     17.04397     14.01541     41.33401         0.247795      0.042843     -0.192857
      5.44360      0.76881     40.97114         0.448655      0.409336      0.675973
      5.27042      9.85940     41.23722         0.136253      0.206261      0.099631
     14.28301      0.84056     41.15040         0.398905      0.595594      0.644161
     14.79531      9.30688     40.98920         0.735950     -0.164589      0.102783
      0.82731      3.68697     47.03596         0.011179     -0.018387     -0.092099
      0.82485     12.71837     47.03596         0.023434     -0.024374     -0.072449
      9.85771      3.68697     47.03596         0.025696     -0.028784     -0.080763
      9.85525     12.71837     47.03596         0.008855     -0.010580     -0.083450
      3.68432      8.20234     47.03465        -0.004863     -0.005195     -0.070013
      3.68186     17.23373     47.03465        -0.006155     -0.004701     -0.062208
     12.71472      8.20234     47.03465        -0.009968     -0.016392     -0.066224
     12.71226     17.23373     47.03465        -0.011592     -0.004149     -0.066127
      8.20068      5.34457     47.03603        -0.017198      0.015154     -0.087507
      8.19822     14.37597     47.03603        -0.027619      0.027465     -0.087179
     17.23108      5.34457     47.03603        -0.033578      0.025935     -0.104252
     17.22862     14.37597     47.03603        -0.020676      0.020821     -0.070110
      5.34365      0.82909     47.03465         0.011539      0.009915     -0.062337
      5.34119      9.86049     47.03465         0.016507      0.017173     -0.072019
     14.37405      0.82909     47.03465         0.017755      0.022171     -0.069772
     14.37159      9.86049     47.03465         0.018364      0.016494     -0.072161
     13.89283      9.82203     34.20588        -0.368472      0.086661     -0.137018
      9.19079      0.26419     34.42757        -0.028602      0.028740      0.036611
      8.71695      9.17324     34.65734         0.036797     -0.066801      0.041084
     17.99898      0.14347     34.48623         0.041049     -0.006683      0.001974
      0.57445      9.14723     34.68267        -0.124536     -0.032557     -0.025637
      4.50339      4.47837     34.56542         0.012013      0.007898      0.005820
      4.34530     13.84155     34.52856         0.062578      0.000037      0.024572
     13.21673      3.80532     34.74194         0.107609      0.077133      0.029069
     12.65639     14.36197     34.61019         0.005830     -0.006482     -0.080206
     18.04092     17.89932     40.90034        -0.023278     -0.006995     -0.003271
      0.30039      8.93992     40.97327        -0.018801     -0.014109      0.016001
      9.06803      0.08184     40.87547        -0.024277     -0.018406      0.021662
      9.11044      8.95064     40.94262        -0.040949     -0.006884     -0.015175
      4.64078      4.38102     40.93265         0.010517      0.012630     -0.091754
      4.53856     13.68061     40.89920         0.031582     -0.034579     -0.008987
     13.48372      4.85248     40.95231         0.015918     -0.043732     -0.037874
     13.47968     13.43808     40.85168         0.017586     -0.026670      0.094868
      2.39994      2.14872     37.97124        -0.008732      0.008179     -0.017751
      2.71052     10.96718     38.13430         0.040493      0.034413     -0.039059
     11.55485      2.05975     38.11800         0.035821     -0.007542      0.020254
     11.32225     11.23630     38.17345         0.024579     -0.016034     -0.150345
      6.56567      7.00257     38.02148        -0.007522      0.039932     -0.011403
      6.73818     15.93614     37.88916        -0.006541     -0.020698     -0.031304
     16.01555      6.69806     38.15636         0.011270     -0.032650     -0.074382
     15.65360     15.88463     37.97318         0.041113      0.055838     -0.013192
      2.21439      6.59387     38.02452        -0.074131      0.030191      0.000350
      2.22189     15.84363     37.96601        -0.012203     -0.038135     -0.030442
     10.70452      6.24299     37.67887         0.017607      0.037895     -0.017598
     11.09529     15.64060     38.23413        -0.029701      0.004822     -0.025823
      6.93669      2.38529     37.84480         0.004735      0.044906      0.014101
      6.88557     11.42155     38.24288         0.044077      0.024077     -0.013377
     15.96308      2.49507     38.25534         0.004384      0.006445      0.053577
     16.36645     11.65922     38.48178        -0.137888     -0.032531     -0.293256
      0.00000      0.00000     47.17356        -0.002402      0.006376      0.381453
     -0.00246      9.03140     47.17356        -0.003347     -0.003414      0.489549
      9.03040      0.00000     47.17356         0.002361     -0.000333      0.363534
      9.02794      9.03140     47.17356        -0.001349     -0.000782      0.442564
      4.51398      4.51570     47.17425         0.000289     -0.003402      0.446899
      4.51152     13.54710     47.17425         0.004887      0.000923      0.403056
     13.54438      4.51570     47.17425         0.004634      0.003367      0.413579
     13.54192     13.54710     47.17425        -0.002081     -0.002219      0.385067
      2.45192      2.06295     44.04013        -0.008441     -0.028747     -0.021289
      2.44946     11.09435     44.04013         0.046334     -0.025248      0.014203
     11.48232      2.06295     44.04013         0.048292      0.022293     -0.051745
     11.47986     11.09435     44.04013        -0.045792      0.016140      0.037467
      6.57602      6.96845     44.04013         0.014831      0.004009     -0.059791
      6.57356     15.99985     44.04013         0.033883      0.006316     -0.063503
     15.60642      6.96845     44.04013        -0.009271      0.007201     -0.073782
     15.60396     15.99985     44.04013        -0.060425      0.040329     -0.009323
      2.06108      6.57881     44.04000         0.050126     -0.034702     -0.004667
      2.05862     15.61021     44.04000         0.054809      0.061350     -0.019585
     11.09148      6.57881     44.04000        -0.050164     -0.067500      0.008056
     11.08902     15.61021     44.04000        -0.002737      0.018937     -0.053284
      6.96686      2.45259     44.04007        -0.007314     -0.062619     -0.042849
      6.96440     11.48399     44.04007         0.019766      0.016118     -0.035755
     15.99726      2.45259     44.04007        -0.005624      0.043012     -0.085606
     15.99481     11.48399     44.04007         0.035594      0.036290     -0.094699
      2.43163      2.08322     50.06849         0.003892     -0.015355      0.022242
      2.42917     11.11462     50.06849         0.017212     -0.004043      0.024291
     11.46203      2.08322     50.06849         0.007317     -0.013863      0.022174
     11.45957     11.11462     50.06849         0.013207     -0.006484      0.023603
      6.59631      6.94818     50.06849        -0.010463      0.009653      0.023635
      6.59385     15.97958     50.06849        -0.004598      0.016007      0.022558
     15.62671      6.94818     50.06849        -0.017217      0.001768      0.021185
     15.62425     15.97958     50.06849        -0.010129      0.013437      0.024955
      2.08113      6.59901     50.06905        -0.007128     -0.014580      0.023288
      2.07867     15.63041     50.06905        -0.012801     -0.006187      0.024154
     11.11153      6.59901     50.06905        -0.006432     -0.014323      0.023146
     11.10907     15.63041     50.06905        -0.013708     -0.006454      0.023237
      6.94681      2.43239     50.06905         0.018453      0.001647      0.023712
      6.94435     11.46379     50.06905         0.007745      0.013236      0.023728
     15.97721      2.43239     50.06905         0.011150      0.009065      0.022280
     15.97475     11.46379     50.06905         0.001733      0.017024      0.024203
     18.00094      0.05292     37.80789         0.008215      0.040374     -0.012307
      0.11852      9.13903     37.80579        -0.027100     -0.033122     -0.048211
      9.06499      0.10077     37.75271         0.049959     -0.067645      0.026958
      9.05378      9.05298     37.79288        -0.008585      0.004978     -0.084499
      4.53079      4.60094     37.77267         0.044234     -0.131949      0.015944
      4.45560     13.60219     37.73397         0.017842      0.004666     -0.025060
     13.46597      4.63501     37.82434         0.023188     -0.024392      0.002778
     13.38322     13.68003     37.66267        -0.016599     -0.031953      0.046845
      0.00001      0.00001     44.04300        -0.003482     -0.130897      0.138988
     -0.00245      9.03141     44.04300         0.072229      0.015874      0.145830
      9.03041      0.00001     44.04300        -0.017551      0.023913      0.089854
      9.02795      9.03141     44.04300         0.019367      0.030072      0.261140
      4.51397      4.51569     44.04275         0.012995      0.022303      0.137511
      4.51151     13.54709     44.04275        -0.087721      0.021181      0.131421
     13.54437      4.51569     44.04275        -0.053859     -0.030085      0.221877
     13.54191     13.54709     44.04275        -0.024671      0.001060      0.027412
      0.00000      0.00000     50.44728         0.002799     -0.001178     -0.622185
     -0.00246      9.03140     50.44728         0.003276      0.000485     -0.648392
      9.03040      0.00000     50.44728        -0.003795      0.001900     -0.616046
      9.02794      9.03140     50.44728        -0.003152     -0.001006     -0.638558
      4.51397      4.51570     50.44728        -0.002819      0.009524     -0.639262
      4.51151     13.54710     50.44728        -0.004087     -0.010293     -0.628904
     13.54437      4.51570     50.44728         0.001447      0.010522     -0.626228
     13.54191     13.54710     50.44728         0.004789     -0.009355     -0.626295
 -----------------------------------------------------------------------------------
    total drift:                                0.064729     -0.025871      0.370098


--------------------------------------------------------------------------------------------------------



  FREE ENERGIE OF THE ION-ELECTRON SYSTEM (eV)
  ---------------------------------------------------
  free  energy   TOTEN  =     -1575.47122203 eV

  energy  without entropy=    -1575.47122203  energy(sigma->0) =    -1575.47122203
 


--------------------------------------------------------------------------------------------------------


    POTLOK:  cpu time    0.5031: real time    0.5030


--------------------------------------------------------------------------------------------------------


     LOOP+:  cpu time  306.2841: real time  307.0045
 vacuum level on the upper side and lower side of the slab         2.331         1.543
    4ORBIT:  cpu time    0.0000: real time    0.0000

 total amount of memory used by VASP MPI-rank0  8653586. kBytes
=======================================================================

   base      :      30000. kBytes
   nonlr-proj:      53624. kBytes
   fftplans  :     249280. kBytes
   grid      :     701440. kBytes
   one-center:       2636. kBytes
   wavefun   :    7616606. kBytes
 
  
  
 General timing and accounting informations for this job:
 ========================================================
  
                  Total CPU time used (sec):      517.651
                            User time (sec):      418.423
                          System time (sec):       99.228
                         Elapsed time (sec):      521.128
  
                   Maximum memory used (kb):    10307752.
                   Average memory used (kb):          N/A
  
                          Minor page faults:      3685468
                          Major page faults:           12
                 Voluntary context switches:        11526
