 vasp.6.2.1 16May21 (build Nov 15 2021 14:57:28) complex                         
 executed on             LinuxPGI date 2023.07.25  02:29:55
 running on    4 total cores
 distrk:  each k-point on    4 cores,    1 groups
 distr:  one band on NCORE=   1 cores,    4 groups


--------------------------------------------------------------------------------------------------------


 INCAR:
   SYSTEM = PSC
   ISTART = 1
   ICHARG = 1
   PREC = Normal
   ENCUT = 500
   GGA_COMPAT = F
   NELM = 600
   ISYM = 0
   LREAL = Auto
   ISMEAR = 0
   SIGMA = 0.05
   AMIN = 0.01
   BMIX = 0.01
   LVTOT = T
   LWAVE = F
   LDIPOL = T
   IDIPOL = 3
   LVDW = T
   IVDW = 12

 POTCAR:    PAW_PBE H 15Jun2001                   
 POTCAR:    PAW_PBE C 08Apr2002                   
 POTCAR:    PAW_PBE N 08Apr2002                   
 POTCAR:    PAW_PBE I 08Apr2002                   
 POTCAR:    PAW_PBE Pb 08Apr2002                  
 WARNING: For LVTOT=.TRUE., VASP.5.x writes the TOTAL local potential to the
     file LOCPOT. If you want only the Hartree contributions, use LVHAR=.TRUE.
     instead. 

 POTCAR:    PAW_PBE H 15Jun2001                   
   SHA256 =  030f79b5d3ab3cf0e668861823c8fb652ff669f3e15e46930bd03bfd63a607b6 H/POTCAR              
   COPYR  = (c) Copyright 15Jun2001 Georg Kresse                                                    
   COPYR  = This file is part of the software VASP. Any use, copying, and all other rights are regul
   COPYR  = If you do not have a valid VASP license, you may not use, copy or distribute this file. 
   VRHFIN =H: ultrasoft test                                                                        
   LEXCH  = PE                                                                                      
   EATOM  =    12.4884 eV,    0.9179 Ry                                                             
                                                                                                    
   TITEL  = PAW_PBE H 15Jun2001                                                                     
   LULTRA =        F    use ultrasoft PP ?                                                          
   IUNSCR =        0    unscreen: 0-lin 1-nonlin 2-no                                               
   RPACOR =    0.000    partial core radius                                                         
   POMASS =    1.000; ZVAL   =    1.000    mass and valenz                                          
   RCORE  =    1.100    outmost cutoff radius                                                       
   RWIGS  =    0.700; RWIGS  =    0.370    wigner-seitz radius (au A)                               
   ENMAX  =  250.000; ENMIN  =  200.000 eV                                                          
   RCLOC  =    0.701    cutoff for local pot                                                        
   LCOR   =        T    correct aug charges                                                         
   LPAW   =        T    paw PP                                                                      
   EAUG   =  400.000                                                                                
   RMAX   =    1.123    core radius for proj-oper                                                   
   RAUG   =    1.200    factor for augmentation sphere                                              
   RDEP   =    1.112    radius for radial grids                                                     
   RDEPT  =    0.926    core radius for aug-charge                                                  
                                                                                                    
   Atomic configuration                                                                             
    2 entries                                                                                       
     n  l   j            E        occ.                                                              
     1  0  0.50        -6.4927   1.0000                                                             
     2  1  0.50        -3.4015   0.0000                                                             
   Description                                                                                      
     l       E           TYP  RCUT    TYP  RCUT                                                     
     0     -6.4927494     23  1.100                                                                 
     0      6.8029130     23  1.100                                                                 
     1     -4.0817478     23  1.100                                                                 
  local pseudopotential read in
  atomic valenz-charges read in
  non local Contribution for L=            0  read in
    real space projection operators read in
  non local Contribution for L=            0  read in
    real space projection operators read in
  non local Contribution for L=            1  read in
    real space projection operators read in
    PAW grid and wavefunctions read in
 
   number of l-projection  operators is LMAX  =            3
   number of lm-projection operators is LMMAX =            5
 
 POTCAR:    PAW_PBE C 08Apr2002                   
   SHA256 =  253f7b50bb8d59471dbedb8285d89021f4a42ed1a2c5d38a03a736e69125dd95 C/POTCAR              
   COPYR  = (c) Copyright 08Apr2002 Georg Kresse                                                    
   COPYR  = This file is part of the software VASP. Any use, copying, and all other rights are regul
   COPYR  = If you do not have a valid VASP license, you may not use, copy or distribute this file. 
   VRHFIN =C: s2p2                                                                                  
   LEXCH  = PE                                                                                      
   EATOM  =   147.1560 eV,   10.8157 Ry                                                             
                                                                                                    
   TITEL  = PAW_PBE C 08Apr2002                                                                     
   LULTRA =        F    use ultrasoft PP ?                                                          
   IUNSCR =        1    unscreen: 0-lin 1-nonlin 2-no                                               
   RPACOR =    1.200    partial core radius                                                         
   POMASS =   12.011; ZVAL   =    4.000    mass and valenz                                          
   RCORE  =    1.500    outmost cutoff radius                                                       
   RWIGS  =    1.630; RWIGS  =    0.863    wigner-seitz radius (au A)                               
   ENMAX  =  400.000; ENMIN  =  300.000 eV                                                          
   ICORE  =        2    local potential                                                             
   LCOR   =        T    correct aug charges                                                         
   LPAW   =        T    paw PP                                                                      
   EAUG   =  644.873                                                                                
   DEXC   =    0.000                                                                                
   RMAX   =    1.529    core radius for proj-oper                                                   
   RAUG   =    1.300    factor for augmentation sphere                                              
   RDEP   =    1.501    radius for radial grids                                                     
   RDEPT  =    1.300    core radius for aug-charge                                                  
                                                                                                    
   Atomic configuration                                                                             
    4 entries                                                                                       
     n  l   j            E        occ.                                                              
     1  0  0.50      -273.3789   2.0000                                                             
     2  0  0.50       -13.7508   2.0000                                                             
     2  1  0.50        -5.2854   2.0000                                                             
     3  2  1.50        -5.4423   0.0000                                                             
   Description                                                                                      
     l       E           TYP  RCUT    TYP  RCUT                                                     
     0    -13.7508458     23  1.200                                                                 
     0     -8.2022199     23  1.200                                                                 
     1     -5.2854383     23  1.500                                                                 
     1     34.0145650     23  1.500                                                                 
     2     -5.4423304      7  1.500                                                                 
  local pseudopotential read in
  partial core-charges read in
  partial kinetic energy density read in
  atomic valenz-charges read in
  non local Contribution for L=            0  read in
    real space projection operators read in
  non local Contribution for L=            0  read in
    real space projection operators read in
  non local Contribution for L=            1  read in
    real space projection operators read in
  non local Contribution for L=            1  read in
    real space projection operators read in
    PAW grid and wavefunctions read in
 
   number of l-projection  operators is LMAX  =            4
   number of lm-projection operators is LMMAX =            8
 
 POTCAR:    PAW_PBE N 08Apr2002                   
   SHA256 =  e053789ff3a61a86a1b75d8a110fcc91f86041011e7b0817c7c99e4e8a6349d7 N/POTCAR              
   COPYR  = (c) Copyright 08Apr2002 Georg Kresse                                                    
   COPYR  = This file is part of the software VASP. Any use, copying, and all other rights are regul
   COPYR  = If you do not have a valid VASP license, you may not use, copy or distribute this file. 
   VRHFIN =N: s2p3                                                                                  
   LEXCH  = PE                                                                                      
   EATOM  =   264.5486 eV,   19.4438 Ry                                                             
                                                                                                    
   TITEL  = PAW_PBE N 08Apr2002                                                                     
   LULTRA =        F    use ultrasoft PP ?                                                          
   IUNSCR =        1    unscreen: 0-lin 1-nonlin 2-no                                               
   RPACOR =    1.200    partial core radius                                                         
   POMASS =   14.001; ZVAL   =    5.000    mass and valenz                                          
   RCORE  =    1.500    outmost cutoff radius                                                       
   RWIGS  =    1.400; RWIGS  =    0.741    wigner-seitz radius (au A)                               
   ENMAX  =  400.000; ENMIN  =  300.000 eV                                                          
   ICORE  =        2    local potential                                                             
   LCOR   =        T    correct aug charges                                                         
   LPAW   =        T    paw PP                                                                      
   EAUG   =  627.112                                                                                
   DEXC   =    0.000                                                                                
   RMAX   =    1.529    core radius for proj-oper                                                   
   RAUG   =    1.300    factor for augmentation sphere                                              
   RDEP   =    1.514    radius for radial grids                                                     
   RDEPT  =    1.338    core radius for aug-charge                                                  
                                                                                                    
   Atomic configuration                                                                             
    4 entries                                                                                       
     n  l   j            E        occ.                                                              
     1  0  0.50      -384.7179   2.0000                                                             
     2  0  0.50       -18.5828   2.0000                                                             
     2  1  0.50        -7.0898   3.0000                                                             
     3  2  1.50        -6.8029   0.0000                                                             
   Description                                                                                      
     l       E           TYP  RCUT    TYP  RCUT                                                     
     0    -18.5828119     23  1.200                                                                 
     0    -13.5018863     23  1.200                                                                 
     1     -7.0897853     23  1.500                                                                 
     1      9.5240782     23  1.500                                                                 
     2     -6.8029130      7  1.500                                                                 
  local pseudopotential read in
  partial core-charges read in
  partial kinetic energy density read in
  atomic valenz-charges read in
  non local Contribution for L=            0  read in
    real space projection operators read in
  non local Contribution for L=            0  read in
    real space projection operators read in
  non local Contribution for L=            1  read in
    real space projection operators read in
  non local Contribution for L=            1  read in
    real space projection operators read in
    PAW grid and wavefunctions read in
 
   number of l-projection  operators is LMAX  =            4
   number of lm-projection operators is LMMAX =            8
 
 POTCAR:    PAW_PBE I 08Apr2002                   
   SHA256 =  e40f3f59b681c1fc3e3091736183c4589116986673d2b852a5012aec72758799 I/POTCAR              
   COPYR  = (c) Copyright 08Apr2002 Georg Kresse                                                    
   COPYR  = This file is part of the software VASP. Any use, copying, and all other rights are regul
   COPYR  = If you do not have a valid VASP license, you may not use, copy or distribute this file. 
   VRHFIN =I : s2p5                                                                                 
   LEXCH  = PE                                                                                      
   EATOM  =   315.8678 eV,   23.2156 Ry                                                             
                                                                                                    
   TITEL  = PAW_PBE I 08Apr2002                                                                     
   LULTRA =        F    use ultrasoft PP ?                                                          
   IUNSCR =        1    unscreen: 0-lin 1-nonlin 2-no                                               
   RPACOR =    2.200    partial core radius                                                         
   POMASS =  126.904; ZVAL   =    7.000    mass and valenz                                          
   RCORE  =    2.300    outmost cutoff radius                                                       
   RWIGS  =    2.810; RWIGS  =    1.487    wigner-seitz radius (au A)                               
   ENMAX  =  175.647; ENMIN  =  131.735 eV                                                          
   ICORE  =        3    local potential                                                             
   LCOR   =        T    correct aug charges                                                         
   LPAW   =        T    paw PP                                                                      
   EAUG   =  370.139                                                                                
   DEXC   =    0.000                                                                                
   RMAX   =    2.359    core radius for proj-oper                                                   
   RAUG   =    1.300    factor for augmentation sphere                                              
   RDEP   =    2.392    radius for radial grids                                                     
   RDEPT  =    2.170    core radius for aug-charge                                                  
                                                                                                    
   Atomic configuration                                                                             
   13 entries                                                                                       
     n  l   j            E        occ.                                                              
     1  0  0.50    -32976.3739   2.0000                                                             
     2  0  0.50     -5094.5933   2.0000                                                             
     2  1  1.50     -4572.0131   6.0000                                                             
     3  0  0.50     -1028.2813   2.0000                                                             
     3  1  1.50      -859.0250   6.0000                                                             
     3  2  2.50      -605.7620  10.0000                                                             
     4  0  0.50      -180.5540   2.0000                                                             
     4  1  1.50      -127.5306   6.0000                                                             
     4  2  2.50       -50.2720  10.0000                                                             
     5  0  0.50       -17.4058   2.0000                                                             
     5  1  0.50        -7.0851   5.0000                                                             
     5  2  1.50        -7.0750   0.0000                                                             
     4  3  2.50        -7.0750   0.0000                                                             
   Description                                                                                      
     l       E           TYP  RCUT    TYP  RCUT                                                     
     0    -17.4058016     23  2.300                                                                 
     0    -18.7663842     23  2.300                                                                 
     1     -7.0850686     23  2.300                                                                 
     1     -4.2150896     23  2.300                                                                 
     2     -7.0750295     23  2.300                                                                 
     3     -1.3605826     23  2.300                                                                 
  local pseudopotential read in
  partial core-charges read in
  partial kinetic energy density read in
  atomic valenz-charges read in
  non local Contribution for L=            0  read in
    real space projection operators read in
  non local Contribution for L=            0  read in
    real space projection operators read in
  non local Contribution for L=            1  read in
    real space projection operators read in
  non local Contribution for L=            1  read in
    real space projection operators read in
  non local Contribution for L=            2  read in
    real space projection operators read in
    PAW grid and wavefunctions read in
 
   number of l-projection  operators is LMAX  =            5
   number of lm-projection operators is LMMAX =           13
 
 POTCAR:    PAW_PBE Pb 08Apr2002                  
   SHA256 =  797118a27cf1bcd06b9881c67a26cdde129e3cd1a551dd4a281f9681ce847303 Pb/POTCAR             
   COPYR  = (c) Copyright 08Apr2002 Georg Kresse                                                    
   COPYR  = This file is part of the software VASP. Any use, copying, and all other rights are regul
   COPYR  = If you do not have a valid VASP license, you may not use, copy or distribute this file. 
   VRHFIN =Pb:                                                                                      
   LEXCH  = PE                                                                                      
   EATOM  =    96.9868 eV,    7.1283 Ry                                                             
                                                                                                    
   TITEL  = PAW_PBE Pb 08Apr2002                                                                    
   LULTRA =        F    use ultrasoft PP ?                                                          
   IUNSCR =        1    unscreen: 0-lin 1-nonlin 2-no                                               
   RPACOR =    2.200    partial core radius                                                         
   POMASS =  207.200; ZVAL   =    4.000    mass and valenz                                          
   RCORE  =    3.100    outmost cutoff radius                                                       
   RWIGS  =    3.260; RWIGS  =    1.725    wigner-seitz radius (au A)                               
   ENMAX  =   97.973; ENMIN  =   73.480 eV                                                          
   ICORE  =        3    local potential                                                             
   LCOR   =        T    correct aug charges                                                         
   LPAW   =        T    paw PP                                                                      
   EAUG   =  234.873                                                                                
   DEXC   =    0.000                                                                                
   RMAX   =    3.158    core radius for proj-oper                                                   
   RAUG   =    1.300    factor for augmentation sphere                                              
   RDEP   =    3.202    radius for radial grids                                                     
   RDEPT  =    2.659    core radius for aug-charge                                                  
                                                                                                    
   Atomic configuration                                                                             
   17 entries                                                                                       
     n  l   j            E        occ.                                                              
     1  0  0.50    -88091.8466   2.0000                                                             
     2  0  0.50    -15753.4197   2.0000                                                             
     2  1  1.50    -13508.1797   6.0000                                                             
     3  0  0.50     -3781.7194   2.0000                                                             
     3  1  1.50     -3138.2529   6.0000                                                             
     3  2  2.50     -2483.2977  10.0000                                                             
     4  0  0.50      -856.2895   2.0000                                                             
     4  1  1.50      -645.4943   6.0000                                                             
     4  2  2.50      -401.8768  10.0000                                                             
     4  3  3.50      -132.9059  14.0000                                                             
     5  0  0.50      -144.0950   2.0000                                                             
     5  1  1.50       -85.7879   6.0000                                                             
     5  2  2.50       -21.1769  10.0000                                                             
     6  0  0.50       -12.0372   2.0000                                                             
     6  1  1.50        -3.4971   2.0000                                                             
     6  2  2.50        -1.3606   0.0000                                                             
     5  3  2.50        -2.7212   0.0000                                                             
   Description                                                                                      
     l       E           TYP  RCUT    TYP  RCUT                                                     
     0    -12.0371566     23  3.100                                                                 
     0    -13.3977392     23  3.100                                                                 
     1     -3.4971341     23  3.100                                                                 
     1     -5.4423304     23  3.100                                                                 
     2     -1.3605826     23  3.100                                                                 
     3     -1.3605826     23  3.100                                                                 
  local pseudopotential read in
  partial core-charges read in
  partial kinetic energy density read in
  atomic valenz-charges read in
  non local Contribution for L=            0  read in
    real space projection operators read in
  non local Contribution for L=            0  read in
    real space projection operators read in
  non local Contribution for L=            1  read in
    real space projection operators read in
  non local Contribution for L=            1  read in
    real space projection operators read in
  non local Contribution for L=            2  read in
    real space projection operators read in
    PAW grid and wavefunctions read in
 
   number of l-projection  operators is LMAX  =            5
   number of lm-projection operators is LMMAX =           13
 
 Optimization of the real space projectors (new method)

 maximal supplied QI-value         = 34.20
 optimisation between [QCUT,QGAM] = [ 11.29, 22.57] = [ 35.68,142.71] Ry 
 Optimized for a Real-space Cutoff    1.16 Angstroem

   l    n(q)    QCUT    max X(q) W(low)/X(q) W(high)/X(q)  e(spline) 
   0      8    11.287    19.460    0.40E-03    0.73E-03    0.16E-06
   0      8    11.287    12.209    0.38E-03    0.70E-03    0.15E-06
   1      7    11.287     4.655    0.22E-03    0.25E-04    0.22E-06
 Optimization of the real space projectors (new method)

 maximal supplied QI-value         = 25.13
 optimisation between [QCUT,QGAM] = [ 11.31, 22.87] = [ 35.82,146.48] Ry 
 Optimized for a Real-space Cutoff    1.00 Angstroem

   l    n(q)    QCUT    max X(q) W(low)/X(q) W(high)/X(q)  e(spline) 
   0      7    11.310   115.676    0.43E-03    0.13E-02    0.19E-06
   0      7    11.310    87.132    0.43E-03    0.13E-02    0.18E-06
   1      6    11.310     4.429    0.42E-03    0.74E-03    0.11E-06
   1      6    11.310     2.733    0.34E-03    0.55E-03    0.92E-07
 Optimization of the real space projectors (new method)

 maximal supplied QI-value         = 25.13
 optimisation between [QCUT,QGAM] = [ 11.31, 22.87] = [ 35.82,146.48] Ry 
 Optimized for a Real-space Cutoff    1.27 Angstroem

   l    n(q)    QCUT    max X(q) W(low)/X(q) W(high)/X(q)  e(spline) 
   0      9    11.310    79.467    0.75E-04    0.16E-03    0.36E-06
   0      9    11.310    66.151    0.74E-04    0.16E-03    0.36E-06
   1      8    11.310    17.416    0.35E-03    0.12E-03    0.95E-06
   1      8    11.310    12.382    0.37E-03    0.13E-03    0.98E-06
 Optimization of the real space projectors (new method)

 maximal supplied QI-value         = 16.25
 optimisation between [QCUT,QGAM] = [ 11.38, 22.75] = [ 36.24,144.96] Ry 
 Optimized for a Real-space Cutoff    1.31 Angstroem

   l    n(q)    QCUT    max X(q) W(low)/X(q) W(high)/X(q)  e(spline) 
   0      9    11.376   194.483    0.24E-03    0.23E-03    0.67E-07
   0      9    11.376   190.334    0.23E-03    0.22E-03    0.65E-07
   1      8    11.376   116.687    0.25E-03    0.63E-04    0.16E-06
   1      8    11.376    88.696    0.25E-03    0.61E-04    0.16E-06
   2      8    11.376     4.877    0.17E-03    0.14E-03    0.29E-07
 Optimization of the real space projectors (new method)

 maximal supplied QI-value         = 12.09
 optimisation between [QCUT,QGAM] = [ 11.37, 22.86] = [ 36.19,146.31] Ry 
 Optimized for a Real-space Cutoff    1.66 Angstroem

   l    n(q)    QCUT    max X(q) W(low)/X(q) W(high)/X(q)  e(spline) 
   0     11    11.369   135.111    0.12E-03    0.69E-04    0.19E-05
   0     11    11.369   146.850    0.11E-03    0.65E-04    0.18E-05
   1     11    11.369   148.016    0.17E-03    0.32E-03    0.89E-06
   1     11    11.369   122.989    0.17E-03    0.32E-03    0.91E-06
   2     10    11.369     8.916    0.12E-03    0.45E-04    0.33E-06
  PAW_PBE H 15Jun2001                   :
 energy of atom  1       EATOM=  -12.4884
 kinetic energy error for atom=    0.0020 (will be added to EATOM!!)
  PAW_PBE C 08Apr2002                   :
 energy of atom  2       EATOM= -147.1560
 kinetic energy error for atom=    0.0076 (will be added to EATOM!!)
  PAW_PBE N 08Apr2002                   :
 energy of atom  3       EATOM= -264.5486
 kinetic energy error for atom=    0.0138 (will be added to EATOM!!)
  PAW_PBE I 08Apr2002                   :
 energy of atom  4       EATOM= -315.8678
 kinetic energy error for atom=    0.0009 (will be added to EATOM!!)
  PAW_PBE Pb 08Apr2002                  :
 energy of atom  5       EATOM=  -96.9868
 kinetic energy error for atom=    0.0000 (will be added to EATOM!!)
 
 
 POSCAR:  H  C  N  I Pb
  positions in cartesian coordinates
  No initial velocities read in
 exchange correlation table for  LEXCH =        8
   RHO(1)=    0.500       N(1)  =     2000
   RHO(2)=  100.500       N(2)  =     4000
 


--------------------------------------------------------------------------------------------------------


 ion  position               nearest neighbor table
   1  0.453  0.336  0.564- 187 1.03
   2  0.434  0.830  0.570- 188 1.02
   3  0.961  0.329  0.576- 189 1.03
   4  0.945  0.817  0.573- 190 1.03
   5  0.333  0.955  0.572- 194 1.03
   6  0.351  0.551  0.558- 195 1.02
   7  0.806  0.088  0.564- 196 1.03
   8  0.011  0.143  0.559- 183 1.02
   9  0.071  0.662  0.570- 184 1.02
  10  0.552  0.160  0.558- 185 1.03
  11  0.497  0.644  0.559- 186 1.02
  12  0.364  0.029  0.557- 194 1.03
  13  0.294  0.629  0.553- 195 1.03
  14  0.879  0.027  0.557- 196 1.03
  15  0.955  0.193  0.577- 183 1.04
  16  0.991  0.691  0.583- 184 1.04
  17  0.566  0.251  0.567- 185 1.03
  18  0.436  0.694  0.575- 186 1.03
  19  0.281  0.439  0.572- 191 1.03
  20  0.201  0.928  0.573- 192 1.02
  21  0.682  0.031  0.570- 193 1.02
  22  0.373  0.291  0.555- 187 1.03
  23  0.500  0.869  0.553- 188 1.02
  24  0.019  0.368  0.557- 189 1.03
  25  0.994  0.866  0.554- 190 1.03
  26  0.184  0.444  0.569- 191 1.02
  27  0.141  0.991  0.560- 192 1.03
  28  0.676  0.936  0.564- 193 1.03
  29  0.431  0.180  0.549- 146 1.09
  30  0.547  0.752  0.543- 147 1.09
  31  0.063  0.252  0.545- 144 1.09
  32  0.083  0.771  0.550- 145 1.09
  33  0.184  0.562  0.557- 148 1.10
  34  0.241  0.065  0.548- 149 1.10
  35  0.798  0.925  0.555- 150 1.10
  36  0.486  0.340  0.661- 205 1.03
  37  0.449  0.811  0.674- 206 1.02
  38  0.965  0.284  0.676- 207 1.02
  39  0.931  0.724  0.673- 208 1.02
  40  0.309  0.057  0.669- 209 1.03
  41  0.298  0.549  0.675- 210 1.02
  42  0.801  0.056  0.674- 211 1.03
  43  0.763  0.597  0.657- 212 1.02
  44  0.086  0.163  0.645- 197 1.02
  45  0.117  0.721  0.651- 198 1.02
  46  0.569  0.157  0.653- 199 1.02
  47  0.565  0.664  0.650- 200 1.02
  48  0.177  0.415  0.648- 201 1.02
  49  0.172  0.920  0.651- 202 1.02
  50  0.698  0.407  0.659- 203 1.02
  51  0.674  0.920  0.651- 204 1.03
  52  0.063  0.182  0.671- 197 1.01
  53  0.060  0.676  0.669- 198 1.02
  54  0.594  0.247  0.660- 199 1.02
  55  0.534  0.695  0.675- 200 1.03
  56  0.199  0.443  0.674- 201 1.03
  57  0.207  0.956  0.675- 202 1.02
  58  0.665  0.497  0.661- 203 1.02
  59  0.697  0.957  0.675- 204 1.02
  60  0.399  0.301  0.657- 205 1.02
  61  0.435  0.844  0.648- 206 1.02
  62  0.936  0.325  0.652- 207 1.02
  63  0.905  0.795  0.655- 208 1.02
  64  0.329  0.075  0.643- 209 1.02
  65  0.329  0.577  0.650- 210 1.02
  66  0.833  0.076  0.649- 211 1.02
  67  0.852  0.566  0.652- 212 1.02
  68  0.009  0.253  0.631- 151 1.09
  69  0.023  0.801  0.640- 152 1.10
  70  0.444  0.183  0.650- 153 1.09
  71  0.506  0.755  0.632- 154 1.08
  72  0.245  0.991  0.629- 156 1.09
  73  0.257  0.495  0.631- 155 1.09
  74  0.758  0.990  0.632- 158 1.09
  75  0.819  0.441  0.653- 157 1.09
  76  0.449  0.301  0.769- 221 1.02
  77  0.449  0.801  0.769- 222 1.02
  78  0.949  0.301  0.769- 223 1.02
  79  0.949  0.801  0.769- 224 1.02
  80  0.301  0.051  0.769- 225 1.02
  81  0.301  0.551  0.769- 226 1.02
  82  0.801  0.051  0.769- 227 1.02
  83  0.801  0.551  0.769- 228 1.02
  84  0.079  0.171  0.743- 213 1.02
  85  0.079  0.671  0.743- 214 1.02
  86  0.579  0.171  0.743- 215 1.02
  87  0.579  0.671  0.743- 216 1.02
  88  0.171  0.421  0.743- 217 1.02
  89  0.171  0.921  0.743- 218 1.02
  90  0.671  0.421  0.743- 219 1.02
  91  0.671  0.921  0.743- 220 1.02
  92  0.051  0.199  0.769- 213 1.02
  93  0.051  0.699  0.769- 214 1.02
  94  0.551  0.199  0.769- 215 1.02
  95  0.551  0.699  0.769- 216 1.02
  96  0.199  0.449  0.769- 217 1.02
  97  0.199  0.949  0.769- 218 1.02
  98  0.699  0.449  0.769- 219 1.02
  99  0.699  0.949  0.769- 220 1.02
 100  0.421  0.329  0.743- 221 1.02
 101  0.421  0.829  0.743- 222 1.02
 102  0.921  0.329  0.743- 223 1.02
 103  0.921  0.829  0.743- 224 1.02
 104  0.329  0.079  0.743- 225 1.02
 105  0.329  0.579  0.743- 226 1.02
 106  0.829  0.079  0.743- 227 1.02
 107  0.829  0.579  0.743- 228 1.02
 108  0.000  0.250  0.726- 161 1.09
 109  0.000  0.750  0.726- 162 1.09
 110  0.500  0.250  0.726- 159 1.09
 111  0.500  0.750  0.726- 160 1.09
 112  0.250  0.000  0.726- 163 1.09
 113  0.250  0.500  0.726- 164 1.09
 114  0.750  0.000  0.726- 165 1.09
 115  0.750  0.500  0.726- 166 1.09
 116  0.776  0.557  0.519- 173 1.09
 117  0.719  0.479  0.525- 173 1.09
 118  0.868  0.501  0.538- 174 1.09
 119  0.860  0.482  0.566- 174 1.10
 120  0.745  0.641  0.560- 175 1.10
 121  0.813  0.597  0.576- 175 1.09
 122  0.667  0.547  0.569- 176 1.10
 123  0.681  0.454  0.560- 176 1.10
 124  0.617  0.559  0.537- 177 1.10
 125  0.674  0.639  0.535- 177 1.11
 126  0.606  0.646  0.503- 178 1.10
 127  0.687  0.603  0.494- 178 1.10
 128  0.787  0.389  0.530- 179 1.10
 129  0.778  0.372  0.558- 179 1.10
 130  0.865  0.367  0.545- 179 1.10
 131  0.863  0.696  0.553- 180 1.10
 132  0.840  0.647  0.529- 180 1.09
 133  0.907  0.610  0.547- 180 1.10
 134  0.771  0.528  0.597- 181 1.09
 135  0.774  0.434  0.589- 181 1.10
 136  0.692  0.472  0.600- 181 1.10
 137  0.538  0.528  0.505- 182 1.11
 138  0.574  0.546  0.479- 182 1.10
 139  0.703  0.481  0.470- 168 1.10
 140  0.557  0.415  0.521- 169 1.09
 141  0.765  0.358  0.472- 170 1.09
 142  0.620  0.292  0.523- 171 1.09
 143  0.725  0.264  0.499- 172 1.09
 144  0.019  0.255  0.557-  31 1.09 183 1.31 189 1.31
 145  0.036  0.764  0.561-  32 1.09 184 1.31 190 1.32
 146  0.463  0.226  0.555-  29 1.09 187 1.31 185 1.32
 147  0.501  0.756  0.555-  30 1.09 188 1.31 186 1.31
 148  0.238  0.535  0.560-  33 1.10 195 1.31 191 1.31
 149  0.252  0.014  0.557-  34 1.10 194 1.31 192 1.31
 150  0.778  0.980  0.560-  35 1.10 193 1.31 196 1.31
 151  0.011  0.245  0.648-  68 1.09 207 1.31 197 1.32
 152  0.011  0.761  0.652-  69 1.10 208 1.31 198 1.32
 153  0.482  0.228  0.655-  70 1.09 205 1.31 199 1.32
 154  0.500  0.754  0.649-  71 1.08 206 1.31 200 1.31
 155  0.253  0.496  0.649-  73 1.09 210 1.31 201 1.31
 156  0.251  0.997  0.647-  72 1.09 209 1.31 202 1.31
 157  0.777  0.484  0.655-  75 1.09 212 1.31 203 1.32
 158  0.754  0.997  0.649-  74 1.09 211 1.31 204 1.31
 159  0.500  0.250  0.743- 110 1.09 221 1.31 215 1.31
 160  0.500  0.750  0.743- 111 1.09 222 1.31 216 1.31
 161  1.000  0.250  0.743- 108 1.09 223 1.31 213 1.31
 162  1.000  0.750  0.743- 109 1.09 224 1.31 214 1.31
 163  0.250  0.000  0.743- 112 1.09 225 1.31 218 1.31
 164  0.250  0.500  0.743- 113 1.09 226 1.31 217 1.31
 165  0.750  0.000  0.743- 114 1.09 227 1.31 220 1.31
 166  0.750  0.500  0.743- 115 1.09 228 1.31 219 1.31
 167  0.626  0.456  0.496- 169 1.40 168 1.40 182 1.51
 168  0.684  0.439  0.482- 139 1.10 170 1.39 167 1.40
 169  0.602  0.402  0.510- 140 1.09 167 1.40 171 1.40
 170  0.720  0.371  0.483- 141 1.09 168 1.39 172 1.40
 171  0.638  0.333  0.511- 142 1.09 172 1.40 169 1.40
 172  0.697  0.317  0.497- 143 1.09 171 1.40 170 1.40
 173  0.732  0.536  0.530- 117 1.09 116 1.09 229 1.51 177 1.53
 174  0.831  0.478  0.550- 118 1.09 119 1.10 179 1.51 229 1.52
 175  0.793  0.605  0.559- 121 1.09 120 1.10 180 1.52 229 1.52
 176  0.708  0.503  0.567- 122 1.10 123 1.10 181 1.51 229 1.52
 177  0.663  0.584  0.528- 124 1.10 125 1.11 173 1.53 178 1.54
 178  0.638  0.594  0.504- 126 1.10 127 1.10 177 1.54 182 1.54
 179  0.813  0.398  0.545- 129 1.10 130 1.10 128 1.10 174 1.51
 180  0.855  0.640  0.546- 132 1.09 133 1.10 131 1.10 175 1.52
 181  0.739  0.484  0.589- 134 1.09 136 1.10 135 1.10 176 1.51
 182  0.590  0.532  0.495- 138 1.10 137 1.11 167 1.51 178 1.54
 183  0.993  0.193  0.565-   8 1.02  15 1.04 144 1.31
 184  0.032  0.702  0.572-   9 1.02  16 1.04 145 1.31
 185  0.533  0.213  0.559-  10 1.03  17 1.03 146 1.32
 186  0.475  0.694  0.563-  11 1.02  18 1.03 147 1.31
 187  0.429  0.290  0.558-  22 1.03   1 1.03 146 1.31
 188  0.474  0.822  0.559-  23 1.02   2 1.02 147 1.31
 189  0.995  0.321  0.563-  24 1.03   3 1.03 144 1.31
 190  0.985  0.816  0.561-  25 1.03   4 1.03 145 1.32
 191  0.235  0.466  0.566-  26 1.02  19 1.03 148 1.31
 192  0.195  0.974  0.563-  20 1.02  27 1.03 149 1.31
 193  0.707  0.984  0.564-  21 1.02  28 1.03 150 1.31
 194  0.320  0.998  0.562-   5 1.03  12 1.03 149 1.31
 195  0.299  0.573  0.557-   6 1.02  13 1.03 148 1.31
 196  0.824  0.035  0.561-   7 1.03  14 1.03 150 1.31
 197  0.056  0.193  0.656-  52 1.01  44 1.02 151 1.32
 198  0.065  0.715  0.657-  45 1.02  53 1.02 152 1.32
 199  0.553  0.210  0.656-  46 1.02  54 1.02 153 1.32
 200  0.534  0.701  0.659-  47 1.02  55 1.03 154 1.31
 201  0.206  0.449  0.658-  48 1.02  56 1.03 155 1.31
 202  0.208  0.956  0.659-  57 1.02  49 1.02 156 1.31
 203  0.708  0.462  0.658-  50 1.02  58 1.02 157 1.32
 204  0.706  0.956  0.659-  59 1.02  51 1.03 158 1.31
 205  0.455  0.294  0.657-  60 1.02  36 1.03 153 1.31
 206  0.459  0.806  0.658-  61 1.02  37 1.02 154 1.31
 207  0.968  0.287  0.660-  38 1.02  62 1.02 151 1.31
 208  0.945  0.760  0.661-  63 1.02  39 1.02 152 1.31
 209  0.299  0.046  0.654-  64 1.02  40 1.03 156 1.31
 210  0.296  0.543  0.659-  41 1.02  65 1.02 155 1.31
 211  0.798  0.046  0.658-  66 1.02  42 1.03 158 1.31
 212  0.798  0.553  0.655-  67 1.02  43 1.02 157 1.31
 213  0.046  0.204  0.753-  92 1.02  84 1.02 161 1.31
 214  0.046  0.704  0.753-  93 1.02  85 1.02 162 1.31
 215  0.546  0.204  0.753-  94 1.02  86 1.02 159 1.31
 216  0.546  0.704  0.753-  95 1.02  87 1.02 160 1.31
 217  0.204  0.454  0.753-  96 1.02  88 1.02 164 1.31
 218  0.204  0.954  0.753-  97 1.02  89 1.02 163 1.31
 219  0.704  0.454  0.753-  98 1.02  90 1.02 166 1.31
 220  0.704  0.954  0.753-  99 1.02  91 1.02 165 1.31
 221  0.454  0.296  0.753-  76 1.02 100 1.02 159 1.31
 222  0.454  0.796  0.753-  77 1.02 101 1.02 160 1.31
 223  0.954  0.296  0.753-  78 1.02 102 1.02 161 1.31
 224  0.954  0.796  0.753-  79 1.02 103 1.02 162 1.31
 225  0.296  0.046  0.753-  80 1.02 104 1.02 163 1.31
 226  0.296  0.546  0.753-  81 1.02 105 1.02 164 1.31
 227  0.796  0.046  0.753-  82 1.02 106 1.02 165 1.31
 228  0.796  0.546  0.753-  83 1.02 107 1.02 166 1.31
 229  0.765  0.530  0.552- 173 1.51 174 1.52 176 1.52 175 1.52
 230  0.514  0.018  0.552- 304 3.24
 231  0.482  0.495  0.555- 305 3.14
 232  0.011  0.006  0.548- 302 3.52
 233  0.038  0.507  0.553- 303 3.26
 234  0.237  0.242  0.552- 306 3.15
 235  0.256  0.766  0.554- 307 3.16
 236  0.738  0.204  0.555- 308 3.10
 237  0.701  0.792  0.554- 309 3.19
 238  0.002  0.983  0.653- 302 3.06 310 3.23
 239  0.997  0.506  0.655- 311 3.13 303 3.14
 240  0.498  0.012  0.654- 304 3.16 312 3.18
 241  0.508  0.490  0.655- 313 3.13 305 3.14
 242  0.260  0.246  0.654- 314 3.16 306 3.25
 243  0.259  0.754  0.655- 315 3.14 307 3.18
 244  0.747  0.266  0.654- 316 3.16 308 3.26
 245  0.746  0.749  0.654- 317 3.15 309 3.21
 246  0.135  0.112  0.607- 306 3.19 302 3.20
 247  0.150  0.605  0.608- 307 3.14 303 3.17
 248  0.648  0.105  0.609- 308 3.12 304 3.14
 249  0.616  0.628  0.609- 309 3.20 305 3.25
 250  0.359  0.387  0.605- 305 3.16 306 3.23
 251  0.375  0.880  0.606- 304 3.28 307 3.29
 252  0.890  0.365  0.609- 303 3.30 308 3.43
 253  0.869  0.877  0.605- 302 3.23 309 3.24
 254  0.122  0.368  0.610- 306 3.19 303 3.24
 255  0.124  0.866  0.607- 307 3.20 302 3.29
 256  0.593  0.338  0.601- 308 3.20 305 3.27
 257  0.617  0.872  0.613- 309 3.10 304 3.21
 258  0.387  0.135  0.605- 304 3.16 306 3.22
 259  0.385  0.628  0.611- 307 3.21 305 3.23
 260  0.887  0.133  0.610- 302 3.20 308 3.33
 261  0.896  0.646  0.610- 303 3.27 309 3.49
 262  0.000  0.000  0.755- 310 3.13 318 3.27
 263  0.000  0.500  0.755- 311 3.13 319 3.27
 264  0.500  0.000  0.755- 312 3.13 320 3.27
 265  0.500  0.500  0.755- 313 3.13 321 3.27
 266  0.250  0.250  0.755- 314 3.13 322 3.27
 267  0.250  0.750  0.755- 315 3.13 323 3.27
 268  0.750  0.250  0.755- 316 3.13 324 3.27
 269  0.750  0.750  0.755- 317 3.13 325 3.27
 270  0.136  0.114  0.705- 310 3.20 314 3.20
 271  0.136  0.614  0.705- 311 3.20 315 3.20
 272  0.636  0.114  0.705- 312 3.20 316 3.20
 273  0.636  0.614  0.705- 313 3.20 317 3.20
 274  0.364  0.386  0.705- 313 3.20 314 3.20
 275  0.364  0.886  0.705- 312 3.20 315 3.20
 276  0.864  0.386  0.705- 311 3.20 316 3.20
 277  0.864  0.886  0.705- 310 3.20 317 3.20
 278  0.114  0.364  0.705- 314 3.21 311 3.21
 279  0.114  0.864  0.705- 315 3.21 310 3.21
 280  0.614  0.364  0.705- 316 3.21 313 3.21
 281  0.614  0.864  0.705- 317 3.21 312 3.21
 282  0.386  0.136  0.705- 314 3.21 312 3.21
 283  0.386  0.636  0.705- 315 3.21 313 3.21
 284  0.886  0.136  0.705- 316 3.21 310 3.21
 285  0.886  0.636  0.705- 317 3.21 311 3.21
 286  0.135  0.115  0.801- 318 3.22 322 3.22
 287  0.135  0.615  0.801- 319 3.22 323 3.22
 288  0.635  0.115  0.801- 320 3.22 324 3.22
 289  0.635  0.615  0.801- 321 3.22 325 3.22
 290  0.365  0.385  0.801- 321 3.22 322 3.22
 291  0.365  0.885  0.801- 320 3.22 323 3.22
 292  0.865  0.385  0.801- 319 3.22 324 3.22
 293  0.865  0.885  0.801- 318 3.22 325 3.22
 294  0.115  0.365  0.801- 319 3.23 322 3.23
 295  0.115  0.865  0.801- 318 3.23 323 3.23
 296  0.615  0.365  0.801- 321 3.23 324 3.23
 297  0.615  0.865  0.801- 320 3.23 325 3.23
 298  0.385  0.135  0.801- 320 3.23 322 3.23
 299  0.385  0.635  0.801- 321 3.23 323 3.23
 300  0.885  0.135  0.801- 318 3.23 324 3.23
 301  0.885  0.635  0.801- 319 3.23 325 3.23
 302  0.000  0.999  0.605- 238 3.06 260 3.20 246 3.20 253 3.23 255 3.29 232 3.52
 303  0.007  0.504  0.605- 239 3.14 247 3.17 254 3.24 233 3.26 261 3.27 252 3.30
 304  0.505  0.006  0.604- 248 3.14 258 3.16 240 3.16 257 3.21 230 3.24 251 3.28
 305  0.499  0.492  0.605- 231 3.14 241 3.14 250 3.16 259 3.23 249 3.25 256 3.27
 306  0.248  0.247  0.602- 234 3.15 246 3.19 254 3.19 258 3.22 250 3.23 242 3.25
 307  0.253  0.745  0.604- 247 3.14 235 3.16 243 3.18 255 3.20 259 3.21 251 3.29
 308  0.744  0.246  0.603- 236 3.10 248 3.12 256 3.20 244 3.26 260 3.33 252 3.43
 309  0.738  0.755  0.603- 257 3.10 237 3.19 249 3.20 245 3.21 253 3.24 261 3.49
 310  0.000  0.000  0.705- 262 3.13 270 3.20 277 3.20 279 3.21 284 3.21 238 3.23
 311  0.000  0.500  0.705- 239 3.13 263 3.13 271 3.20 276 3.20 278 3.21 285 3.21
 312  0.500  0.000  0.705- 264 3.13 240 3.18 272 3.20 275 3.20 281 3.21 282 3.21
 313  0.500  0.500  0.705- 241 3.13 265 3.13 273 3.20 274 3.20 280 3.21 283 3.21
 314  0.250  0.250  0.705- 266 3.13 242 3.16 270 3.20 274 3.20 282 3.21 278 3.21
 315  0.250  0.750  0.705- 267 3.13 243 3.14 271 3.20 275 3.20 283 3.21 279 3.21
 316  0.750  0.250  0.705- 268 3.13 244 3.16 272 3.20 276 3.20 284 3.21 280 3.21
 317  0.750  0.750  0.705- 269 3.13 245 3.15 273 3.20 277 3.20 285 3.21 281 3.21
 318  0.000  0.000  0.807- 286 3.22 293 3.22 300 3.23 295 3.23 262 3.27
 319  0.000  0.500  0.807- 287 3.22 292 3.22 301 3.23 294 3.23 263 3.27
 320  0.500  0.000  0.807- 288 3.22 291 3.22 298 3.23 297 3.23 264 3.27
 321  0.500  0.500  0.807- 289 3.22 290 3.22 299 3.23 296 3.23 265 3.27
 322  0.250  0.250  0.807- 290 3.22 286 3.22 294 3.23 298 3.23 266 3.27
 323  0.250  0.750  0.807- 291 3.22 287 3.22 299 3.23 295 3.23 267 3.27
 324  0.750  0.250  0.807- 292 3.22 288 3.22 296 3.23 300 3.23 268 3.27
 325  0.750  0.750  0.807- 293 3.22 289 3.22 297 3.23 301 3.23 269 3.27
 

IMPORTANT INFORMATION: All symmetrisations will be switched off!
NOSYMM: (Re-)initialisation of all symmetry stuff for point group C_1.


----------------------------------------------------------------------------------------

                                     Primitive cell                                     

  volume of cell :   20385.2105

  direct lattice vectors                    reciprocal lattice vectors
    18.060800552  0.000000000  0.000000000     0.055368531  0.000015077 -0.000000000
    -0.004918649 18.062799454  0.000000000     0.000000000  0.055362404  0.000000000
     0.000000000  0.000000000 62.487499237     0.000000000 -0.000000000  0.016003201

  length of vectors
    18.060800552 18.062800123 62.487499237     0.055368533  0.055362404  0.016003201

  position of ions in fractional coordinates (direct lattice)
     0.452684262  0.335774171  0.564345725
     0.433549595  0.829774557  0.570074898
     0.961153422  0.328597300  0.575893811
     0.944799337  0.816879193  0.573067135
     0.333429586  0.955147602  0.572219004
     0.350621617  0.550637802  0.557979034
     0.806044802  0.087985042  0.564321856
     0.010766936  0.143391842  0.559445331
     0.071422479  0.661864874  0.570023497
     0.551725600  0.159711876  0.558138734
     0.496511877  0.643809327  0.559117568
     0.364268986  0.028887610  0.556645149
     0.294091215  0.628843554  0.552904594
     0.878709591  0.026645740  0.557040370
     0.954531444  0.192520474  0.577489773
     0.991258762  0.690511957  0.582983730
     0.566369405  0.250676339  0.567247856
     0.435946667  0.693673378  0.575051113
     0.280872198  0.439440903  0.572283897
     0.200983301  0.927877447  0.572593713
     0.682299108  0.030975092  0.569925271
     0.372706707  0.291431519  0.554892235
     0.499907058  0.869179647  0.553328690
     0.018754567  0.368443462  0.556823591
     0.994469904  0.865980370  0.554146908
     0.184486892  0.443524409  0.569242762
     0.141097797  0.990555115  0.560052874
     0.675878458  0.935764018  0.563595758
     0.430889133  0.180117317  0.548792627
     0.546833653  0.751989285  0.543495424
     0.062643946  0.251802250  0.545234847
     0.083493480  0.771238061  0.550312340
     0.184373205  0.562037934  0.556818951
     0.241210729  0.064702971  0.547931187
     0.798253349  0.925413451  0.555030080
     0.486479578  0.339808945  0.660703865
     0.449161689  0.810818809  0.673587729
     0.964660937  0.284450527  0.676151596
     0.930789997  0.724182055  0.672788497
     0.308786891  0.057163116  0.669447496
     0.297944736  0.548660633  0.675076613
     0.800777999  0.056314564  0.674269200
     0.762882490  0.597310654  0.656529813
     0.086493737  0.163391242  0.644761467
     0.117038427  0.721366776  0.651178706
     0.568611175  0.157012858  0.653099134
     0.564923119  0.664449216  0.650351697
     0.176895578  0.414689657  0.647737160
     0.172401060  0.919545369  0.651056122
     0.697654059  0.406523093  0.659491342
     0.674190054  0.919827018  0.650528673
     0.063256001  0.182399313  0.671347962
     0.060079085  0.676392320  0.669340236
     0.593566346  0.246992564  0.659595733
     0.534166694  0.694708424  0.675417501
     0.198779325  0.443302289  0.673719225
     0.207109887  0.955515088  0.674861604
     0.664879915  0.497317507  0.661160744
     0.697414945  0.956628680  0.675424583
     0.398716988  0.300810767  0.656525783
     0.434761922  0.844257653  0.647895822
     0.936291231  0.325165370  0.652342024
     0.905257755  0.794762552  0.655413989
     0.328694235  0.075234885  0.642649045
     0.328721750  0.577423132  0.650081379
     0.833456597  0.075561789  0.648529128
     0.851845014  0.565537102  0.651582961
     0.008950299  0.252844397  0.630941015
     0.022883227  0.801465326  0.639761505
     0.443838816  0.183157831  0.650317571
     0.505821889  0.755325044  0.631503139
     0.245349787  0.991218168  0.629378630
     0.257158144  0.494960459  0.631281660
     0.757733150  0.990469142  0.631820647
     0.818687374  0.441365221  0.652843589
     0.448745018  0.301283966  0.768889017
     0.448745007  0.801283913  0.768889017
     0.948744965  0.301283966  0.768889017
     0.948745007  0.801283913  0.768889017
     0.301275995  0.051294496  0.768872961
     0.301276011  0.551294499  0.768872961
     0.801275943  0.051294496  0.768872961
     0.801275984  0.551294499  0.768872961
     0.078771004  0.171180501  0.743441971
     0.078771006  0.671180448  0.743441971
     0.578771004  0.171180501  0.743441971
     0.578770992  0.671180448  0.743441971
     0.171199499  0.421174482  0.743421032
     0.171199501  0.921174508  0.743421032
     0.671199512  0.421174482  0.743421032
     0.671199501  0.921174508  0.743421032
     0.051256000  0.198714991  0.768889017
     0.051256002  0.698714925  0.768889017
     0.551256027  0.198714991  0.768889017
     0.551256016  0.698714925  0.768889017
     0.198723491  0.448703970  0.768872046
     0.198723493  0.948703970  0.768872046
     0.698723518  0.448703970  0.768872046
     0.698723507  0.948703970  0.768872046
     0.421231519  0.328817467  0.743441971
     0.421231508  0.828817440  0.743441971
     0.921231466  0.328817467  0.743441971
     0.921231508  0.828817440  0.743441971
     0.328800503  0.078824997  0.743421032
     0.328800492  0.578824964  0.743421032
     0.828800477  0.078824997  0.743421032
     0.828800519  0.578824964  0.743421032
     0.000003500  0.250001478  0.725821992
     0.000003500  0.750001452  0.725821992
     0.500003506  0.250001478  0.725821992
     0.500003495  0.750001452  0.725821992
     0.250000502  0.000000000  0.725803983
     0.250000517  0.500000000  0.725803983
     0.750000502  0.000000000  0.725803983
     0.750000490  0.500000000  0.725803983
     0.776098538  0.556812757  0.519355892
     0.719212412  0.478983716  0.524625806
     0.868335524  0.501221105  0.538357007
     0.859518252  0.482107914  0.565866110
     0.744575860  0.641480156  0.559959472
     0.813170247  0.597244657  0.575658413
     0.666679767  0.547109859  0.568845588
     0.681110084  0.454258869  0.560199022
     0.617118901  0.558988550  0.537110053
     0.673890022  0.639148029  0.534775663
     0.606382467  0.645678946  0.503497953
     0.686950455  0.602516296  0.494034116
     0.786960711  0.389322024  0.529772282
     0.777898771  0.372039514  0.557559822
     0.865409261  0.367064703  0.545222149
     0.863249419  0.696415321  0.552770534
     0.839716119  0.647264408  0.529374680
     0.906823493  0.609579256  0.547421564
     0.770618313  0.528276285  0.596586121
     0.773636212  0.433723598  0.588891894
     0.692240046  0.471819279  0.599954227
     0.537754692  0.528341384  0.504669147
     0.574181184  0.545860929  0.478819036
     0.702677460  0.480547320  0.469851911
     0.556694012  0.414558058  0.520692402
     0.765250501  0.358377052  0.471610685
     0.620035285  0.292166885  0.522775582
     0.725429619  0.264393631  0.498591851
     0.018845279  0.255196667  0.557269786
     0.035868719  0.763570831  0.560842461
     0.462824557  0.226448238  0.555174030
     0.500612804  0.756044096  0.554719532
     0.237913084  0.535426995  0.559895372
     0.251620307  0.014359942  0.557301836
     0.777609385  0.979721214  0.560041703
     0.010956439  0.244587496  0.648235307
     0.011494613  0.760794834  0.652353013
     0.482302251  0.227602792  0.654501758
     0.499968250  0.754370356  0.648725883
     0.253164342  0.495714780  0.648710500
     0.250706973  0.997430344  0.646664070
     0.776592942  0.484118081  0.655260149
     0.754422675  0.997220217  0.649153398
     0.499988984  0.249994984  0.743277021
     0.499989025  0.749994958  0.743277021
     0.999988984  0.249994984  0.743277021
     0.999989025  0.749994958  0.743277021
     0.250000502  0.000001000  0.743255960
     0.250000517  0.500001003  0.743255960
     0.750000502  0.000001000  0.743255960
     0.750000491  0.500001003  0.743255960
     0.625811406  0.456174844  0.495546167
     0.684302261  0.439102734  0.481689514
     0.602483202  0.402008256  0.509964548
     0.719576817  0.370630924  0.482534013
     0.637890830  0.333366675  0.511109308
     0.697018961  0.317421030  0.497493059
     0.731751613  0.535586602  0.529554953
     0.831123113  0.477727447  0.550392373
     0.793176589  0.605129519  0.559304800
     0.707726386  0.502687456  0.567495159
     0.662609506  0.583734411  0.527798620
     0.638409188  0.594096066  0.504381583
     0.813155917  0.397851889  0.545402117
     0.854510075  0.640426050  0.546234864
     0.738784606  0.483562174  0.589181076
     0.589714417  0.531562836  0.495343337
     0.993444377  0.193271667  0.565327672
     0.032426699  0.702032416  0.571867188
     0.532925854  0.213248971  0.559396737
     0.474611017  0.694385830  0.563000913
     0.428687788  0.289794394  0.557550665
     0.474406770  0.822341116  0.558902803
     0.995492696  0.321104514  0.562901772
     0.985135509  0.815973660  0.561463313
     0.235314118  0.466105248  0.566189234
     0.194774506  0.974283061  0.563388441
     0.706503775  0.983847698  0.564151961
     0.320370949  0.997696920  0.562029344
     0.298917943  0.573423812  0.556735438
     0.824296549  0.035212408  0.561378457
     0.056036969  0.193057955  0.655543104
     0.065397341  0.714595260  0.657427697
     0.552883710  0.210010730  0.656011215
     0.534306819  0.701245783  0.659109369
     0.206482621  0.449012202  0.657505533
     0.207690811  0.955581682  0.658540835
     0.707936527  0.461907249  0.658256720
     0.706255909  0.955515949  0.659303561
     0.454831759  0.293808999  0.657405964
     0.459475900  0.806319178  0.657583429
     0.968124412  0.286926476  0.659942238
     0.945421204  0.760346159  0.660970398
     0.299110109  0.045611186  0.653622249
     0.295846856  0.542862653  0.658881601
     0.798434730  0.046015679  0.658069488
     0.798041528  0.553324993  0.655106859
     0.045862501  0.204119496  0.752725994
     0.045862500  0.704119456  0.752725994
     0.545862507  0.204119496  0.752725994
     0.545862496  0.704119456  0.752725994
     0.204119002  0.454101003  0.752704994
     0.204118991  0.954100951  0.752704994
     0.704118976  0.454101003  0.752704994
     0.704118964  0.954100951  0.752704994
     0.454140018  0.295888490  0.752726971
     0.454140007  0.795888516  0.752726971
     0.954140018  0.295888490  0.752726971
     0.954140060  0.795888516  0.752726971
     0.295882492  0.045900498  0.752704994
     0.295882481  0.545900528  0.752704994
     0.795882439  0.045900498  0.752704994
     0.795882481  0.545900528  0.752704994
     0.765474727  0.530048809  0.551666248
     0.513649733  0.017510564  0.551947738
     0.481637032  0.494781897  0.554682171
     0.010992233  0.005521998  0.548356993
     0.037944619  0.507180065  0.553304332
     0.237082678  0.241620688  0.552072213
     0.256305906  0.765574504  0.553638322
     0.737945167  0.203893825  0.554567768
     0.701203904  0.791859207  0.554293971
     0.001820345  0.982701085  0.653371649
     0.997004810  0.506247447  0.654841242
     0.497738731  0.012179950  0.654139930
     0.508451452  0.490080579  0.654915354
     0.260167453  0.245942629  0.654303049
     0.258651609  0.754274951  0.654701810
     0.746979591  0.266136087  0.654477095
     0.746348120  0.749336306  0.654394070
     0.135490046  0.112216053  0.607139319
     0.150373347  0.605088864  0.608055640
     0.647672968  0.104637959  0.609461438
     0.616187242  0.628232949  0.609093933
     0.358967672  0.387307554  0.604585463
     0.375096333  0.879892301  0.606354738
     0.890203863  0.364775791  0.609246429
     0.869160993  0.876948724  0.604520020
     0.122409908  0.368053129  0.609741096
     0.124070116  0.865714956  0.607348406
     0.593105042  0.338268731  0.601173159
     0.616898885  0.871599208  0.612802805
     0.386628240  0.134613142  0.604519288
     0.384983768  0.628407075  0.610949895
     0.887016512  0.133185373  0.610357858
     0.895557745  0.645620077  0.610269950
     0.000000000  0.000000000  0.754927972
     0.000000000  0.500000000  0.754927972
     0.500000000  0.000000000  0.754927972
     0.499999989  0.500000000  0.754927972
     0.250000496  0.250000000  0.754939022
     0.250000511  0.749999974  0.754939022
     0.750000470  0.250000000  0.754939022
     0.750000458  0.749999974  0.754939022
     0.135790500  0.114209997  0.704782994
     0.135790502  0.614209984  0.704782994
     0.635790447  0.114209997  0.704782994
     0.635790488  0.614209984  0.704782994
     0.364209516  0.385789989  0.704782994
     0.364209505  0.885789963  0.704782994
     0.864209542  0.385789989  0.704782994
     0.864209531  0.885789963  0.704782994
     0.114217990  0.364218986  0.704780979
     0.114217992  0.864218986  0.704780979
     0.614218004  0.364218986  0.704780979
     0.614217992  0.864218986  0.704780979
     0.385782012  0.135781489  0.704782017
     0.385782001  0.635781489  0.704782017
     0.885781985  0.135781489  0.704782017
     0.885782027  0.635781489  0.704782017
     0.134667000  0.115332001  0.801256025
     0.134666989  0.615331988  0.801256025
     0.634666987  0.115332001  0.801256025
     0.634666976  0.615331988  0.801256025
     0.365333002  0.384667985  0.801256025
     0.365332990  0.884667959  0.801256025
     0.865332949  0.384667985  0.801256025
     0.865332938  0.884667959  0.801256025
     0.115328503  0.365337004  0.801264999
     0.115328505  0.865336978  0.801264999
     0.615328503  0.365337004  0.801264999
     0.615328492  0.865336978  0.801264999
     0.384671513  0.134662996  0.801264999
     0.384671501  0.634662970  0.801264999
     0.884671486  0.134662996  0.801264999
     0.884671528  0.634662970  0.801264999
     0.000052715  0.998526461  0.604561716
     0.006891516  0.504420171  0.604667083
     0.505266000  0.006426912  0.603690448
     0.499050045  0.492214873  0.604701819
     0.248330280  0.246750328  0.602363217
     0.253005789  0.745021045  0.603914919
     0.744009010  0.245930617  0.602606002
     0.737927367  0.754909210  0.603054151
     0.000000500  0.000000500  0.704828963
     0.000000500  0.500000475  0.704828963
     0.500000475  0.000000500  0.704828963
     0.500000464  0.500000475  0.704828963
     0.249999994  0.249999472  0.704824995
     0.250000010  0.749999498  0.704824995
     0.749999994  0.249999472  0.704824995
     0.749999983  0.749999498  0.704824995
     0.000000000  0.000000000  0.807317968
     0.000000000  0.500000000  0.807317968
     0.500000000  0.000000000  0.807317968
     0.499999989  0.500000000  0.807317968
     0.249999994  0.250000000  0.807317968
     0.250000010  0.749999974  0.807317968
     0.749999994  0.250000000  0.807317968
     0.749999983  0.749999974  0.807317968

  ion indices of the primitive-cell ions
   primitive index   ion index
                 1           1
                 2           2
                 3           3
                 4           4
                 5           5
                 6           6
                 7           7
                 8           8
                 9           9
                10          10
                11          11
                12          12
                13          13
                14          14
                15          15
                16          16
                17          17
                18          18
                19          19
                20          20
                21          21
                22          22
                23          23
                24          24
                25          25
                26          26
                27          27
                28          28
                29          29
                30          30
                31          31
                32          32
                33          33
                34          34
                35          35
                36          36
                37          37
                38          38
                39          39
                40          40
                41          41
                42          42
                43          43
                44          44
                45          45
                46          46
                47          47
                48          48
                49          49
                50          50
                51          51
                52          52
                53          53
                54          54
                55          55
                56          56
                57          57
                58          58
                59          59
                60          60
                61          61
                62          62
                63          63
                64          64
                65          65
                66          66
                67          67
                68          68
                69          69
                70          70
                71          71
                72          72
                73          73
                74          74
                75          75
                76          76
                77          77
                78          78
                79          79
                80          80
                81          81
                82          82
                83          83
                84          84
                85          85
                86          86
                87          87
                88          88
                89          89
                90          90
                91          91
                92          92
                93          93
                94          94
                95          95
                96          96
                97          97
                98          98
                99          99
               100         100
               101         101
               102         102
               103         103
               104         104
               105         105
               106         106
               107         107
               108         108
               109         109
               110         110
               111         111
               112         112
               113         113
               114         114
               115         115
               116         116
               117         117
               118         118
               119         119
               120         120
               121         121
               122         122
               123         123
               124         124
               125         125
               126         126
               127         127
               128         128
               129         129
               130         130
               131         131
               132         132
               133         133
               134         134
               135         135
               136         136
               137         137
               138         138
               139         139
               140         140
               141         141
               142         142
               143         143
               144         144
               145         145
               146         146
               147         147
               148         148
               149         149
               150         150
               151         151
               152         152
               153         153
               154         154
               155         155
               156         156
               157         157
               158         158
               159         159
               160         160
               161         161
               162         162
               163         163
               164         164
               165         165
               166         166
               167         167
               168         168
               169         169
               170         170
               171         171
               172         172
               173         173
               174         174
               175         175
               176         176
               177         177
               178         178
               179         179
               180         180
               181         181
               182         182
               183         183
               184         184
               185         185
               186         186
               187         187
               188         188
               189         189
               190         190
               191         191
               192         192
               193         193
               194         194
               195         195
               196         196
               197         197
               198         198
               199         199
               200         200
               201         201
               202         202
               203         203
               204         204
               205         205
               206         206
               207         207
               208         208
               209         209
               210         210
               211         211
               212         212
               213         213
               214         214
               215         215
               216         216
               217         217
               218         218
               219         219
               220         220
               221         221
               222         222
               223         223
               224         224
               225         225
               226         226
               227         227
               228         228
               229         229
               230         230
               231         231
               232         232
               233         233
               234         234
               235         235
               236         236
               237         237
               238         238
               239         239
               240         240
               241         241
               242         242
               243         243
               244         244
               245         245
               246         246
               247         247
               248         248
               249         249
               250         250
               251         251
               252         252
               253         253
               254         254
               255         255
               256         256
               257         257
               258         258
               259         259
               260         260
               261         261
               262         262
               263         263
               264         264
               265         265
               266         266
               267         267
               268         268
               269         269
               270         270
               271         271
               272         272
               273         273
               274         274
               275         275
               276         276
               277         277
               278         278
               279         279
               280         280
               281         281
               282         282
               283         283
               284         284
               285         285
               286         286
               287         287
               288         288
               289         289
               290         290
               291         291
               292         292
               293         293
               294         294
               295         295
               296         296
               297         297
               298         298
               299         299
               300         300
               301         301
               302         302
               303         303
               304         304
               305         305
               306         306
               307         307
               308         308
               309         309
               310         310
               311         311
               312         312
               313         313
               314         314
               315         315
               316         316
               317         317
               318         318
               319         319
               320         320
               321         321
               322         322
               323         323
               324         324
               325         325

----------------------------------------------------------------------------------------

 
 
 KPOINTS: Automatic Mesh                          

Automatic generation of k-mesh.
 Grid dimensions read from file:
 generate k-points for:    3    3    1

 Generating k-lattice:

  Cartesian coordinates                     Fractional coordinates (reciprocal lattice)
     0.018456177  0.000005026 -0.000000000     0.333333333  0.000000000  0.000000000
     0.000000000  0.018454135  0.000000000     0.000000000  0.333333333  0.000000000
     0.000000000 -0.000000000  0.016003201     0.000000000  0.000000000  1.000000000

  Length of vectors
     0.018456178  0.018454135  0.016003201

  Shift w.r.t. Gamma in fractional coordinates (k-lattice)
     0.000000000  0.000000000  0.000000000

 
 Subroutine IBZKPT returns following result:
 ===========================================
 
 Found      5 irreducible k-points:
 
 Following reciprocal coordinates:
            Coordinates               Weight
  0.000000  0.000000  0.000000      1.000000
  0.333333  0.000000  0.000000      2.000000
  0.000000  0.333333  0.000000      2.000000
  0.333333  0.333333  0.000000      2.000000
 -0.333333  0.333333  0.000000      2.000000
 
 Following cartesian coordinates:
            Coordinates               Weight
  0.000000  0.000000  0.000000      1.000000
  0.018456  0.000005  0.000000      2.000000
  0.000000  0.018454  0.000000      2.000000
  0.018456  0.018459  0.000000      2.000000
 -0.018456  0.018449  0.000000      2.000000
 


--------------------------------------------------------------------------------------------------------




 Dimension of arrays:
   k-points           NKPTS =      5   k-points in BZ     NKDIM =      5   number of bands    NBANDS=    732
   number of dos      NEDOS =    301   number of ions     NIONS =    325
   non local maximal  LDIM  =      5   non local SUM 2l+1 LMDIM =     13
   total plane-waves  NPLWV = ******
   max r-space proj   IRMAX =   3336   max aug-charges    IRDMAX=  19845
   dimension x,y,z NGX =   100 NGY =  100 NGZ =  350
   dimension x,y,z NGXF=   200 NGYF=  200 NGZF=  700
   support grid    NGXF=   200 NGYF=  200 NGZF=  700
   ions per type =             143  39  47  72  24
   NGX,Y,Z   is equivalent  to a cutoff of   9.20,  9.20,  9.31 a.u.
   NGXF,Y,Z  is equivalent  to a cutoff of  18.41, 18.41, 18.62 a.u.

 SYSTEM =  PSC                                     
 POSCAR =   H  C  N  I Pb                          

 Startparameter for this run:
   NWRITE =      2    write-flag & timer
   PREC   = normal    normal or accurate (medium, high low for compatibility)
   ISTART =      0    job   : 0-new  1-cont  2-samecut
   ICHARG =      1    charge: 1-file 2-atom 10-const
   ISPIN  =      1    spin polarized calculation?
   LNONCOLLINEAR =      F non collinear calculations
   LSORBIT =      F    spin-orbit coupling
   INIWAV =      1    electr: 0-lowe 1-rand  2-diag
   LASPH  =      F    aspherical Exc in radial PAW
 Electronic Relaxation 1
   ENCUT  =  500.0 eV  36.75 Ry    6.06 a.u.  32.93 32.93113.93*2*pi/ulx,y,z
   ENINI  =  500.0     initial cutoff
   ENAUG  =  644.9 eV  augmentation charge cutoff
   NELM   =    600;   NELMIN=  2; NELMDL=  0     # of ELM steps 
   EDIFF  = 0.1E-03   stopping-criterion for ELM
   LREAL  =      T    real-space projection
   NLSPLINE    = F    spline interpolate recip. space projectors
   LCOMPAT=      F    compatible to vasp.4.4
   GGA_COMPAT  = F    GGA compatible to vasp.4.4-vasp.4.6
   LMAXPAW     = -100 max onsite density
   LMAXMIX     =    2 max onsite mixed and CHGCAR
   VOSKOWN=      0    Vosko Wilk Nusair interpolation
   ROPT   =   -0.00050  -0.00050  -0.00050  -0.00050
   ROPT   =   -0.00050
 Ionic relaxation
   EDIFFG = 0.1E-02   stopping-criterion for IOM
   NSW    =      0    number of steps for IOM
   NBLOCK =      1;   KBLOCK =      1    inner block; outer block 
   IBRION =     -1    ionic relax: 0-MD 1-quasi-New 2-CG
   NFREE  =      0    steps in history (QN), initial steepest desc. (CG)
   ISIF   =      2    stress and relaxation
   IWAVPR =     10    prediction:  0-non 1-charg 2-wave 3-comb
   ISYM   =      0    0-nonsym 1-usesym 2-fastsym
   LCORR  =      T    Harris-Foulkes like correction to forces

   POTIM  = 0.5000    time-step for ionic-motion
   TEIN   =    0.0    initial temperature
   TEBEG  =    0.0;   TEEND  =   0.0 temperature during run
   SMASS  =  -3.00    Nose mass-parameter (am)
   estimated Nose-frequenzy (Omega)   =  0.10E-29 period in steps = 0.13E+47 mass=  -0.745E-26a.u.
   SCALEE = 1.0000    scale energy and forces
   NPACO  =    256;   APACO  = 16.0  distance and # of slots for P.C.
   PSTRESS=    0.0 pullay stress

  Mass of Ions in am
   POMASS =   1.00 12.01 14.00126.90207.20
  Ionic Valenz
   ZVAL   =   1.00  4.00  5.00  7.00  4.00
  Atomic Wigner-Seitz radii
   RWIGS  =  -1.00 -1.00 -1.00 -1.00 -1.00
  virtual crystal weights 
   VCA    =   1.00  1.00  1.00  1.00  1.00
   NELECT =    1134.0000    total number of electrons
   NUPDOWN=      -1.0000    fix difference up-down

 DOS related values:
   EMIN   =  10.00;   EMAX   =-10.00  energy-range for DOS
   EFERMI =   0.00
   ISMEAR =     0;   SIGMA  =   0.05  broadening in eV -4-tet -1-fermi 0-gaus

 Electronic relaxation 2 (details)
   IALGO  =     38    algorithm
   LDIAG  =      T    sub-space diagonalisation (order eigenvalues)
   LSUBROT=      F    optimize rotation matrix (better conditioning)
   TURBO    =      0    0=normal 1=particle mesh
   IRESTART =      0    0=no restart 2=restart with 2 vectors
   NREBOOT  =      0    no. of reboots
   NMIN     =      0    reboot dimension
   EREF     =   0.00    reference energy to select bands
   IMIX   =      4    mixing-type and parameters
     AMIX     =   0.40;   BMIX     =  0.01
     AMIX_MAG =   1.60;   BMIX_MAG =  0.01
     AMIN     =   0.01
     WC   =   100.;   INIMIX=   1;  MIXPRE=   1;  MAXMIX= -45

 Intra band minimization:
   WEIMIN = 0.0000     energy-eigenvalue tresh-hold
   EBREAK =  0.34E-07  absolut break condition
   DEPER  =   0.30     relativ break condition  

   TIME   =   0.40     timestep for ELM

  volume/ion in A,a.u.               =      62.72       423.28
  Fermi-wavevector in a.u.,A,eV,Ry     =   0.624944  1.180972  5.313816  0.390554
  Thomas-Fermi vector in A             =   1.685677
 
 Write flags
   LWAVE        =      F    write WAVECAR
   LDOWNSAMPLE  =      F    k-point downsampling of WAVECAR
   LCHARG       =      T    write CHGCAR
   LVTOT        =      T    write LOCPOT, total local potential
   LVHAR        =      F    write LOCPOT, Hartree potential only
   LELF         =      F    write electronic localiz. function (ELF)
   LORBIT       =      0    0 simple, 1 ext, 2 COOP (PROOUT), +10 PAW based schemes


 Dipole corrections
   LMONO  =      F    monopole corrections only (constant potential shift)
   LDIPOL =      T    correct potential (dipole corrections)
   IDIPOL =      3    1-x, 2-y, 3-z, 4-all directions 
   EPSILON=  1.0000000 bulk dielectric constant

 Exchange correlation treatment:
   GGA     =    --    GGA type
   LEXCH   =     8    internal setting for exchange type
   VOSKOWN=      0    Vosko Wilk Nusair interpolation
   LHFCALC =     F    Hartree Fock is set to
   LHFONE  =     F    Hartree Fock one center treatment
   AEXX    =    0.0000 exact exchange contribution

 Linear response parameters
   LEPSILON=     F    determine dielectric tensor
   LRPA    =     F    only Hartree local field effects (RPA)
   LNABLA  =     F    use nabla operator in PAW spheres
   LVEL    =     F    velocity operator in full k-point grid
   LINTERFAST=   F  fast interpolation
   KINTER  =     0    interpolate to denser k-point grid
   CSHIFT  =0.1000    complex shift for real part using Kramers Kronig
   OMEGAMAX=  -1.0    maximum frequency
   DEG_THRESHOLD= 0.2000000E-02 threshold for treating states as degnerate
   RTIME   =   -0.100 relaxation time in fs
  (WPLASMAI=    0.000 imaginary part of plasma frequency in eV, 0.658/RTIME)
   DFIELD  = 0.0000000 0.0000000 0.0000000 field for delta impulse in time
 
 Orbital magnetization related:
   ORBITALMAG=     F  switch on orbital magnetization
   LCHIMAG   =     F  perturbation theory with respect to B field
   DQ        =  0.001000  dq finite difference perturbation B field
   LLRAUG    =     F  two centre corrections for induced B field



--------------------------------------------------------------------------------------------------------


 Static calculation
 charge density and potential will be updated during run
 non-spin polarized calculation
 Variant of blocked Davidson
 Davidson routine will perform the subspace rotation
 perform sub-space diagonalisation
    after iterative eigenvector-optimisation
 modified Broyden-mixing scheme, WC =      100.0
 initial mixing is a Kerker type mixing with AMIX =  0.4000 and BMIX =      0.0100
 Hartree-type preconditioning will be used
 using additional bands           165
 real space projection scheme for non local part
[...]
     13.54561      0.00000     45.35368        -0.000981     -0.001393      0.013690
     13.54315      9.03140     45.35368        -0.003176     -0.007882     -0.012933
     14.01422     10.05760     32.45325         0.040368      0.021198     -0.175293
     12.98720      8.65179     32.78255         0.030759     -0.069790     -0.027113
     15.68037      9.05346     33.64058         0.024186      0.002675     -0.032983
     15.52122      8.70822     35.35956        -0.000810      0.006541     -0.000269
     13.44448     11.58693     34.99047        -0.000328     -0.032428     -0.021159
     14.68357     10.78791     35.97145        -0.030437     -0.076790      0.062791
     12.03808      9.88234     35.54574        -0.029910      0.001486     -0.036624
     12.29916      8.20519     35.00544        -0.051693      0.028910     -0.052517
     11.14291     10.09690     33.56266        -0.010623      0.036411     -0.092934
     12.16785     11.54480     33.41679        -0.059669     -0.240191     -0.131472
     10.94858     11.66277     31.46233        -0.035096      0.089620     -0.057499
     12.40391     10.88313     30.87096         0.092974     -0.005986     -0.012378
     14.21123      7.03225     33.10415        -0.000551      0.031421     -0.022487
     14.04764      6.72008     34.84052         0.007506     -0.025993      0.000059
     15.62818      6.63022     34.06957         0.050311     -0.034922      0.011565
     15.58755     12.57921     34.54125        -0.021943     -0.124546     -0.044372
     15.16276     11.69141     33.07930        -0.010226      0.077691     -0.128938
     16.37496     11.01071     34.20700        -0.021604      0.087853     -0.006761
     13.91539      9.54215     37.27917         0.034279      0.094682      0.022430
     13.97036      7.83426     36.79838        -0.088096      0.128865     -0.030375
     12.50009      8.52238     37.48964         0.047555     -0.000888     -0.064789
      9.70968      9.54332     31.53551         0.148542      0.070509     -0.077547
     10.36749      9.85978     29.92020        -0.012748      0.040891     -0.028630
     12.68855      8.68003     29.35987        -0.094298     -0.204235      0.222942
     10.05230      7.48808     32.53677        -0.077917     -0.022379      0.078872
     13.81927      6.47329     29.46977        -0.057582      0.030609      0.028562
     11.19690      5.27735     32.66694        -0.014786     -0.003589      0.020837
     13.10054      4.77569     31.15576         0.005650     -0.058206     -0.000370
      0.33911      4.60957     34.82240         0.071822      0.107895     -0.133789
      0.64406     13.79223     35.04564        -0.189817     -0.017566     -0.009708
      8.35787      4.09029     34.69144         0.272936     -0.222079      0.039819
      9.03775     13.65627     34.66304        -0.038736     -0.019297     -0.123028
      4.29427      9.67131     34.98646         0.000902     -0.003394     -0.003688
      4.54439      0.25938     34.82440        -0.164516     -0.001341     -0.006671
     14.03943     17.69651     34.99561         0.061546     -0.026156     -0.019554
      0.19668      4.41793     40.50660         0.320485     -0.408990      0.083760
      0.20386     13.74208     40.76391         0.425385     -0.279048     -0.098596
      8.70965      4.11114     40.89818         0.318579     -0.242908      0.006449
      9.02612     13.62604     40.53726        -0.048588     -0.058330      0.588579
      4.56991      8.95400     40.53630        -0.074517     -0.095897      0.009843
      4.52306     18.01638     40.40842        -0.161529     -0.165542      0.045510
     14.02351      8.74453     40.94557        -0.191657     -0.166833      0.112999
     13.62057     18.01259     40.56397        -0.185795     -0.104828      0.118544
      9.02897      4.51561     46.44552         0.011334      0.003316     -0.010997
      9.02651     13.54701     46.44552         0.014339      0.001959      0.037497
     18.05937      4.51561     46.44552         0.000058      0.016728      0.045485
     18.05691     13.54701     46.44552         0.008047      0.012733      0.006809
      4.51521      0.00002     46.44421         0.007510      0.004711      0.052728
      4.51275      9.03142     46.44421         0.001265     -0.003026      0.030989
     13.54561      0.00002     46.44421        -0.008324     -0.009992      0.014858
     13.54315      9.03142     46.44421        -0.020750     -0.023690      0.004884
     11.30041      8.23979     30.96544        -0.040136      0.161291     -0.162575
     12.35689      7.93142     30.09957         0.158749      0.384398     -0.409547
     10.87935      7.26139     31.86641        -0.009098     -0.186490      0.153059
     12.99431      6.69463     30.15234         0.141937     -0.206831      0.029804
     11.51918      6.02154     31.93794         0.010408     -0.040142      0.018892
     12.58716      5.73351     31.08710        -0.002267      0.121041     -0.075063
     13.21339      9.67419     33.09056        -0.200928      0.047397      0.066692
     15.00840      8.62910     34.39264         0.055499      0.008436      0.065395
     14.32243     10.93033     34.94956        -0.051800      0.033142     -0.065541
     12.77963      9.07994     35.46135         0.072515     -0.024361     -0.024021
     11.96439     10.54388     32.98082         0.260293      0.282429      0.175751
     11.52726     10.73104     31.51754        -0.162580     -0.006888      0.123355
     14.68429      7.18632     34.08081        -0.096461     -0.019150      0.008090
     15.42999     11.56789     34.13285        -0.008168     -0.067559      0.025572
     13.34066      8.73449     36.81645         0.015431     -0.211618      0.157612
     10.64810      9.60151     30.95277        -0.111371     -0.139962      0.056345
     17.94145      3.49103     35.32591        -0.256672      0.071526      0.212215
      0.58220     12.68067     35.73455        -0.108616     -0.092913      0.102484
      9.62402      3.85187     34.95530         0.174262     -0.019469      0.100204
      8.56844     12.54255     35.18052         0.004536      0.004348      0.030049
      7.74102      5.23450     34.83995         0.071792      0.446992      0.126368
      8.56412     14.85378     34.92444         0.081594     -0.164902      0.014005
     17.97782      5.80005     35.17432         0.051882      0.021167      0.051889
     17.78832     14.73877     35.08444         0.040412      0.001792      0.047264
      4.24767      8.41917     35.37975        -0.094752     -0.051066     -0.013989
      3.51299     17.59828     35.20473        -0.120358      0.121468     -0.075196
     12.75518     17.77104     35.25245        -0.220809     -0.180878      0.075741
      5.78125     18.02120     35.11981         0.361321      0.265371     -0.224775
      5.39588     10.35764     34.78901        -0.282016      0.327290     -0.201906
     14.88728      0.63603     35.07914         0.127062     -0.353205     -0.192691
      1.01112      3.48717     40.96325        -0.374435      0.439992     -0.392212
      1.17761     12.90759     41.08101        -0.615387      0.345651     -0.022686
      9.98449      3.79338     40.99250        -0.360749      0.123398     -0.057938
      9.64656     12.66646     41.18610         0.108796     -0.121763      0.026557
      3.72703      8.11042     41.08588         0.094007      0.073745      0.321556
      3.74636     17.26048     41.15057        -0.151972     -0.170447     -0.135868
     12.78363      8.34334     41.13282         0.103003      0.183171      0.025350
     12.75085     17.25929     41.19823        -0.030655     -0.058380     -0.149690
      8.21318      5.30701     41.07965         0.086340      0.416323      0.066334
      8.29454     14.56438     41.09074        -0.009831      0.019591     -0.133607
     17.48369      5.18270     41.23814        -0.051394      0.084682     -0.048485
     17.07132     13.73398     41.30239         0.001605      0.137859     -0.068969
      5.40194      0.82387     40.84322         0.137366      0.183761      0.205049
      5.34056      9.80562     41.17186         0.085704      0.078643     -0.097286
     14.42014      0.83117     41.12112         0.090819      0.144632      0.333863
     14.41055      9.99460     40.93599         0.091329      0.091873     -0.194931
      0.82731      3.68697     47.03596         0.025922     -0.033796     -0.087240
      0.82485     12.71837     47.03596         0.028796     -0.032325     -0.068799
      9.85771      3.68697     47.03596         0.023409     -0.030060     -0.056902
      9.85525     12.71837     47.03596         0.021390     -0.022537     -0.090221
      3.68432      8.20234     47.03465        -0.018055     -0.011160     -0.064764
      3.68186     17.23373     47.03465        -0.015209     -0.010795     -0.061514
     12.71472      8.20234     47.03465        -0.003065     -0.001300     -0.057479
     12.71226     17.23373     47.03465        -0.011032     -0.011823     -0.059695
      8.20068      5.34457     47.03603        -0.025886      0.021355     -0.058006
      8.19822     14.37597     47.03603        -0.022595      0.018804     -0.087698
     17.23108      5.34457     47.03603        -0.009756      0.009377     -0.089923
     17.22862     14.37597     47.03603        -0.015273      0.017457     -0.066306
      5.34365      0.82909     47.03465         0.004401      0.005242     -0.065522
      5.34119      9.86049     47.03465         0.011079      0.018281     -0.066963
     14.37405      0.82909     47.03465         0.026246      0.020071     -0.055518
     14.37159      9.86049     47.03465         0.032639      0.033109     -0.064843
     13.82248      9.57417     34.47224         0.097559      0.074525     -0.060049
      9.27684      0.31629     34.48983         0.002175     -0.049488      0.000719
      8.69632      8.93715     34.66070        -0.019614      0.055385     -0.048576
      0.19850      0.09974     34.26546         0.038354      0.006057      0.009842
      0.68282      9.16109     34.57460        -0.030456      0.011336      0.003545
      4.28071      4.36435     34.49761        -0.017587      0.000646      0.006332
      4.62532     13.82842     34.59547        -0.012336      0.010024     -0.017247
     13.32688      3.68289     34.65355        -0.008121      0.152578     -0.025993
     12.66041     14.30319     34.63644         0.009614     -0.060426     -0.065345
      0.02804     17.75033     40.82756        -0.019366      0.009243      0.037199
     18.00421      9.14425     40.91939        -0.009139     -0.010941     -0.008765
      8.98950      0.22000     40.87557         0.001112     -0.001224      0.035577
      9.18063      8.85223     40.92402         0.001019     -0.011001      0.038318
      4.69762      4.44241     40.88576        -0.000967      0.009381     -0.010258
      4.66775     13.62432     40.91068         0.028508     -0.001667     -0.008140
     13.48974      4.80716     40.89664         0.003446     -0.028966     -0.022927
     13.47596     13.53511     40.89145        -0.022317     -0.043714      0.000127
      2.44651      2.02694     37.93862        -0.030141     -0.020022      0.013849
      2.71289     10.92960     37.99588        -0.027537      0.020921      0.028881
     11.69698      1.89005     38.08372         0.017867      0.022073      0.038356
     11.12574     11.34765     38.06076         0.020975      0.059686      0.002714
      6.48134      6.99586     37.77903        -0.004288     -0.023302      0.047770
      6.77021     15.89332     37.88959        -0.032965      0.006734      0.002258
     16.07600      6.58887     38.07029         0.034669     -0.008836      0.010675
     15.69343     15.84015     37.77494        -0.001180      0.025001      0.023286
      2.20901      6.64807     38.10120        -0.027376     -0.003823     -0.035118
      2.23655     15.63724     37.95168        -0.022476      0.020599      0.023810
     10.71029      6.11008     37.56581        -0.019851     -0.007914      0.011916
     11.13740     15.74352     38.29251         0.009514     -0.025781     -0.003007
      6.98215      2.43149     37.77490        -0.012859      0.001728      0.025023
      6.95002     11.35079     38.17673         0.019525      0.005906     -0.036322
     16.01957      2.40570     38.13974        -0.022199     -0.021363      0.046284
     16.17131     11.66171     38.13424         0.079680     -0.038493     -0.101179
      0.00000      0.00000     47.17356         0.001455      0.005010      0.285192
     -0.00246      9.03140     47.17356        -0.000437      0.002410      0.403807
      9.03040      0.00000     47.17356        -0.001436     -0.003510      0.382621
      9.02794      9.03140     47.17356         0.001817      0.005252      0.415721
      4.51398      4.51570     47.17425        -0.006496     -0.003170      0.434430
      4.51152     13.54710     47.17425         0.004147     -0.001466      0.423662
     13.54438      4.51570     47.17425         0.007005      0.000455      0.428680
     13.54192     13.54710     47.17425        -0.003610     -0.005040      0.405518
      2.45192      2.06295     44.04013        -0.025750     -0.024204     -0.058086
      2.44946     11.09435     44.04013         0.018234     -0.030783     -0.049535
     11.48232      2.06295     44.04013         0.058505     -0.045571     -0.049806
     11.47986     11.09435     44.04013        -0.024052      0.006585     -0.077257
      6.57602      6.96845     44.04013        -0.038671      0.050138     -0.027165
      6.57356     15.99985     44.04013         0.012999      0.000480     -0.040530
     15.60642      6.96845     44.04013         0.083072     -0.020673     -0.024467
     15.60396     15.99985     44.04013        -0.022790      0.023163     -0.028100
      2.06108      6.57881     44.04000        -0.006612      0.008561     -0.061693
      2.05862     15.61021     44.04000         0.045786      0.038378     -0.004285
     11.09148      6.57881     44.04000        -0.017731     -0.021280     -0.017777
     11.08902     15.61021     44.04000        -0.027460     -0.002418     -0.035274
      6.96686      2.45259     44.04007        -0.071251     -0.081726     -0.043691
      6.96440     11.48399     44.04007         0.022543      0.008503     -0.047715
     15.99726      2.45259     44.04007         0.034970     -0.002652     -0.085514
     15.99481     11.48399     44.04007         0.016781      0.016371     -0.008006
      2.43163      2.08322     50.06849        -0.002141     -0.021801      0.024448
      2.42917     11.11462     50.06849         0.010868     -0.010102      0.025752
     11.46203      2.08322     50.06849         0.009270     -0.014740      0.029140
     11.45957     11.11462     50.06849         0.013844     -0.005290      0.025553
      6.59631      6.94818     50.06849        -0.013321      0.010031      0.028716
      6.59385     15.97958     50.06849        -0.010025      0.009559      0.024914
     15.62671      6.94818     50.06849        -0.005306      0.012681      0.025376
     15.62425     15.97958     50.06849        -0.001694      0.018978      0.026556
      2.08113      6.59901     50.06905        -0.013554     -0.007969      0.025264
      2.07867     15.63041     50.06905        -0.018957     -0.000809      0.025487
     11.11153      6.59901     50.06905        -0.007856     -0.010543      0.028263
     11.10907     15.63041     50.06905        -0.009651     -0.011722      0.026460
      6.94681      2.43239     50.06905         0.010792      0.006170      0.027148
      6.94435     11.46379     50.06905         0.006757      0.014048      0.025860
     15.97721      2.43239     50.06905         0.023610     -0.001677      0.026002
     15.97475     11.46379     50.06905         0.009838      0.010521      0.025682
     -0.00396     18.03618     37.77755        -0.005041     -0.015617      0.004993
      0.12199      9.11124     37.78413        -0.034473     -0.031984     -0.008246
      9.12548      0.11609     37.72311        -0.032086      0.043654     -0.024788
      9.01082      8.89078     37.78630        -0.009734     -0.021752     -0.060988
      4.48383      4.45700     37.64017        -0.006796     -0.010333      0.000256
      4.56582     13.45717     37.73713        -0.012758      0.033396     -0.025506
     13.43619      4.44220     37.65534         0.010503      0.002179     -0.003326
     13.32385     13.63577     37.68335         0.010203      0.012972     -0.034798
      0.00001      0.00001     44.04300        -0.038482     -0.123205      0.110880
     -0.00245      9.03141     44.04300        -0.032285     -0.053904      0.197410
      9.03041      0.00001     44.04300         0.036080      0.099131      0.126521
      9.02795      9.03141     44.04300        -0.019842     -0.110905      0.283202
      4.51397      4.51569     44.04275         0.116619      0.033316      0.046463
      4.51151     13.54709     44.04275        -0.046579      0.032203      0.138260
     13.54437      4.51569     44.04275        -0.097444      0.038605      0.139641
     13.54191     13.54709     44.04275        -0.001337      0.075244      0.146715
      0.00000      0.00000     50.44728        -0.000968      0.002389     -0.597750
     -0.00246      9.03140     50.44728        -0.000852     -0.002824     -0.627081
      9.03040      0.00000     50.44728         0.001774      0.006080     -0.626691
      9.02794      9.03140     50.44728         0.000687     -0.006175     -0.635555
      4.51397      4.51570     50.44728         0.010693      0.007818     -0.639466
      4.51151     13.54710     50.44728         0.007696     -0.007501     -0.633841
     13.54437      4.51570     50.44728        -0.011296      0.006346     -0.641007
     13.54191     13.54710     50.44728        -0.006665     -0.007638     -0.631256
 -----------------------------------------------------------------------------------
    total drift:                               -0.045276      0.056793      0.688990


--------------------------------------------------------------------------------------------------------



  FREE ENERGIE OF THE ION-ELECTRON SYSTEM (eV)
  ---------------------------------------------------
  free  energy   TOTEN  =     -1576.27578547 eV

  energy  without entropy=    -1576.27578547  energy(sigma->0) =    -1576.27578547
 


--------------------------------------------------------------------------------------------------------


    POTLOK:  cpu time    0.5026: real time    0.5028


--------------------------------------------------------------------------------------------------------


     LOOP+:  cpu time  265.6846: real time  266.5811
 vacuum level on the upper side and lower side of the slab         2.292         1.616
    4ORBIT:  cpu time    0.0000: real time    0.0000

 total amount of memory used by VASP MPI-rank0  8653584. kBytes
=======================================================================

   base      :      30000. kBytes
   nonlr-proj:      53622. kBytes
   fftplans  :     249280. kBytes
   grid      :     701440. kBytes
   one-center:       2636. kBytes
   wavefun   :    7616606. kBytes
 
  
  
 General timing and accounting informations for this job:
 ========================================================
  
                  Total CPU time used (sec):      477.037
                            User time (sec):      389.138
                          System time (sec):       87.899
                         Elapsed time (sec):      479.880
  
                   Maximum memory used (kb):    10308948.
                   Average memory used (kb):          N/A
  
                          Minor page faults:      3542713
                          Major page faults:           13
                 Voluntary context switches:        10629
