<?xml version="1.0" encoding="ISO-8859-1"?>
<modeling>
 <generator>
  <i name="program" type="string">vasp </i>
  <i name="version" type="string">6.2.1  </i>
  <i name="subversion" type="string">16May21 (build Nov 15 2021 14:57:28) complex                          parallel </i>
  <i name="platform" type="string">LinuxPGI </i>
  <i name="date" type="string">2023 07 25 </i>
  <i name="time" type="string">02:29:55 </i>
 </generator>
 <incar>
  <i type="string" name="SYSTEM">PSC</i>
  <i type="int" name="ISTART">     1</i>
  <i type="string" name="PREC">Normal</i>
  <i name="BMIX">      0.01000000</i>
  <i name="AMIN">      0.01000000</i>
  <i type="int" name="ICHARG">     1</i>
  <i type="int" name="NELM">   600</i>
  <i type="int" name="ISYM">     0</i>
  <i name="ENCUT">    500.00000000</i>
  <i type="string" name="LREAL">Auto</i>
  <i type="int" name="ISMEAR">     0</i>
  <i name="SIGMA">      0.05000000</i>
  <i type="logical" name="LWAVE"> F  </i>
  <i type="logical" name="LVTOT"> T  </i>
  <i type="logical" name="GGA_COMPAT"> F  </i>
  <i type="logical" name="LDIPOL"> T  </i>
  <i type="int" name="IDIPOL">     3</i>
  <i type="int" name="IVDW">    12</i>
 </incar>
 <primitive_cell>
  <structure name="primitive_cell" >
   <crystal>
    <varray name="basis" >
     <v>      18.06080055       0.00000000       0.00000000 </v>
     <v>      -0.00491865      18.06279945       0.00000000 </v>
     <v>       0.00000000       0.00000000      62.48749924 </v>
    </varray>
    <i name="volume">  20385.21054034 </i>
    <varray name="rec_basis" >
     <v>       0.05536853       0.00001508      -0.00000000 </v>
     <v>       0.00000000       0.05536240       0.00000000 </v>
     <v>       0.00000000      -0.00000000       0.01600320 </v>
    </varray>
   </crystal>
   <varray name="positions" >
    <v>       0.45268426       0.33577417       0.56434573 </v>
    <v>       0.43354960       0.82977456       0.57007490 </v>
    <v>       0.96115342       0.32859730       0.57589381 </v>
    <v>       0.94479934       0.81687919       0.57306714 </v>
    <v>       0.33342959       0.95514760       0.57221900 </v>
    <v>       0.35062162       0.55063780       0.55797903 </v>
    <v>       0.80604480       0.08798504       0.56432186 </v>
    <v>       0.01076694       0.14339184       0.55944533 </v>
    <v>       0.07142248       0.66186487       0.57002350 </v>
    <v>       0.55172560       0.15971188       0.55813873 </v>
    <v>       0.49651188       0.64380933       0.55911757 </v>
    <v>       0.36426899       0.02888761       0.55664515 </v>
    <v>       0.29409122       0.62884355       0.55290459 </v>
    <v>       0.87870959       0.02664574       0.55704037 </v>
    <v>       0.95453144       0.19252047       0.57748977 </v>
    <v>       0.99125876       0.69051196       0.58298373 </v>
    <v>       0.56636940       0.25067634       0.56724786 </v>
    <v>       0.43594667       0.69367338       0.57505111 </v>
    <v>       0.28087220       0.43944090       0.57228390 </v>
    <v>       0.20098330       0.92787745       0.57259371 </v>
    <v>       0.68229911       0.03097509       0.56992527 </v>
    <v>       0.37270671       0.29143152       0.55489224 </v>
    <v>       0.49990706       0.86917965       0.55332869 </v>
    <v>       0.01875457       0.36844346       0.55682359 </v>
    <v>       0.99446990       0.86598037       0.55414691 </v>
    <v>       0.18448689       0.44352441       0.56924276 </v>
    <v>       0.14109780       0.99055511       0.56005287 </v>
    <v>       0.67587846       0.93576402       0.56359576 </v>
    <v>       0.43088913       0.18011732       0.54879263 </v>
    <v>       0.54683365       0.75198929       0.54349542 </v>
    <v>       0.06264395       0.25180225       0.54523485 </v>
    <v>       0.08349348       0.77123806       0.55031234 </v>
    <v>       0.18437321       0.56203793       0.55681895 </v>
    <v>       0.24121073       0.06470297       0.54793119 </v>
    <v>       0.79825335       0.92541345       0.55503008 </v>
    <v>       0.48647958       0.33980895       0.66070387 </v>
    <v>       0.44916169       0.81081881       0.67358773 </v>
    <v>       0.96466094       0.28445053       0.67615160 </v>
    <v>       0.93079000       0.72418206       0.67278850 </v>
    <v>       0.30878689       0.05716312       0.66944750 </v>
    <v>       0.29794474       0.54866063       0.67507661 </v>
    <v>       0.80077800       0.05631456       0.67426920 </v>
    <v>       0.76288249       0.59731065       0.65652981 </v>
    <v>       0.08649374       0.16339124       0.64476147 </v>
    <v>       0.11703843       0.72136678       0.65117871 </v>
    <v>       0.56861118       0.15701286       0.65309913 </v>
    <v>       0.56492312       0.66444922       0.65035170 </v>
    <v>       0.17689558       0.41468966       0.64773716 </v>
    <v>       0.17240106       0.91954537       0.65105612 </v>
    <v>       0.69765406       0.40652309       0.65949134 </v>
    <v>       0.67419005       0.91982702       0.65052867 </v>
    <v>       0.06325600       0.18239931       0.67134796 </v>
    <v>       0.06007909       0.67639232       0.66934024 </v>
    <v>       0.59356635       0.24699256       0.65959573 </v>
    <v>       0.53416669       0.69470842       0.67541750 </v>
    <v>       0.19877933       0.44330229       0.67371922 </v>
    <v>       0.20710989       0.95551509       0.67486160 </v>
    <v>       0.66487992       0.49731751       0.66116074 </v>
    <v>       0.69741494       0.95662868       0.67542458 </v>
    <v>       0.39871699       0.30081077       0.65652578 </v>
    <v>       0.43476192       0.84425765       0.64789582 </v>
    <v>       0.93629123       0.32516537       0.65234202 </v>
    <v>       0.90525775       0.79476255       0.65541399 </v>
    <v>       0.32869424       0.07523489       0.64264905 </v>
    <v>       0.32872175       0.57742313       0.65008138 </v>
    <v>       0.83345660       0.07556179       0.64852913 </v>
    <v>       0.85184501       0.56553710       0.65158296 </v>
    <v>       0.00895030       0.25284440       0.63094102 </v>
    <v>       0.02288323       0.80146533       0.63976151 </v>
    <v>       0.44383882       0.18315783       0.65031757 </v>
    <v>       0.50582189       0.75532504       0.63150314 </v>
    <v>       0.24534979       0.99121817       0.62937863 </v>
    <v>       0.25715814       0.49496046       0.63128166 </v>
    <v>       0.75773315       0.99046914       0.63182065 </v>
    <v>       0.81868737       0.44136522       0.65284359 </v>
    <v>       0.44874502       0.30128397       0.76888902 </v>
    <v>       0.44874501       0.80128391       0.76888902 </v>
    <v>       0.94874497       0.30128397       0.76888902 </v>
    <v>       0.94874501       0.80128391       0.76888902 </v>
    <v>       0.30127600       0.05129450       0.76887296 </v>
    <v>       0.30127601       0.55129450       0.76887296 </v>
    <v>       0.80127594       0.05129450       0.76887296 </v>
    <v>       0.80127598       0.55129450       0.76887296 </v>
    <v>       0.07877100       0.17118050       0.74344197 </v>
    <v>       0.07877101       0.67118045       0.74344197 </v>
    <v>       0.57877100       0.17118050       0.74344197 </v>
    <v>       0.57877099       0.67118045       0.74344197 </v>
    <v>       0.17119950       0.42117448       0.74342103 </v>
    <v>       0.17119950       0.92117451       0.74342103 </v>
    <v>       0.67119951       0.42117448       0.74342103 </v>
    <v>       0.67119950       0.92117451       0.74342103 </v>
    <v>       0.05125600       0.19871499       0.76888902 </v>
    <v>       0.05125600       0.69871493       0.76888902 </v>
    <v>       0.55125603       0.19871499       0.76888902 </v>
    <v>       0.55125602       0.69871493       0.76888902 </v>
    <v>       0.19872349       0.44870397       0.76887205 </v>
    <v>       0.19872349       0.94870397       0.76887205 </v>
    <v>       0.69872352       0.44870397       0.76887205 </v>
    <v>       0.69872351       0.94870397       0.76887205 </v>
    <v>       0.42123152       0.32881747       0.74344197 </v>
    <v>       0.42123151       0.82881744       0.74344197 </v>
    <v>       0.92123147       0.32881747       0.74344197 </v>
    <v>       0.92123151       0.82881744       0.74344197 </v>
    <v>       0.32880050       0.07882500       0.74342103 </v>
    <v>       0.32880049       0.57882496       0.74342103 </v>
    <v>       0.82880048       0.07882500       0.74342103 </v>
    <v>       0.82880052       0.57882496       0.74342103 </v>
    <v>       0.00000350       0.25000148       0.72582199 </v>
    <v>       0.00000350       0.75000145       0.72582199 </v>
    <v>       0.50000351       0.25000148       0.72582199 </v>
    <v>       0.50000350       0.75000145       0.72582199 </v>
    <v>       0.25000050       0.00000000       0.72580398 </v>
    <v>       0.25000052       0.50000000       0.72580398 </v>
    <v>       0.75000050       0.00000000       0.72580398 </v>
    <v>       0.75000049       0.50000000       0.72580398 </v>
    <v>       0.77609854       0.55681276       0.51935589 </v>
    <v>       0.71921241       0.47898372       0.52462581 </v>
    <v>       0.86833552       0.50122111       0.53835701 </v>
    <v>       0.85951825       0.48210791       0.56586611 </v>
    <v>       0.74457586       0.64148016       0.55995947 </v>
    <v>       0.81317025       0.59724466       0.57565841 </v>
    <v>       0.66667977       0.54710986       0.56884559 </v>
    <v>       0.68111008       0.45425887       0.56019902 </v>
    <v>       0.61711890       0.55898855       0.53711005 </v>
    <v>       0.67389002       0.63914803       0.53477566 </v>
    <v>       0.60638247       0.64567895       0.50349795 </v>
    <v>       0.68695045       0.60251630       0.49403412 </v>
    <v>       0.78696071       0.38932202       0.52977228 </v>
    <v>       0.77789877       0.37203951       0.55755982 </v>
    <v>       0.86540926       0.36706470       0.54522215 </v>
    <v>       0.86324942       0.69641532       0.55277053 </v>
    <v>       0.83971612       0.64726441       0.52937468 </v>
    <v>       0.90682349       0.60957926       0.54742156 </v>
    <v>       0.77061831       0.52827628       0.59658612 </v>
    <v>       0.77363621       0.43372360       0.58889189 </v>
    <v>       0.69224005       0.47181928       0.59995423 </v>
    <v>       0.53775469       0.52834138       0.50466915 </v>
    <v>       0.57418118       0.54586093       0.47881904 </v>
    <v>       0.70267746       0.48054732       0.46985191 </v>
    <v>       0.55669401       0.41455806       0.52069240 </v>
    <v>       0.76525050       0.35837705       0.47161069 </v>
    <v>       0.62003529       0.29216689       0.52277558 </v>
    <v>       0.72542962       0.26439363       0.49859185 </v>
    <v>       0.01884528       0.25519667       0.55726979 </v>
    <v>       0.03586872       0.76357083       0.56084246 </v>
    <v>       0.46282456       0.22644824       0.55517403 </v>
    <v>       0.50061280       0.75604410       0.55471953 </v>
    <v>       0.23791308       0.53542699       0.55989537 </v>
    <v>       0.25162031       0.01435994       0.55730184 </v>
    <v>       0.77760939       0.97972121       0.56004170 </v>
    <v>       0.01095644       0.24458750       0.64823531 </v>
    <v>       0.01149461       0.76079483       0.65235301 </v>
    <v>       0.48230225       0.22760279       0.65450176 </v>
    <v>       0.49996825       0.75437036       0.64872588 </v>
    <v>       0.25316434       0.49571478       0.64871050 </v>
    <v>       0.25070697       0.99743034       0.64666407 </v>
    <v>       0.77659294       0.48411808       0.65526015 </v>
    <v>       0.75442268       0.99722022       0.64915340 </v>
    <v>       0.49998898       0.24999498       0.74327702 </v>
    <v>       0.49998903       0.74999496       0.74327702 </v>
    <v>       0.99998898       0.24999498       0.74327702 </v>
    <v>       0.99998903       0.74999496       0.74327702 </v>
    <v>       0.25000050       0.00000100       0.74325596 </v>
    <v>       0.25000052       0.50000100       0.74325596 </v>
    <v>       0.75000050       0.00000100       0.74325596 </v>
    <v>       0.75000049       0.50000100       0.74325596 </v>
    <v>       0.62581141       0.45617484       0.49554617 </v>
    <v>       0.68430226       0.43910273       0.48168951 </v>
    <v>       0.60248320       0.40200826       0.50996455 </v>
    <v>       0.71957682       0.37063092       0.48253401 </v>
    <v>       0.63789083       0.33336668       0.51110931 </v>
    <v>       0.69701896       0.31742103       0.49749306 </v>
    <v>       0.73175161       0.53558660       0.52955495 </v>
    <v>       0.83112311       0.47772745       0.55039237 </v>
    <v>       0.79317659       0.60512952       0.55930480 </v>
    <v>       0.70772639       0.50268746       0.56749516 </v>
    <v>       0.66260951       0.58373441       0.52779862 </v>
    <v>       0.63840919       0.59409607       0.50438158 </v>
    <v>       0.81315592       0.39785189       0.54540212 </v>
    <v>       0.85451007       0.64042605       0.54623486 </v>
    <v>       0.73878461       0.48356217       0.58918108 </v>
    <v>       0.58971442       0.53156284       0.49534334 </v>
    <v>       0.99344438       0.19327167       0.56532767 </v>
    <v>       0.03242670       0.70203242       0.57186719 </v>
    <v>       0.53292585       0.21324897       0.55939674 </v>
    <v>       0.47461102       0.69438583       0.56300091 </v>
    <v>       0.42868779       0.28979439       0.55755066 </v>
    <v>       0.47440677       0.82234112       0.55890280 </v>
    <v>       0.99549270       0.32110451       0.56290177 </v>
    <v>       0.98513551       0.81597366       0.56146331 </v>
    <v>       0.23531412       0.46610525       0.56618923 </v>
    <v>       0.19477451       0.97428306       0.56338844 </v>
    <v>       0.70650378       0.98384770       0.56415196 </v>
    <v>       0.32037095       0.99769692       0.56202934 </v>
    <v>       0.29891794       0.57342381       0.55673544 </v>
    <v>       0.82429655       0.03521241       0.56137846 </v>
    <v>       0.05603697       0.19305795       0.65554310 </v>
    <v>       0.06539734       0.71459526       0.65742770 </v>
    <v>       0.55288371       0.21001073       0.65601122 </v>
    <v>       0.53430682       0.70124578       0.65910937 </v>
    <v>       0.20648262       0.44901220       0.65750553 </v>
    <v>       0.20769081       0.95558168       0.65854083 </v>
    <v>       0.70793653       0.46190725       0.65825672 </v>
    <v>       0.70625591       0.95551595       0.65930356 </v>
    <v>       0.45483176       0.29380900       0.65740596 </v>
    <v>       0.45947590       0.80631918       0.65758343 </v>
    <v>       0.96812441       0.28692648       0.65994224 </v>
    <v>       0.94542120       0.76034616       0.66097040 </v>
    <v>       0.29911011       0.04561119       0.65362225 </v>
    <v>       0.29584686       0.54286265       0.65888160 </v>
    <v>       0.79843473       0.04601568       0.65806949 </v>
    <v>       0.79804153       0.55332499       0.65510686 </v>
    <v>       0.04586250       0.20411950       0.75272599 </v>
    <v>       0.04586250       0.70411946       0.75272599 </v>
    <v>       0.54586251       0.20411950       0.75272599 </v>
    <v>       0.54586250       0.70411946       0.75272599 </v>
    <v>       0.20411900       0.45410100       0.75270499 </v>
    <v>       0.20411899       0.95410095       0.75270499 </v>
    <v>       0.70411898       0.45410100       0.75270499 </v>
    <v>       0.70411896       0.95410095       0.75270499 </v>
    <v>       0.45414002       0.29588849       0.75272697 </v>
    <v>       0.45414001       0.79588852       0.75272697 </v>
    <v>       0.95414002       0.29588849       0.75272697 </v>
    <v>       0.95414006       0.79588852       0.75272697 </v>
    <v>       0.29588249       0.04590050       0.75270499 </v>
    <v>       0.29588248       0.54590053       0.75270499 </v>
    <v>       0.79588244       0.04590050       0.75270499 </v>
    <v>       0.79588248       0.54590053       0.75270499 </v>
    <v>       0.76547473       0.53004881       0.55166625 </v>
    <v>       0.51364973       0.01751056       0.55194774 </v>
    <v>       0.48163703       0.49478190       0.55468217 </v>
    <v>       0.01099223       0.00552200       0.54835699 </v>
    <v>       0.03794462       0.50718007       0.55330433 </v>
    <v>       0.23708268       0.24162069       0.55207221 </v>
    <v>       0.25630591       0.76557450       0.55363832 </v>
    <v>       0.73794517       0.20389383       0.55456777 </v>
    <v>       0.70120390       0.79185921       0.55429397 </v>
    <v>       0.00182035       0.98270109       0.65337165 </v>
    <v>       0.99700481       0.50624745       0.65484124 </v>
    <v>       0.49773873       0.01217995       0.65413993 </v>
    <v>       0.50845145       0.49008058       0.65491535 </v>
    <v>       0.26016745       0.24594263       0.65430305 </v>
    <v>       0.25865161       0.75427495       0.65470181 </v>
    <v>       0.74697959       0.26613609       0.65447709 </v>
    <v>       0.74634812       0.74933631       0.65439407 </v>
    <v>       0.13549005       0.11221605       0.60713932 </v>
    <v>       0.15037335       0.60508886       0.60805564 </v>
    <v>       0.64767297       0.10463796       0.60946144 </v>
    <v>       0.61618724       0.62823295       0.60909393 </v>
    <v>       0.35896767       0.38730755       0.60458546 </v>
    <v>       0.37509633       0.87989230       0.60635474 </v>
    <v>       0.89020386       0.36477579       0.60924643 </v>
    <v>       0.86916099       0.87694872       0.60452002 </v>
    <v>       0.12240991       0.36805313       0.60974110 </v>
    <v>       0.12407012       0.86571496       0.60734841 </v>
    <v>       0.59310504       0.33826873       0.60117316 </v>
    <v>       0.61689888       0.87159921       0.61280280 </v>
    <v>       0.38662824       0.13461314       0.60451929 </v>
    <v>       0.38498377       0.62840708       0.61094990 </v>
    <v>       0.88701651       0.13318537       0.61035786 </v>
    <v>       0.89555775       0.64562008       0.61026995 </v>
    <v>       0.00000000       0.00000000       0.75492797 </v>
    <v>       0.00000000       0.50000000       0.75492797 </v>
    <v>       0.50000000       0.00000000       0.75492797 </v>
    <v>       0.49999999       0.50000000       0.75492797 </v>
    <v>       0.25000050       0.25000000       0.75493902 </v>
    <v>       0.25000051       0.74999997       0.75493902 </v>
    <v>       0.75000047       0.25000000       0.75493902 </v>
    <v>       0.75000046       0.74999997       0.75493902 </v>
    <v>       0.13579050       0.11421000       0.70478299 </v>
    <v>       0.13579050       0.61420998       0.70478299 </v>
    <v>       0.63579045       0.11421000       0.70478299 </v>
    <v>       0.63579049       0.61420998       0.70478299 </v>
    <v>       0.36420952       0.38578999       0.70478299 </v>
    <v>       0.36420950       0.88578996       0.70478299 </v>
    <v>       0.86420954       0.38578999       0.70478299 </v>
    <v>       0.86420953       0.88578996       0.70478299 </v>
    <v>       0.11421799       0.36421899       0.70478098 </v>
    <v>       0.11421799       0.86421899       0.70478098 </v>
    <v>       0.61421800       0.36421899       0.70478098 </v>
    <v>       0.61421799       0.86421899       0.70478098 </v>
    <v>       0.38578201       0.13578149       0.70478202 </v>
    <v>       0.38578200       0.63578149       0.70478202 </v>
    <v>       0.88578199       0.13578149       0.70478202 </v>
    <v>       0.88578203       0.63578149       0.70478202 </v>
    <v>       0.13466700       0.11533200       0.80125603 </v>
    <v>       0.13466699       0.61533199       0.80125603 </v>
    <v>       0.63466699       0.11533200       0.80125603 </v>
    <v>       0.63466698       0.61533199       0.80125603 </v>
    <v>       0.36533300       0.38466799       0.80125603 </v>
    <v>       0.36533299       0.88466796       0.80125603 </v>
    <v>       0.86533295       0.38466799       0.80125603 </v>
    <v>       0.86533294       0.88466796       0.80125603 </v>
    <v>       0.11532850       0.36533700       0.80126500 </v>
    <v>       0.11532850       0.86533698       0.80126500 </v>
    <v>       0.61532850       0.36533700       0.80126500 </v>
    <v>       0.61532849       0.86533698       0.80126500 </v>
    <v>       0.38467151       0.13466300       0.80126500 </v>
    <v>       0.38467150       0.63466297       0.80126500 </v>
    <v>       0.88467149       0.13466300       0.80126500 </v>
    <v>       0.88467153       0.63466297       0.80126500 </v>
    <v>       0.00005272       0.99852646       0.60456172 </v>
    <v>       0.00689152       0.50442017       0.60466708 </v>
    <v>       0.50526600       0.00642691       0.60369045 </v>
    <v>       0.49905004       0.49221487       0.60470182 </v>
    <v>       0.24833028       0.24675033       0.60236322 </v>
    <v>       0.25300579       0.74502104       0.60391492 </v>
    <v>       0.74400901       0.24593062       0.60260600 </v>
    <v>       0.73792737       0.75490921       0.60305415 </v>
    <v>       0.00000050       0.00000050       0.70482896 </v>
    <v>       0.00000050       0.50000048       0.70482896 </v>
    <v>       0.50000048       0.00000050       0.70482896 </v>
    <v>       0.50000046       0.50000048       0.70482896 </v>
    <v>       0.24999999       0.24999947       0.70482499 </v>
    <v>       0.25000001       0.74999950       0.70482499 </v>
    <v>       0.74999999       0.24999947       0.70482499 </v>
    <v>       0.74999998       0.74999950       0.70482499 </v>
    <v>       0.00000000       0.00000000       0.80731797 </v>
    <v>       0.00000000       0.50000000       0.80731797 </v>
    <v>       0.50000000       0.00000000       0.80731797 </v>
    <v>       0.49999999       0.50000000       0.80731797 </v>
    <v>       0.24999999       0.25000000       0.80731797 </v>
    <v>       0.25000001       0.74999997       0.80731797 </v>
    <v>       0.74999999       0.25000000       0.80731797 </v>
    <v>       0.74999998       0.74999997       0.80731797 </v>
   </varray>
  </structure>
  <varray name="primitive_index" >
   <v type="int" >        1 </v>
   <v type="int" >        2 </v>
   <v type="int" >        3 </v>
   <v type="int" >        4 </v>
   <v type="int" >        5 </v>
   <v type="int" >        6 </v>
   <v type="int" >        7 </v>
   <v type="int" >        8 </v>
   <v type="int" >        9 </v>
   <v type="int" >       10 </v>
   <v type="int" >       11 </v>
   <v type="int" >       12 </v>
   <v type="int" >       13 </v>
   <v type="int" >       14 </v>
   <v type="int" >       15 </v>
   <v type="int" >       16 </v>
   <v type="int" >       17 </v>
   <v type="int" >       18 </v>
   <v type="int" >       19 </v>
   <v type="int" >       20 </v>
   <v type="int" >       21 </v>
   <v type="int" >       22 </v>
   <v type="int" >       23 </v>
   <v type="int" >       24 </v>
   <v type="int" >       25 </v>
   <v type="int" >       26 </v>
   <v type="int" >       27 </v>
   <v type="int" >       28 </v>
   <v type="int" >       29 </v>
   <v type="int" >       30 </v>
   <v type="int" >       31 </v>
   <v type="int" >       32 </v>
   <v type="int" >       33 </v>
   <v type="int" >       34 </v>
   <v type="int" >       35 </v>
   <v type="int" >       36 </v>
   <v type="int" >       37 </v>
   <v type="int" >       38 </v>
   <v type="int" >       39 </v>
   <v type="int" >       40 </v>
   <v type="int" >       41 </v>
   <v type="int" >       42 </v>
   <v type="int" >       43 </v>
   <v type="int" >       44 </v>
   <v type="int" >       45 </v>
   <v type="int" >       46 </v>
   <v type="int" >       47 </v>
   <v type="int" >       48 </v>
   <v type="int" >       49 </v>
   <v type="int" >       50 </v>
   <v type="int" >       51 </v>
   <v type="int" >       52 </v>
   <v type="int" >       53 </v>
   <v type="int" >       54 </v>
   <v type="int" >       55 </v>
   <v type="int" >       56 </v>
   <v type="int" >       57 </v>
   <v type="int" >       58 </v>
   <v type="int" >       59 </v>
   <v type="int" >       60 </v>
   <v type="int" >       61 </v>
   <v type="int" >       62 </v>
   <v type="int" >       63 </v>
   <v type="int" >       64 </v>
   <v type="int" >       65 </v>
   <v type="int" >       66 </v>
   <v type="int" >       67 </v>
   <v type="int" >       68 </v>
   <v type="int" >       69 </v>
   <v type="int" >       70 </v>
   <v type="int" >       71 </v>
   <v type="int" >       72 </v>
   <v type="int" >       73 </v>
   <v type="int" >       74 </v>
   <v type="int" >       75 </v>
   <v type="int" >       76 </v>
   <v type="int" >       77 </v>
   <v type="int" >       78 </v>
   <v type="int" >       79 </v>
   <v type="int" >       80 </v>
   <v type="int" >       81 </v>
   <v type="int" >       82 </v>
   <v type="int" >       83 </v>
   <v type="int" >       84 </v>
   <v type="int" >       85 </v>
   <v type="int" >       86 </v>
   <v type="int" >       87 </v>
   <v type="int" >       88 </v>
   <v type="int" >       89 </v>
   <v type="int" >       90 </v>
   <v type="int" >       91 </v>
   <v type="int" >       92 </v>
   <v type="int" >       93 </v>
   <v type="int" >       94 </v>
   <v type="int" >       95 </v>
   <v type="int" >       96 </v>
   <v type="int" >       97 </v>
   <v type="int" >       98 </v>
   <v type="int" >       99 </v>
   <v type="int" >      100 </v>
   <v type="int" >      101 </v>
   <v type="int" >      102 </v>
   <v type="int" >      103 </v>
   <v type="int" >      104 </v>
   <v type="int" >      105 </v>
   <v type="int" >      106 </v>
   <v type="int" >      107 </v>
   <v type="int" >      108 </v>
   <v type="int" >      109 </v>
   <v type="int" >      110 </v>
   <v type="int" >      111 </v>
   <v type="int" >      112 </v>
   <v type="int" >      113 </v>
   <v type="int" >      114 </v>
   <v type="int" >      115 </v>
   <v type="int" >      116 </v>
   <v type="int" >      117 </v>
   <v type="int" >      118 </v>
   <v type="int" >      119 </v>
   <v type="int" >      120 </v>
   <v type="int" >      121 </v>
   <v type="int" >      122 </v>
   <v type="int" >      123 </v>
   <v type="int" >      124 </v>
   <v type="int" >      125 </v>
   <v type="int" >      126 </v>
   <v type="int" >      127 </v>
   <v type="int" >      128 </v>
   <v type="int" >      129 </v>
   <v type="int" >      130 </v>
   <v type="int" >      131 </v>
   <v type="int" >      132 </v>
   <v type="int" >      133 </v>
   <v type="int" >      134 </v>
   <v type="int" >      135 </v>
   <v type="int" >      136 </v>
   <v type="int" >      137 </v>
   <v type="int" >      138 </v>
   <v type="int" >      139 </v>
   <v type="int" >      140 </v>
   <v type="int" >      141 </v>
   <v type="int" >      142 </v>
   <v type="int" >      143 </v>
   <v type="int" >      144 </v>
   <v type="int" >      145 </v>
   <v type="int" >      146 </v>
   <v type="int" >      147 </v>
   <v type="int" >      148 </v>
   <v type="int" >      149 </v>
   <v type="int" >      150 </v>
   <v type="int" >      151 </v>
   <v type="int" >      152 </v>
   <v type="int" >      153 </v>
   <v type="int" >      154 </v>
   <v type="int" >      155 </v>
   <v type="int" >      156 </v>
   <v type="int" >      157 </v>
   <v type="int" >      158 </v>
   <v type="int" >      159 </v>
   <v type="int" >      160 </v>
   <v type="int" >      161 </v>
   <v type="int" >      162 </v>
   <v type="int" >      163 </v>
   <v type="int" >      164 </v>
   <v type="int" >      165 </v>
   <v type="int" >      166 </v>
   <v type="int" >      167 </v>
   <v type="int" >      168 </v>
   <v type="int" >      169 </v>
   <v type="int" >      170 </v>
   <v type="int" >      171 </v>
   <v type="int" >      172 </v>
   <v type="int" >      173 </v>
   <v type="int" >      174 </v>
   <v type="int" >      175 </v>
   <v type="int" >      176 </v>
   <v type="int" >      177 </v>
   <v type="int" >      178 </v>
   <v type="int" >      179 </v>
   <v type="int" >      180 </v>
   <v type="int" >      181 </v>
   <v type="int" >      182 </v>
   <v type="int" >      183 </v>
   <v type="int" >      184 </v>
   <v type="int" >      185 </v>
   <v type="int" >      186 </v>
   <v type="int" >      187 </v>
   <v type="int" >      188 </v>
   <v type="int" >      189 </v>
   <v type="int" >      190 </v>
   <v type="int" >      191 </v>
   <v type="int" >      192 </v>
   <v type="int" >      193 </v>
   <v type="int" >      194 </v>
   <v type="int" >      195 </v>
   <v type="int" >      196 </v>
   <v type="int" >      197 </v>
   <v type="int" >      198 </v>
   <v type="int" >      199 </v>
   <v type="int" >      200 </v>
   <v type="int" >      201 </v>
   <v type="int" >      202 </v>
   <v type="int" >      203 </v>
   <v type="int" >      204 </v>
   <v type="int" >      205 </v>
   <v type="int" >      206 </v>
   <v type="int" >      207 </v>
   <v type="int" >      208 </v>
   <v type="int" >      209 </v>
   <v type="int" >      210 </v>
   <v type="int" >      211 </v>
   <v type="int" >      212 </v>
   <v type="int" >      213 </v>
   <v type="int" >      214 </v>
   <v type="int" >      215 </v>
   <v type="int" >      216 </v>
   <v type="int" >      217 </v>
   <v type="int" >      218 </v>
   <v type="int" >      219 </v>
   <v type="int" >      220 </v>
   <v type="int" >      221 </v>
   <v type="int" >      222 </v>
   <v type="int" >      223 </v>
   <v type="int" >      224 </v>
   <v type="int" >      225 </v>
   <v type="int" >      226 </v>
   <v type="int" >      227 </v>
   <v type="int" >      228 </v>
   <v type="int" >      229 </v>
   <v type="int" >      230 </v>
   <v type="int" >      231 </v>
   <v type="int" >      232 </v>
   <v type="int" >      233 </v>
   <v type="int" >      234 </v>
   <v type="int" >      235 </v>
   <v type="int" >      236 </v>
   <v type="int" >      237 </v>
   <v type="int" >      238 </v>
   <v type="int" >      239 </v>
   <v type="int" >      240 </v>
   <v type="int" >      241 </v>
   <v type="int" >      242 </v>
   <v type="int" >      243 </v>
   <v type="int" >      244 </v>
   <v type="int" >      245 </v>
   <v type="int" >      246 </v>
   <v type="int" >      247 </v>
   <v type="int" >      248 </v>
   <v type="int" >      249 </v>
   <v type="int" >      250 </v>
   <v type="int" >      251 </v>
   <v type="int" >      252 </v>
   <v type="int" >      253 </v>
   <v type="int" >      254 </v>
   <v type="int" >      255 </v>
   <v type="int" >      256 </v>
   <v type="int" >      257 </v>
   <v type="int" >      258 </v>
   <v type="int" >      259 </v>
   <v type="int" >      260 </v>
   <v type="int" >      261 </v>
   <v type="int" >      262 </v>
   <v type="int" >      263 </v>
   <v type="int" >      264 </v>
   <v type="int" >      265 </v>
   <v type="int" >      266 </v>
   <v type="int" >      267 </v>
   <v type="int" >      268 </v>
   <v type="int" >      269 </v>
   <v type="int" >      270 </v>
   <v type="int" >      271 </v>
   <v type="int" >      272 </v>
   <v type="int" >      273 </v>
   <v type="int" >      274 </v>
   <v type="int" >      275 </v>
   <v type="int" >      276 </v>
   <v type="int" >      277 </v>
   <v type="int" >      278 </v>
   <v type="int" >      279 </v>
   <v type="int" >      280 </v>
   <v type="int" >      281 </v>
   <v type="int" >      282 </v>
   <v type="int" >      283 </v>
   <v type="int" >      284 </v>
   <v type="int" >      285 </v>
   <v type="int" >      286 </v>
   <v type="int" >      287 </v>
   <v type="int" >      288 </v>
   <v type="int" >      289 </v>
   <v type="int" >      290 </v>
   <v type="int" >      291 </v>
   <v type="int" >      292 </v>
   <v type="int" >      293 </v>
   <v type="int" >      294 </v>
   <v type="int" >      295 </v>
   <v type="int" >      296 </v>
   <v type="int" >      297 </v>
   <v type="int" >      298 </v>
   <v type="int" >      299 </v>
   <v type="int" >      300 </v>
   <v type="int" >      301 </v>
   <v type="int" >      302 </v>
   <v type="int" >      303 </v>
   <v type="int" >      304 </v>
   <v type="int" >      305 </v>
   <v type="int" >      306 </v>
   <v type="int" >      307 </v>
   <v type="int" >      308 </v>
   <v type="int" >      309 </v>
   <v type="int" >      310 </v>
   <v type="int" >      311 </v>
   <v type="int" >      312 </v>
   <v type="int" >      313 </v>
   <v type="int" >      314 </v>
   <v type="int" >      315 </v>
   <v type="int" >      316 </v>
   <v type="int" >      317 </v>
   <v type="int" >      318 </v>
   <v type="int" >      319 </v>
   <v type="int" >      320 </v>
   <v type="int" >      321 </v>
   <v type="int" >      322 </v>
   <v type="int" >      323 </v>
   <v type="int" >      324 </v>
   <v type="int" >      325 </v>
  </varray>
 </primitive_cell>
 <kpoints>
  <generation param="Gamma">
   <v type="int" name="divisions">       3        3        1 </v>
   <v name="usershift">      0.00000000       0.00000000       0.00000000 </v>
   <v name="genvec1">      0.33333333       0.00000000       0.00000000 </v>
   <v name="genvec2">      0.00000000       0.33333333       0.00000000 </v>
   <v name="genvec3">      0.00000000       0.00000000       1.00000000 </v>
   <v name="shift">      0.00000000       0.00000000       0.00000000 </v>
  </generation>
  <varray name="kpointlist" >
   <v>       0.00000000       0.00000000       0.00000000 </v>
   <v>       0.33333333       0.00000000       0.00000000 </v>
   <v>       0.00000000       0.33333333       0.00000000 </v>
   <v>       0.33333333       0.33333333       0.00000000 </v>
   <v>      -0.33333333       0.33333333       0.00000000 </v>
  </varray>
  <varray name="weights" >
   <v>       0.11111111 </v>
   <v>       0.22222222 </v>
   <v>       0.22222222 </v>
   <v>       0.22222222 </v>
   <v>       0.22222222 </v>
  </varray>
 </kpoints>
 <parameters>
  <separator name="general" >
   <i type="string" name="SYSTEM">PSC</i>
   <i type="logical" name="LCOMPAT"> F  </i>
  </separator>
  <separator name="electronic" >
   <i type="string" name="PREC">normal</i>
   <i name="ENMAX">    500.00000000</i>
   <i name="ENAUG">    644.87300000</i>
   <i name="EDIFF">      0.00010000</i>
   <i type="int" name="IALGO">    38</i>
   <i type="int" name="IWAVPR">    10</i>
   <i type="int" name="NBANDS">   732</i>
   <i type="int" name="NBANDSLOW">    -1</i>
   <i type="int" name="NBANDSHIGH">    -1</i>
   <i name="NELECT">   1134.00000000</i>
   <i type="int" name="TURBO">     0</i>
   <i type="int" name="IRESTART">     0</i>
   <i type="int" name="NREBOOT">     0</i>
   <i type="int" name="NMIN">     0</i>
   <i name="EREF">      0.00000000</i>
   <separator name="electronic smearing" >
    <i type="int" name="ISMEAR">     0</i>
    <i name="SIGMA">      0.05000000</i>
    <i name="KSPACING">      0.50000000</i>
    <i type="logical" name="KGAMMA"> T  </i>
    <i type="logical" name="KBLOWUP"> T  </i>
   </separator>
   <separator name="electronic projectors" >
    <i type="logical" name="LREAL"> T  </i>
    <v name="ROPT">     -0.00050000     -0.00050000     -0.00050000     -0.00050000     -0.00050000</v>
    <i type="int" name="LMAXPAW">  -100</i>
    <i type="int" name="LMAXMIX">     2</i>
    <i type="logical" name="NLSPLINE"> F  </i>
   </separator>
   <separator name="electronic startup" >
    <i type="int" name="ISTART">     0</i>
    <i type="int" name="ICHARG">     1</i>
    <i type="int" name="INIWAV">     1</i>
   </separator>
   <separator name="electronic spin" >
    <i type="int" name="ISPIN">     1</i>
    <i type="logical" name="LNONCOLLINEAR"> F  </i>
    <v name="MAGMOM">      1.00000000      1.00000000      1.00000000      1.00000000      1.00000000      1.00000000      1.00000000      1.00000000      1.00000000      1.00000000      1.00000000      1.00000000      1.00000000      1.00000000      1.00000000      1.00000000      1.00000000      1.00000000      1.00000000      1.00000000
      1.00000000      1.00000000      1.00000000      1.00000000      1.00000000      1.00000000      1.00000000      1.00000000      1.00000000      1.00000000      1.00000000      1.00000000      1.00000000      1.00000000      1.00000000      1.00000000      1.00000000      1.00000000      1.00000000      1.00000000
      1.00000000      1.00000000      1.00000000      1.00000000      1.00000000      1.00000000      1.00000000      1.00000000      1.00000000      1.00000000      1.00000000      1.00000000      1.00000000      1.00000000      1.00000000      1.00000000      1.00000000      1.00000000      1.00000000      1.00000000
      1.00000000      1.00000000      1.00000000      1.00000000      1.00000000      1.00000000      1.00000000      1.00000000      1.00000000      1.00000000      1.00000000      1.00000000      1.00000000      1.00000000      1.00000000      1.00000000      1.00000000      1.00000000      1.00000000      1.00000000
      1.00000000      1.00000000      1.00000000      1.00000000      1.00000000      1.00000000      1.00000000      1.00000000      1.00000000      1.00000000      1.00000000      1.00000000      1.00000000      1.00000000      1.00000000      1.00000000      1.00000000      1.00000000      1.00000000      1.00000000
      1.00000000      1.00000000      1.00000000      1.00000000      1.00000000      1.00000000      1.00000000      1.00000000      1.00000000      1.00000000      1.00000000      1.00000000      1.00000000      1.00000000      1.00000000      1.00000000      1.00000000      1.00000000      1.00000000      1.00000000
      1.00000000      1.00000000      1.00000000      1.00000000      1.00000000      1.00000000      1.00000000      1.00000000      1.00000000      1.00000000      1.00000000      1.00000000      1.00000000      1.00000000      1.00000000      1.00000000      1.00000000      1.00000000      1.00000000      1.00000000
      1.00000000      1.00000000      1.00000000      1.00000000      1.00000000      1.00000000      1.00000000      1.00000000      1.00000000      1.00000000      1.00000000      1.00000000      1.00000000      1.00000000      1.00000000      1.00000000      1.00000000      1.00000000      1.00000000      1.00000000
      1.00000000      1.00000000      1.00000000      1.00000000      1.00000000      1.00000000      1.00000000      1.00000000      1.00000000      1.00000000      1.00000000      1.00000000      1.00000000      1.00000000      1.00000000      1.00000000      1.00000000      1.00000000      1.00000000      1.00000000
      1.00000000      1.00000000      1.00000000      1.00000000      1.00000000      1.00000000      1.00000000      1.00000000      1.00000000      1.00000000      1.00000000      1.00000000      1.00000000      1.00000000      1.00000000      1.00000000      1.00000000      1.00000000      1.00000000      1.00000000
      1.00000000      1.00000000      1.00000000      1.00000000      1.00000000      1.00000000      1.00000000      1.00000000      1.00000000      1.00000000      1.00000000      1.00000000      1.00000000      1.00000000      1.00000000      1.00000000      1.00000000      1.00000000      1.00000000      1.00000000
      1.00000000      1.00000000      1.00000000      1.00000000      1.00000000      1.00000000      1.00000000      1.00000000      1.00000000      1.00000000      1.00000000      1.00000000      1.00000000      1.00000000      1.00000000      1.00000000      1.00000000      1.00000000      1.00000000      1.00000000
      1.00000000      1.00000000      1.00000000      1.00000000      1.00000000      1.00000000      1.00000000      1.00000000      1.00000000      1.00000000      1.00000000      1.00000000      1.00000000      1.00000000      1.00000000      1.00000000      1.00000000      1.00000000      1.00000000      1.00000000
      1.00000000      1.00000000      1.00000000      1.00000000      1.00000000      1.00000000      1.00000000      1.00000000      1.00000000      1.00000000      1.00000000      1.00000000      1.00000000      1.00000000      1.00000000      1.00000000      1.00000000      1.00000000      1.00000000      1.00000000
      1.00000000      1.00000000      1.00000000      1.00000000      1.00000000      1.00000000      1.00000000      1.00000000      1.00000000      1.00000000      1.00000000      1.00000000      1.00000000      1.00000000      1.00000000      1.00000000      1.00000000      1.00000000      1.00000000      1.00000000
      1.00000000      1.00000000      1.00000000      1.00000000      1.00000000      1.00000000      1.00000000      1.00000000      1.00000000      1.00000000      1.00000000      1.00000000      1.00000000      1.00000000      1.00000000      1.00000000      1.00000000      1.00000000      1.00000000      1.00000000
      1.00000000      1.00000000      1.00000000      1.00000000      1.00000000</v>
    <i name="NUPDOWN">     -1.00000000</i>
    <i type="logical" name="LSORBIT"> F  </i>
    <v name="SAXIS">      0.00000000      0.00000000      1.00000000</v>
    <i type="logical" name="LSPIRAL"> F  </i>
    <v name="QSPIRAL">      0.00000000      0.00000000      0.00000000</v>
    <i type="logical" name="LZEROZ"> F  </i>
   </separator>
   <separator name="electronic exchange-correlation" >
    <i type="logical" name="LASPH"> F  </i>
    <i type="logical" name="LMETAGGA"> F  </i>
   </separator>
   <separator name="electronic convergence" >
    <i type="int" name="NELM">   600</i>
    <i type="int" name="NELMDL">     0</i>
    <i type="int" name="NELMIN">     2</i>
    <i name="ENINI">    500.00000000</i>
    <separator name="electronic convergence detail" >
     <i type="logical" name="LDIAG"> T  </i>
     <i type="logical" name="LSUBROT"> F  </i>
     <i name="WEIMIN">      0.00000000</i>
     <i name="EBREAK">      0.00000003</i>
     <i name="DEPER">      0.30000000</i>
     <i type="int" name="NRMM">     4</i>
     <i name="TIME">      0.40000000</i>
    </separator>
   </separator>
   <separator name="electronic mixer" >
    <i name="AMIX">      0.40000000</i>
    <i name="BMIX">      0.01000000</i>
    <i name="AMIN">      0.01000000</i>
    <i name="AMIX_MAG">      1.60000000</i>
    <i name="BMIX_MAG">      0.01000000</i>
    <separator name="electronic mixer details" >
     <i type="int" name="IMIX">     4</i>
     <i type="logical" name="MIXFIRST"> F  </i>
     <i type="int" name="MAXMIX">   -45</i>
     <i name="WC">    100.00000000</i>
     <i type="int" name="INIMIX">     1</i>
     <i type="int" name="MIXPRE">     1</i>
     <i type="int" name="MREMOVE">     5</i>
    </separator>
   </separator>
   <separator name="electronic dipolcorrection" >
    <i type="logical" name="LDIPOL"> T  </i>
    <i type="logical" name="LMONO"> F  </i>
    <i type="int" name="IDIPOL">     3</i>
    <i name="EPSILON">      1.00000000</i>
    <v name="DIPOL">   -100.00000000   -100.00000000   -100.00000000</v>
    <i name="EFIELD">      0.00000000</i>
   </separator>
  </separator>
  <separator name="grids" >
   <i type="int" name="NGX">   100</i>
   <i type="int" name="NGY">   100</i>
   <i type="int" name="NGZ">   350</i>
   <i type="int" name="NGXF">   200</i>
   <i type="int" name="NGYF">   200</i>
   <i type="int" name="NGZF">   700</i>
   <i type="logical" name="ADDGRID"> F  </i>
  </separator>
  <separator name="ionic" >
   <i type="int" name="NSW">     0</i>
   <i type="int" name="IBRION">    -1</i>
   <i type="int" name="MDALGO">     0</i>
   <i type="int" name="ISIF">     2</i>
   <i name="PSTRESS">      0.00000000</i>
   <i name="EDIFFG">      0.00100000</i>
   <i type="int" name="NFREE">     0</i>
   <i name="POTIM">      0.50000000</i>
   <i name="SMASS">     -3.00000000</i>
   <i name="SCALEE">      1.00000000</i>
  </separator>
  <separator name="ionic md" >
   <i name="TEBEG">      0.00010000</i>
   <i name="TEEND">      0.00010000</i>
   <i type="int" name="NBLOCK">     1</i>
   <i type="int" name="KBLOCK">     1</i>
   <i type="int" name="NPACO">   256</i>
   <i name="APACO">     16.00000000</i>
  </separator>
  <separator name="symmetry" >
   <i type="int" name="ISYM">     0</i>
   <i name="SYMPREC">      0.00001000</i>
  </separator>
  <separator name="dos" >
   <i type="int" name="LORBIT">     0</i>
   <v name="RWIGS">     -1.00000000     -1.00000000     -1.00000000     -1.00000000     -1.00000000</v>
   <i type="int" name="NEDOS">   301</i>
   <i name="EMIN">     10.00000000</i>
   <i name="EMAX">    -10.00000000</i>
   <i name="EFERMI">      0.00000000</i>
  </separator>
  <separator name="writing" >
   <i type="int" name="NWRITE">     2</i>
   <i type="logical" name="LWAVE"> F  </i>
   <i type="logical" name="LDOWNSAMPLE"> F  </i>
   <i type="logical" name="LCHARG"> T  </i>
   <i type="logical" name="LPARD"> F  </i>
   <i type="logical" name="LVTOT"> T  </i>
   <i type="logical" name="LVHAR"> F  </i>
   <i type="logical" name="LELF"> F  </i>
   <i type="logical" name="LOPTICS"> F  </i>
   <v name="STM">      0.00000000      0.00000000      0.00000000      0.00000000      0.00000000      0.00000000      0.00000000</v>
  </separator>
  <separator name="performance" >
   <i type="int" name="NPAR">     4</i>
   <i type="int" name="NSIM">     4</i>
   <i type="int" name="NBLK">    -1</i>
   <i type="logical" name="LPLANE"> T  </i>
   <i type="logical" name="LSCALAPACK"> T  </i>
   <i type="logical" name="LSCAAWARE"> F  </i>
   <i type="logical" name="LSCALU"> F  </i>
   <i type="logical" name="LASYNC"> F  </i>
   <i type="logical" name="LORBITALREAL"> F  </i>
  </separator>
  <separator name="miscellaneous" >
   <i type="int" name="IDIOT">     3</i>
   <i type="int" name="PHON_NSTRUCT">    -1</i>
   <i type="logical" name="LMUSIC"> F  </i>
   <v name="POMASS">      1.00000000     12.01100000     14.00100000    126.90400000    207.20000000</v>
   <v name="DARWINR">      0.00000000      0.00000000      0.00000000      0.00000000      0.00000000</v>
   <v name="DARWINV">      1.00000000      1.00000000      1.00000000      1.00000000      1.00000000</v>
   <i type="logical" name="LCORR"> T  </i>
  </separator>
  <i type="logical" name="GGA_COMPAT"> F  </i>
  <i type="logical" name="LBERRY"> F  </i>
  <i type="int" name="ICORELEVEL">     0</i>
  <i type="logical" name="LDAU"> F  </i>
  <i type="int" name="I_CONSTRAINED_M">     0</i>
  <separator name="electronic exchange-correlation" >
   <i type="string" name="GGA">--</i>
   <i type="int" name="VOSKOWN">     0</i>
   <i type="logical" name="LHFCALC"> F  </i>
   <i type="string" name="PRECFOCK"></i>
   <i type="logical" name="LSYMGRAD"> F  </i>
   <i type="logical" name="LHFONE"> F  </i>
   <i type="logical" name="LRHFCALC"> F  </i>
   <i type="logical" name="LTHOMAS"> F  </i>
   <i type="logical" name="LMODELHF"> F  </i>
   <i type="logical" name="LFOCKACE"> F  </i>
   <i name="ENCUT4O">     -1.00000000</i>
   <i type="int" name="EXXOEP">     0</i>
   <i type="int" name="FOURORBIT">     0</i>
   <i name="AEXX">      0.00000000</i>
   <i name="HFALPHA">      0.00000000</i>
   <i name="MCALPHA">      0.00000000</i>
   <i name="ALDAX">      1.00000000</i>
   <i name="AGGAX">      1.00000000</i>
   <i name="ALDAC">      1.00000000</i>
   <i name="AGGAC">      1.00000000</i>
   <i type="int" name="NKREDX">     1</i>
   <i type="int" name="NKREDY">     1</i>
   <i type="int" name="NKREDZ">     1</i>
   <i type="logical" name="SHIFTRED"> F  </i>
   <i type="logical" name="ODDONLY"> F  </i>
   <i type="logical" name="EVENONLY"> F  </i>
   <i type="int" name="LMAXFOCK">     0</i>
   <i type="int" name="NMAXFOCKAE">     0</i>
   <i type="logical" name="LFOCKAEDFT"> F  </i>
   <i name="HFSCREEN">      0.00000000</i>
   <i name="HFSCREENC">      0.00000000</i>
   <i type="int" name="NBANDSGWLOW">     0</i>
  </separator>
  <separator name="vdW DFT" >
   <i type="logical" name="LUSE_VDW"> F  </i>
   <i name="Zab_VDW">     -0.84910000</i>
   <i name="PARAM1">      0.12340000</i>
   <i name="PARAM2">      1.00000000</i>
   <i name="PARAM3">      0.00000000</i>
  </separator>
  <separator name="model GW" >
   <i type="int" name="MODEL_GW">     0</i>
   <i name="MODEL_EPS0">     37.63423484</i>
   <i name="MODEL_ALPHA">      1.00000000</i>
  </separator>
  <separator name="linear response parameters" >
   <i type="logical" name="LEPSILON"> F  </i>
   <i type="logical" name="LRPA"> F  </i>
   <i type="logical" name="LNABLA"> F  </i>
   <i type="logical" name="LVEL"> F  </i>
   <i type="int" name="KINTER">     0</i>
   <i name="CSHIFT">      0.10000000</i>
   <i name="OMEGAMAX">     -1.00000000</i>
   <i name="DEG_THRESHOLD">      0.00200000</i>
   <i name="RTIME">     -0.10000000</i>
   <i name="WPLASMAI">      0.00000000</i>
   <v name="DFIELD">      0.00000000      0.00000000      0.00000000</v>
   <v name="WPLASMA">      0.00000000      0.00000000      0.00000000      0.00000000      0.00000000      0.00000000      0.00000000      0.00000000      0.00000000</v>
  </separator>
  <separator name="orbital magnetization" >
   <i type="logical" name="NUCIND"> F  </i>
   <v name="MAGPOS">      0.00000000      0.00000000      0.00000000</v>
   <i type="logical" name="LNICSALL"> T  </i>
   <i type="logical" name="ORBITALMAG"> F  </i>
   <i type="logical" name="LMAGBLOCH"> F  </i>
   <i type="logical" name="LCHIMAG"> F  </i>
   <i type="logical" name="LGAUGE"> T  </i>
   <i type="int" name="MAGATOM">     0</i>
   <v name="MAGDIPOL">      0.00000000      0.00000000      0.00000000</v>
   <v name="AVECCONST">      0.00000000      0.00000000      0.00000000</v>
  </separator>
  <separator name="response functions" >
   <i type="logical" name="LFINITE_TEMPERATURE"> F  </i>
   <i type="logical" name="LADDER"> F  </i>
   <i type="logical" name="LRPAFORCE"> F  </i>
   <i type="logical" name="LFXC"> F  </i>
   <i type="logical" name="LHARTREE"> T  </i>
   <i type="int" name="IBSE">     0</i>
   <v type="int" name="KPOINT">    -1     0     0     0</v>
   <i type="logical" name="LTCTC"> F  </i>
   <i type="logical" name="LTCTE"> F  </i>
   <i type="logical" name="LTETE"> F  </i>
   <i type="logical" name="LTRIPLET"> F  </i>
   <i type="logical" name="LFXCEPS"> F  </i>
   <i type="logical" name="LFXHEG"> F  </i>
   <i type="int" name="NATURALO">     2</i>
   <i type="logical" name="LHOLEGF"> F  </i>
   <i type="logical" name="L2ORDER"> F  </i>
   <i type="logical" name="LDMP1"> F  </i>
   <i type="logical" name="LMP2LT"> F  </i>
   <i type="logical" name="LSMP2LT"> F  </i>
   <i type="logical" name="LGWLF"> F  </i>
   <i name="ENCUTGW">     -2.00000000</i>
   <i name="ENCUTGWSOFT">     -2.00000000</i>
   <i name="ENCUTLF">     -1.00000000</i>
   <i type="logical" name="LESF_SPLINES"> F  </i>
   <i type="int" name="LMAXMP2">    -1</i>
   <i name="SCISSOR">      0.00000000</i>
   <i type="int" name="NOMEGA">     0</i>
   <i type="int" name="NOMEGAR">     0</i>
   <i type="int" name="NBANDSGW">    -1</i>
   <i type="int" name="NBANDSO">    -1</i>
   <i type="int" name="NBANDSV">    -1</i>
   <i type="int" name="NELM">   600</i>
   <i type="int" name="NELMHF">     1</i>
   <i type="int" name="DIM">     3</i>
   <i type="int" name="IESPILON">     4</i>
   <i type="int" name="ANTIRES">     0</i>
   <i name="OMEGAMAX">    -30.00000000</i>
   <i name="OMEGAMIN">    -30.00000000</i>
   <i name="OMEGATL">   -200.00000000</i>
   <i type="int" name="OMEGAGRID">     0</i>
   <i name="CSHIFT">     -0.10000000</i>
   <i type="logical" name="LSELFENERGY"> F  </i>
   <i type="logical" name="LSPECTRAL"> F  </i>
   <i type="logical" name="LSPECTRALGW"> F  </i>
   <i type="logical" name="LSINGLES"> F  </i>
   <i type="logical" name="LFERMIGW"> F  </i>
   <i type="logical" name="ODDONLYGW"> F  </i>
   <i type="logical" name="EVENONLYGW"> F  </i>
   <i type="int" name="NKREDLFX">     1</i>
   <i type="int" name="NKREDLFY">     1</i>
   <i type="int" name="NKREDLFZ">     1</i>
   <i type="int" name="MAXMEM">  2800</i>
   <i type="int" name="TELESCOPE">     0</i>
   <i type="int" name="NTAUPAR">    -1</i>
   <i type="int" name="NOMEGAPAR">    -1</i>
   <i name="DAMP_NEWTON">      0.80000001</i>
   <i name="LAMBDA">      1.00000000</i>
  </separator>
  <separator name="External order field" >
   <i name="OFIELD_KAPPA">      0.00000000</i>
   <v name="OFIELD_K">      0.00000000      0.00000000      0.00000000</v>
   <i name="OFIELD_Q6_NEAR">      0.00000000</i>
   <i name="OFIELD_Q6_FAR">      0.00000000</i>
   <i name="OFIELD_A">      0.00000000</i>
  </separator>
 </parameters>
 <atominfo>
  <atoms>     325 </atoms>
  <types>       5 </types>
  <array name="atoms" >
   <dimension dim="1">ion</dimension>
   <field type="string">element</field>
   <field type="int">atomtype</field>
   <set>
    <rc><c>H </c><c>   1</c></rc>
    <rc><c>H </c><c>   1</c></rc>
    <rc><c>H </c><c>   1</c></rc>
    <rc><c>H </c><c>   1</c></rc>
    <rc><c>H </c><c>   1</c></rc>
    <rc><c>H </c><c>   1</c></rc>
    <rc><c>H </c><c>   1</c></rc>
    <rc><c>H </c><c>   1</c></rc>
    <rc><c>H </c><c>   1</c></rc>
    <rc><c>H </c><c>   1</c></rc>
    <rc><c>H </c><c>   1</c></rc>
    <rc><c>H </c><c>   1</c></rc>
    <rc><c>H </c><c>   1</c></rc>
    <rc><c>H </c><c>   1</c></rc>
    <rc><c>H </c><c>   1</c></rc>
    <rc><c>H </c><c>   1</c></rc>
    <rc><c>H </c><c>   1</c></rc>
    <rc><c>H </c><c>   1</c></rc>
    <rc><c>H </c><c>   1</c></rc>
    <rc><c>H </c><c>   1</c></rc>
    <rc><c>H </c><c>   1</c></rc>
    <rc><c>H </c><c>   1</c></rc>
    <rc><c>H </c><c>   1</c></rc>
    <rc><c>H </c><c>   1</c></rc>
    <rc><c>H </c><c>   1</c></rc>
    <rc><c>H </c><c>   1</c></rc>
    <rc><c>H </c><c>   1</c></rc>
    <rc><c>H </c><c>   1</c></rc>
    <rc><c>H </c><c>   1</c></rc>
    <rc><c>H </c><c>   1</c></rc>
    <rc><c>H </c><c>   1</c></rc>
    <rc><c>H </c><c>   1</c></rc>
    <rc><c>H </c><c>   1</c></rc>
    <rc><c>H </c><c>   1</c></rc>
    <rc><c>H </c><c>   1</c></rc>
    <rc><c>H </c><c>   1</c></rc>
    <rc><c>H </c><c>   1</c></rc>
    <rc><c>H </c><c>   1</c></rc>
    <rc><c>H </c><c>   1</c></rc>
    <rc><c>H </c><c>   1</c></rc>
    <rc><c>H </c><c>   1</c></rc>
    <rc><c>H </c><c>   1</c></rc>
    <rc><c>H </c><c>   1</c></rc>
    <rc><c>H </c><c>   1</c></rc>
    <rc><c>H </c><c>   1</c></rc>
    <rc><c>H </c><c>   1</c></rc>
    <rc><c>H </c><c>   1</c></rc>
    <rc><c>H </c><c>   1</c></rc>
    <rc><c>H </c><c>   1</c></rc>
    <rc><c>H </c><c>   1</c></rc>
    <rc><c>H </c><c>   1</c></rc>
    <rc><c>H </c><c>   1</c></rc>
    <rc><c>H </c><c>   1</c></rc>
    <rc><c>H </c><c>   1</c></rc>
    <rc><c>H </c><c>   1</c></rc>
    <rc><c>H </c><c>   1</c></rc>
    <rc><c>H </c><c>   1</c></rc>
    <rc><c>H </c><c>   1</c></rc>
    <rc><c>H </c><c>   1</c></rc>
    <rc><c>H </c><c>   1</c></rc>
    <rc><c>H </c><c>   1</c></rc>
    <rc><c>H </c><c>   1</c></rc>
    <rc><c>H </c><c>   1</c></rc>
    <rc><c>H </c><c>   1</c></rc>
    <rc><c>H </c><c>   1</c></rc>
    <rc><c>H </c><c>   1</c></rc>
    <rc><c>H </c><c>   1</c></rc>
    <rc><c>H </c><c>   1</c></rc>
    <rc><c>H </c><c>   1</c></rc>
    <rc><c>H </c><c>   1</c></rc>
    <rc><c>H </c><c>   1</c></rc>
    <rc><c>H </c><c>   1</c></rc>
    <rc><c>H </c><c>   1</c></rc>
    <rc><c>H </c><c>   1</c></rc>
    <rc><c>H </c><c>   1</c></rc>
    <rc><c>H </c><c>   1</c></rc>
    <rc><c>H </c><c>   1</c></rc>
    <rc><c>H </c><c>   1</c></rc>
    <rc><c>H </c><c>   1</c></rc>
    <rc><c>H </c><c>   1</c></rc>
    <rc><c>H </c><c>   1</c></rc>
    <rc><c>H </c><c>   1</c></rc>
    <rc><c>H </c><c>   1</c></rc>
    <rc><c>H </c><c>   1</c></rc>
    <rc><c>H </c><c>   1</c></rc>
    <rc><c>H </c><c>   1</c></rc>
    <rc><c>H </c><c>   1</c></rc>
    <rc><c>H </c><c>   1</c></rc>
    <rc><c>H </c><c>   1</c></rc>
    <rc><c>H </c><c>   1</c></rc>
    <rc><c>H </c><c>   1</c></rc>
    <rc><c>H </c><c>   1</c></rc>
    <rc><c>H </c><c>   1</c></rc>
    <rc><c>H </c><c>   1</c></rc>
    <rc><c>H </c><c>   1</c></rc>
    <rc><c>H </c><c>   1</c></rc>
    <rc><c>H </c><c>   1</c></rc>
    <rc><c>H </c><c>   1</c></rc>
    <rc><c>H </c><c>   1</c></rc>
    <rc><c>H </c><c>   1</c></rc>
    <rc><c>H </c><c>   1</c></rc>
    <rc><c>H </c><c>   1</c></rc>
    <rc><c>H </c><c>   1</c></rc>
    <rc><c>H </c><c>   1</c></rc>
    <rc><c>H </c><c>   1</c></rc>
    <rc><c>H </c><c>   1</c></rc>
    <rc><c>H </c><c>   1</c></rc>
    <rc><c>H </c><c>   1</c></rc>
    <rc><c>H </c><c>   1</c></rc>
    <rc><c>H </c><c>   1</c></rc>
    <rc><c>H </c><c>   1</c></rc>
    <rc><c>H </c><c>   1</c></rc>
    <rc><c>H </c><c>   1</c></rc>
    <rc><c>H </c><c>   1</c></rc>
    <rc><c>H </c><c>   1</c></rc>
    <rc><c>H </c><c>   1</c></rc>
    <rc><c>H </c><c>   1</c></rc>
    <rc><c>H </c><c>   1</c></rc>
    <rc><c>H </c><c>   1</c></rc>
    <rc><c>H </c><c>   1</c></rc>
    <rc><c>H </c><c>   1</c></rc>
    <rc><c>H </c><c>   1</c></rc>
    <rc><c>H </c><c>   1</c></rc>
    <rc><c>H </c><c>   1</c></rc>
    <rc><c>H </c><c>   1</c></rc>
    <rc><c>H </c><c>   1</c></rc>
    <rc><c>H </c><c>   1</c></rc>
    <rc><c>H </c><c>   1</c></rc>
    <rc><c>H </c><c>   1</c></rc>
    <rc><c>H </c><c>   1</c></rc>
    <rc><c>H </c><c>   1</c></rc>
    <rc><c>H </c><c>   1</c></rc>
    <rc><c>H </c><c>   1</c></rc>
    <rc><c>H </c><c>   1</c></rc>
    <rc><c>H </c><c>   1</c></rc>
    <rc><c>H </c><c>   1</c></rc>
    <rc><c>H </c><c>   1</c></rc>
    <rc><c>H </c><c>   1</c></rc>
    <rc><c>H </c><c>   1</c></rc>
    <rc><c>H </c><c>   1</c></rc>
    <rc><c>H </c><c>   1</c></rc>
    <rc><c>H </c><c>   1</c></rc>
    <rc><c>H </c><c>   1</c></rc>
    <rc><c>C </c><c>   2</c></rc>
    <rc><c>C </c><c>   2</c></rc>
    <rc><c>C </c><c>   2</c></rc>
    <rc><c>C </c><c>   2</c></rc>
    <rc><c>C </c><c>   2</c></rc>
    <rc><c>C </c><c>   2</c></rc>
    <rc><c>C </c><c>   2</c></rc>
    <rc><c>C </c><c>   2</c></rc>
    <rc><c>C </c><c>   2</c></rc>
    <rc><c>C </c><c>   2</c></rc>
    <rc><c>C </c><c>   2</c></rc>
    <rc><c>C </c><c>   2</c></rc>
    <rc><c>C </c><c>   2</c></rc>
    <rc><c>C </c><c>   2</c></rc>
    <rc><c>C </c><c>   2</c></rc>
    <rc><c>C </c><c>   2</c></rc>
    <rc><c>C </c><c>   2</c></rc>
    <rc><c>C </c><c>   2</c></rc>
    <rc><c>C </c><c>   2</c></rc>
    <rc><c>C </c><c>   2</c></rc>
    <rc><c>C </c><c>   2</c></rc>
    <rc><c>C </c><c>   2</c></rc>
    <rc><c>C </c><c>   2</c></rc>
    <rc><c>C </c><c>   2</c></rc>
    <rc><c>C </c><c>   2</c></rc>
    <rc><c>C </c><c>   2</c></rc>
    <rc><c>C </c><c>   2</c></rc>
    <rc><c>C </c><c>   2</c></rc>
    <rc><c>C </c><c>   2</c></rc>
    <rc><c>C </c><c>   2</c></rc>
    <rc><c>C </c><c>   2</c></rc>
    <rc><c>C </c><c>   2</c></rc>
    <rc><c>C </c><c>   2</c></rc>
    <rc><c>C </c><c>   2</c></rc>
    <rc><c>C </c><c>   2</c></rc>
    <rc><c>C </c><c>   2</c></rc>
    <rc><c>C </c><c>   2</c></rc>
    <rc><c>C </c><c>   2</c></rc>
    <rc><c>C </c><c>   2</c></rc>
    <rc><c>N </c><c>   3</c></rc>
    <rc><c>N </c><c>   3</c></rc>
    <rc><c>N </c><c>   3</c></rc>
    <rc><c>N </c><c>   3</c></rc>
    <rc><c>N </c><c>   3</c></rc>
    <rc><c>N </c><c>   3</c></rc>
    <rc><c>N </c><c>   3</c></rc>
    <rc><c>N </c><c>   3</c></rc>
    <rc><c>N </c><c>   3</c></rc>
    <rc><c>N </c><c>   3</c></rc>
    <rc><c>N </c><c>   3</c></rc>
    <rc><c>N </c><c>   3</c></rc>
    <rc><c>N </c><c>   3</c></rc>
    <rc><c>N </c><c>   3</c></rc>
    <rc><c>N </c><c>   3</c></rc>
    <rc><c>N </c><c>   3</c></rc>
    <rc><c>N </c><c>   3</c></rc>
    <rc><c>N </c><c>   3</c></rc>
    <rc><c>N </c><c>   3</c></rc>
    <rc><c>N </c><c>   3</c></rc>
    <rc><c>N </c><c>   3</c></rc>
    <rc><c>N </c><c>   3</c></rc>
    <rc><c>N </c><c>   3</c></rc>
    <rc><c>N </c><c>   3</c></rc>
    <rc><c>N </c><c>   3</c></rc>
    <rc><c>N </c><c>   3</c></rc>
    <rc><c>N </c><c>   3</c></rc>
    <rc><c>N </c><c>   3</c></rc>
    <rc><c>N </c><c>   3</c></rc>
    <rc><c>N </c><c>   3</c></rc>
    <rc><c>N </c><c>   3</c></rc>
    <rc><c>N </c><c>   3</c></rc>
    <rc><c>N </c><c>   3</c></rc>
    <rc><c>N </c><c>   3</c></rc>
    <rc><c>N </c><c>   3</c></rc>
    <rc><c>N </c><c>   3</c></rc>
    <rc><c>N </c><c>   3</c></rc>
    <rc><c>N </c><c>   3</c></rc>
    <rc><c>N </c><c>   3</c></rc>
    <rc><c>N </c><c>   3</c></rc>
    <rc><c>N </c><c>   3</c></rc>
    <rc><c>N </c><c>   3</c></rc>
    <rc><c>N </c><c>   3</c></rc>
    <rc><c>N </c><c>   3</c></rc>
    <rc><c>N </c><c>   3</c></rc>
    <rc><c>N </c><c>   3</c></rc>
    <rc><c>N </c><c>   3</c></rc>
    <rc><c>I </c><c>   4</c></rc>
    <rc><c>I </c><c>   4</c></rc>
    <rc><c>I </c><c>   4</c></rc>
    <rc><c>I </c><c>   4</c></rc>
    <rc><c>I </c><c>   4</c></rc>
    <rc><c>I </c><c>   4</c></rc>
    <rc><c>I </c><c>   4</c></rc>
    <rc><c>I </c><c>   4</c></rc>
    <rc><c>I </c><c>   4</c></rc>
    <rc><c>I </c><c>   4</c></rc>
    <rc><c>I </c><c>   4</c></rc>
    <rc><c>I </c><c>   4</c></rc>
    <rc><c>I </c><c>   4</c></rc>
    <rc><c>I </c><c>   4</c></rc>
    <rc><c>I </c><c>   4</c></rc>
    <rc><c>I </c><c>   4</c></rc>
    <rc><c>I </c><c>   4</c></rc>
    <rc><c>I </c><c>   4</c></rc>
    <rc><c>I </c><c>   4</c></rc>
    <rc><c>I </c><c>   4</c></rc>
    <rc><c>I </c><c>   4</c></rc>
    <rc><c>I </c><c>   4</c></rc>
    <rc><c>I </c><c>   4</c></rc>
    <rc><c>I </c><c>   4</c></rc>
    <rc><c>I </c><c>   4</c></rc>
    <rc><c>I </c><c>   4</c></rc>
    <rc><c>I </c><c>   4</c></rc>
    <rc><c>I </c><c>   4</c></rc>
    <rc><c>I </c><c>   4</c></rc>
    <rc><c>I </c><c>   4</c></rc>
    <rc><c>I </c><c>   4</c></rc>
    <rc><c>I </c><c>   4</c></rc>
    <rc><c>I </c><c>   4</c></rc>
    <rc><c>I </c><c>   4</c></rc>
    <rc><c>I </c><c>   4</c></rc>
    <rc><c>I </c><c>   4</c></rc>
    <rc><c>I </c><c>   4</c></rc>
    <rc><c>I </c><c>   4</c></rc>
    <rc><c>I </c><c>   4</c></rc>
    <rc><c>I </c><c>   4</c></rc>
    <rc><c>I </c><c>   4</c></rc>
    <rc><c>I </c><c>   4</c></rc>
    <rc><c>I </c><c>   4</c></rc>
    <rc><c>I </c><c>   4</c></rc>
    <rc><c>I </c><c>   4</c></rc>
    <rc><c>I </c><c>   4</c></rc>
    <rc><c>I </c><c>   4</c></rc>
    <rc><c>I </c><c>   4</c></rc>
    <rc><c>I </c><c>   4</c></rc>
    <rc><c>I </c><c>   4</c></rc>
    <rc><c>I </c><c>   4</c></rc>
    <rc><c>I </c><c>   4</c></rc>
    <rc><c>I </c><c>   4</c></rc>
    <rc><c>I </c><c>   4</c></rc>
    <rc><c>I </c><c>   4</c></rc>
    <rc><c>I </c><c>   4</c></rc>
    <rc><c>I </c><c>   4</c></rc>
    <rc><c>I </c><c>   4</c></rc>
    <rc><c>I </c><c>   4</c></rc>
    <rc><c>I </c><c>   4</c></rc>
    <rc><c>I </c><c>   4</c></rc>
    <rc><c>I </c><c>   4</c></rc>
    <rc><c>I </c><c>   4</c></rc>
    <rc><c>I </c><c>   4</c></rc>
    <rc><c>I </c><c>   4</c></rc>
    <rc><c>I </c><c>   4</c></rc>
    <rc><c>I </c><c>   4</c></rc>
    <rc><c>I </c><c>   4</c></rc>
    <rc><c>I </c><c>   4</c></rc>
    <rc><c>I </c><c>   4</c></rc>
    <rc><c>I </c><c>   4</c></rc>
    <rc><c>I </c><c>   4</c></rc>
    <rc><c>Pb</c><c>   5</c></rc>
    <rc><c>Pb</c><c>   5</c></rc>
    <rc><c>Pb</c><c>   5</c></rc>
    <rc><c>Pb</c><c>   5</c></rc>
    <rc><c>Pb</c><c>   5</c></rc>
    <rc><c>Pb</c><c>   5</c></rc>
    <rc><c>Pb</c><c>   5</c></rc>
    <rc><c>Pb</c><c>   5</c></rc>
    <rc><c>Pb</c><c>   5</c></rc>
    <rc><c>Pb</c><c>   5</c></rc>
    <rc><c>Pb</c><c>   5</c></rc>
    <rc><c>Pb</c><c>   5</c></rc>
    <rc><c>Pb</c><c>   5</c></rc>
    <rc><c>Pb</c><c>   5</c></rc>
    <rc><c>Pb</c><c>   5</c></rc>
    <rc><c>Pb</c><c>   5</c></rc>
    <rc><c>Pb</c><c>   5</c></rc>
    <rc><c>Pb</c><c>   5</c></rc>
    <rc><c>Pb</c><c>   5</c></rc>
    <rc><c>Pb</c><c>   5</c></rc>
    <rc><c>Pb</c><c>   5</c></rc>
    <rc><c>Pb</c><c>   5</c></rc>
    <rc><c>Pb</c><c>   5</c></rc>
    <rc><c>Pb</c><c>   5</c></rc>
   </set>
  </array>
  <array name="atomtypes" >
   <dimension dim="1">type</dimension>
   <field type="int">atomspertype</field>
   <field type="string">element</field>
   <field>mass</field>
   <field>valence</field>
   <field type="string">pseudopotential</field>
   <set>
    <rc><c> 143</c><c>H </c><c>      1.00000000</c><c>      1.00000000</c><c>  PAW_PBE H 15Jun2001                   </c></rc>
    <rc><c>  39</c><c>C </c><c>     12.01100000</c><c>      4.00000000</c><c>  PAW_PBE C 08Apr2002                   </c></rc>
    <rc><c>  47</c><c>N </c><c>     14.00100000</c><c>      5.00000000</c><c>  PAW_PBE N 08Apr2002                   </c></rc>
    <rc><c>  72</c><c>I </c><c>    126.90400000</c><c>      7.00000000</c><c>  PAW_PBE I 08Apr2002                   </c></rc>
    <rc><c>  24</c><c>Pb</c><c>    207.20000000</c><c>      4.00000000</c><c>  PAW_PBE Pb 08Apr2002                  </c></rc>
   </set>
  </array>
 </atominfo>
 <structure name="initialpos" >
  <crystal>
   <varray name="basis" >
    <v>      18.06080055       0.00000000       0.00000000 </v>
    <v>      -0.00491865      18.06279945       0.00000000 </v>
    <v>       0.00000000       0.00000000      62.48749924 </v>
   </varray>
   <i name="volume">  20385.21054034 </i>
   <varray name="rec_basis" >
    <v>       0.05536853       0.00001508      -0.00000000 </v>
    <v>       0.00000000       0.05536240       0.00000000 </v>
    <v>       0.00000000      -0.00000000       0.01600320 </v>
   </varray>
  </crystal>
  <varray name="positions" >
   <v>       0.45268426       0.33577417       0.56434573 </v>
   <v>       0.43354960       0.82977456       0.57007490 </v>
   <v>       0.96115342       0.32859730       0.57589381 </v>
   <v>       0.94479934       0.81687919       0.57306714 </v>
   <v>       0.33342959       0.95514760       0.57221900 </v>
   <v>       0.35062162       0.55063780       0.55797903 </v>
   <v>       0.80604480       0.08798504       0.56432186 </v>
   <v>       0.01076694       0.14339184       0.55944533 </v>
   <v>       0.07142248       0.66186487       0.57002350 </v>
   <v>       0.55172560       0.15971188       0.55813873 </v>
   <v>       0.49651188       0.64380933       0.55911757 </v>
   <v>       0.36426899       0.02888761       0.55664515 </v>
   <v>       0.29409122       0.62884355       0.55290459 </v>
   <v>       0.87870959       0.02664574       0.55704037 </v>
   <v>       0.95453144       0.19252047       0.57748977 </v>
   <v>       0.99125876       0.69051196       0.58298373 </v>
   <v>       0.56636940       0.25067634       0.56724786 </v>
   <v>       0.43594667       0.69367338       0.57505111 </v>
   <v>       0.28087220       0.43944090       0.57228390 </v>
   <v>       0.20098330       0.92787745       0.57259371 </v>
   <v>       0.68229911       0.03097509       0.56992527 </v>
   <v>       0.37270671       0.29143152       0.55489224 </v>
   <v>       0.49990706       0.86917965       0.55332869 </v>
   <v>       0.01875457       0.36844346       0.55682359 </v>
   <v>       0.99446990       0.86598037       0.55414691 </v>
   <v>       0.18448689       0.44352441       0.56924276 </v>
   <v>       0.14109780       0.99055511       0.56005287 </v>
   <v>       0.67587846       0.93576402       0.56359576 </v>
   <v>       0.43088913       0.18011732       0.54879263 </v>
   <v>       0.54683365       0.75198929       0.54349542 </v>
   <v>       0.06264395       0.25180225       0.54523485 </v>
   <v>       0.08349348       0.77123806       0.55031234 </v>
   <v>       0.18437321       0.56203793       0.55681895 </v>
   <v>       0.24121073       0.06470297       0.54793119 </v>
   <v>       0.79825335       0.92541345       0.55503008 </v>
   <v>       0.48647958       0.33980895       0.66070387 </v>
   <v>       0.44916169       0.81081881       0.67358773 </v>
   <v>       0.96466094       0.28445053       0.67615160 </v>
   <v>       0.93079000       0.72418206       0.67278850 </v>
   <v>       0.30878689       0.05716312       0.66944750 </v>
   <v>       0.29794474       0.54866063       0.67507661 </v>
   <v>       0.80077800       0.05631456       0.67426920 </v>
   <v>       0.76288249       0.59731065       0.65652981 </v>
   <v>       0.08649374       0.16339124       0.64476147 </v>
   <v>       0.11703843       0.72136678       0.65117871 </v>
   <v>       0.56861118       0.15701286       0.65309913 </v>
   <v>       0.56492312       0.66444922       0.65035170 </v>
   <v>       0.17689558       0.41468966       0.64773716 </v>
   <v>       0.17240106       0.91954537       0.65105612 </v>
   <v>       0.69765406       0.40652309       0.65949134 </v>
   <v>       0.67419005       0.91982702       0.65052867 </v>
   <v>       0.06325600       0.18239931       0.67134796 </v>
   <v>       0.06007909       0.67639232       0.66934024 </v>
   <v>       0.59356635       0.24699256       0.65959573 </v>
   <v>       0.53416669       0.69470842       0.67541750 </v>
   <v>       0.19877933       0.44330229       0.67371922 </v>
   <v>       0.20710989       0.95551509       0.67486160 </v>
   <v>       0.66487992       0.49731751       0.66116074 </v>
   <v>       0.69741494       0.95662868       0.67542458 </v>
   <v>       0.39871699       0.30081077       0.65652578 </v>
   <v>       0.43476192       0.84425765       0.64789582 </v>
   <v>       0.93629123       0.32516537       0.65234202 </v>
   <v>       0.90525775       0.79476255       0.65541399 </v>
   <v>       0.32869424       0.07523489       0.64264905 </v>
   <v>       0.32872175       0.57742313       0.65008138 </v>
   <v>       0.83345660       0.07556179       0.64852913 </v>
   <v>       0.85184501       0.56553710       0.65158296 </v>
   <v>       0.00895030       0.25284440       0.63094102 </v>
   <v>       0.02288323       0.80146533       0.63976151 </v>
   <v>       0.44383882       0.18315783       0.65031757 </v>
   <v>       0.50582189       0.75532504       0.63150314 </v>
   <v>       0.24534979       0.99121817       0.62937863 </v>
   <v>       0.25715814       0.49496046       0.63128166 </v>
   <v>       0.75773315       0.99046914       0.63182065 </v>
   <v>       0.81868737       0.44136522       0.65284359 </v>
   <v>       0.44874502       0.30128397       0.76888902 </v>
   <v>       0.44874501       0.80128391       0.76888902 </v>
   <v>       0.94874497       0.30128397       0.76888902 </v>
   <v>       0.94874501       0.80128391       0.76888902 </v>
   <v>       0.30127600       0.05129450       0.76887296 </v>
   <v>       0.30127601       0.55129450       0.76887296 </v>
   <v>       0.80127594       0.05129450       0.76887296 </v>
   <v>       0.80127598       0.55129450       0.76887296 </v>
   <v>       0.07877100       0.17118050       0.74344197 </v>
   <v>       0.07877101       0.67118045       0.74344197 </v>
   <v>       0.57877100       0.17118050       0.74344197 </v>
   <v>       0.57877099       0.67118045       0.74344197 </v>
   <v>       0.17119950       0.42117448       0.74342103 </v>
   <v>       0.17119950       0.92117451       0.74342103 </v>
   <v>       0.67119951       0.42117448       0.74342103 </v>
   <v>       0.67119950       0.92117451       0.74342103 </v>
   <v>       0.05125600       0.19871499       0.76888902 </v>
   <v>       0.05125600       0.69871493       0.76888902 </v>
   <v>       0.55125603       0.19871499       0.76888902 </v>
   <v>       0.55125602       0.69871493       0.76888902 </v>
   <v>       0.19872349       0.44870397       0.76887205 </v>
   <v>       0.19872349       0.94870397       0.76887205 </v>
   <v>       0.69872352       0.44870397       0.76887205 </v>
   <v>       0.69872351       0.94870397       0.76887205 </v>
   <v>       0.42123152       0.32881747       0.74344197 </v>
   <v>       0.42123151       0.82881744       0.74344197 </v>
   <v>       0.92123147       0.32881747       0.74344197 </v>
   <v>       0.92123151       0.82881744       0.74344197 </v>
   <v>       0.32880050       0.07882500       0.74342103 </v>
   <v>       0.32880049       0.57882496       0.74342103 </v>
   <v>       0.82880048       0.07882500       0.74342103 </v>
   <v>       0.82880052       0.57882496       0.74342103 </v>
   <v>       0.00000350       0.25000148       0.72582199 </v>
   <v>       0.00000350       0.75000145       0.72582199 </v>
   <v>       0.50000351       0.25000148       0.72582199 </v>
   <v>       0.50000350       0.75000145       0.72582199 </v>
   <v>       0.25000050       0.00000000       0.72580398 </v>
   <v>       0.25000052       0.50000000       0.72580398 </v>
   <v>       0.75000050       0.00000000       0.72580398 </v>
   <v>       0.75000049       0.50000000       0.72580398 </v>
   <v>       0.77609854       0.55681276       0.51935589 </v>
   <v>       0.71921241       0.47898372       0.52462581 </v>
   <v>       0.86833552       0.50122111       0.53835701 </v>
   <v>       0.85951825       0.48210791       0.56586611 </v>
   <v>       0.74457586       0.64148016       0.55995947 </v>
   <v>       0.81317025       0.59724466       0.57565841 </v>
   <v>       0.66667977       0.54710986       0.56884559 </v>
   <v>       0.68111008       0.45425887       0.56019902 </v>
   <v>       0.61711890       0.55898855       0.53711005 </v>
   <v>       0.67389002       0.63914803       0.53477566 </v>
   <v>       0.60638247       0.64567895       0.50349795 </v>
   <v>       0.68695045       0.60251630       0.49403412 </v>
   <v>       0.78696071       0.38932202       0.52977228 </v>
   <v>       0.77789877       0.37203951       0.55755982 </v>
   <v>       0.86540926       0.36706470       0.54522215 </v>
   <v>       0.86324942       0.69641532       0.55277053 </v>
   <v>       0.83971612       0.64726441       0.52937468 </v>
   <v>       0.90682349       0.60957926       0.54742156 </v>
   <v>       0.77061831       0.52827628       0.59658612 </v>
   <v>       0.77363621       0.43372360       0.58889189 </v>
   <v>       0.69224005       0.47181928       0.59995423 </v>
   <v>       0.53775469       0.52834138       0.50466915 </v>
   <v>       0.57418118       0.54586093       0.47881904 </v>
   <v>       0.70267746       0.48054732       0.46985191 </v>
   <v>       0.55669401       0.41455806       0.52069240 </v>
   <v>       0.76525050       0.35837705       0.47161069 </v>
   <v>       0.62003529       0.29216689       0.52277558 </v>
   <v>       0.72542962       0.26439363       0.49859185 </v>
   <v>       0.01884528       0.25519667       0.55726979 </v>
   <v>       0.03586872       0.76357083       0.56084246 </v>
   <v>       0.46282456       0.22644824       0.55517403 </v>
   <v>       0.50061280       0.75604410       0.55471953 </v>
   <v>       0.23791308       0.53542699       0.55989537 </v>
   <v>       0.25162031       0.01435994       0.55730184 </v>
   <v>       0.77760939       0.97972121       0.56004170 </v>
   <v>       0.01095644       0.24458750       0.64823531 </v>
   <v>       0.01149461       0.76079483       0.65235301 </v>
   <v>       0.48230225       0.22760279       0.65450176 </v>
   <v>       0.49996825       0.75437036       0.64872588 </v>
   <v>       0.25316434       0.49571478       0.64871050 </v>
   <v>       0.25070697       0.99743034       0.64666407 </v>
   <v>       0.77659294       0.48411808       0.65526015 </v>
   <v>       0.75442268       0.99722022       0.64915340 </v>
   <v>       0.49998898       0.24999498       0.74327702 </v>
   <v>       0.49998903       0.74999496       0.74327702 </v>
   <v>       0.99998898       0.24999498       0.74327702 </v>
   <v>       0.99998903       0.74999496       0.74327702 </v>
   <v>       0.25000050       0.00000100       0.74325596 </v>
   <v>       0.25000052       0.50000100       0.74325596 </v>
   <v>       0.75000050       0.00000100       0.74325596 </v>
   <v>       0.75000049       0.50000100       0.74325596 </v>
   <v>       0.62581141       0.45617484       0.49554617 </v>
   <v>       0.68430226       0.43910273       0.48168951 </v>
   <v>       0.60248320       0.40200826       0.50996455 </v>
   <v>       0.71957682       0.37063092       0.48253401 </v>
   <v>       0.63789083       0.33336668       0.51110931 </v>
   <v>       0.69701896       0.31742103       0.49749306 </v>
   <v>       0.73175161       0.53558660       0.52955495 </v>
   <v>       0.83112311       0.47772745       0.55039237 </v>
   <v>       0.79317659       0.60512952       0.55930480 </v>
   <v>       0.70772639       0.50268746       0.56749516 </v>
   <v>       0.66260951       0.58373441       0.52779862 </v>
   <v>       0.63840919       0.59409607       0.50438158 </v>
   <v>       0.81315592       0.39785189       0.54540212 </v>
   <v>       0.85451007       0.64042605       0.54623486 </v>
   <v>       0.73878461       0.48356217       0.58918108 </v>
   <v>       0.58971442       0.53156284       0.49534334 </v>
   <v>       0.99344438       0.19327167       0.56532767 </v>
   <v>       0.03242670       0.70203242       0.57186719 </v>
   <v>       0.53292585       0.21324897       0.55939674 </v>
   <v>       0.47461102       0.69438583       0.56300091 </v>
   <v>       0.42868779       0.28979439       0.55755066 </v>
   <v>       0.47440677       0.82234112       0.55890280 </v>
   <v>       0.99549270       0.32110451       0.56290177 </v>
   <v>       0.98513551       0.81597366       0.56146331 </v>
   <v>       0.23531412       0.46610525       0.56618923 </v>
   <v>       0.19477451       0.97428306       0.56338844 </v>
   <v>       0.70650378       0.98384770       0.56415196 </v>
   <v>       0.32037095       0.99769692       0.56202934 </v>
   <v>       0.29891794       0.57342381       0.55673544 </v>
   <v>       0.82429655       0.03521241       0.56137846 </v>
   <v>       0.05603697       0.19305795       0.65554310 </v>
   <v>       0.06539734       0.71459526       0.65742770 </v>
   <v>       0.55288371       0.21001073       0.65601122 </v>
   <v>       0.53430682       0.70124578       0.65910937 </v>
   <v>       0.20648262       0.44901220       0.65750553 </v>
   <v>       0.20769081       0.95558168       0.65854083 </v>
   <v>       0.70793653       0.46190725       0.65825672 </v>
   <v>       0.70625591       0.95551595       0.65930356 </v>
   <v>       0.45483176       0.29380900       0.65740596 </v>
   <v>       0.45947590       0.80631918       0.65758343 </v>
   <v>       0.96812441       0.28692648       0.65994224 </v>
   <v>       0.94542120       0.76034616       0.66097040 </v>
   <v>       0.29911011       0.04561119       0.65362225 </v>
   <v>       0.29584686       0.54286265       0.65888160 </v>
   <v>       0.79843473       0.04601568       0.65806949 </v>
   <v>       0.79804153       0.55332499       0.65510686 </v>
   <v>       0.04586250       0.20411950       0.75272599 </v>
   <v>       0.04586250       0.70411946       0.75272599 </v>
   <v>       0.54586251       0.20411950       0.75272599 </v>
   <v>       0.54586250       0.70411946       0.75272599 </v>
   <v>       0.20411900       0.45410100       0.75270499 </v>
   <v>       0.20411899       0.95410095       0.75270499 </v>
   <v>       0.70411898       0.45410100       0.75270499 </v>
   <v>       0.70411896       0.95410095       0.75270499 </v>
   <v>       0.45414002       0.29588849       0.75272697 </v>
   <v>       0.45414001       0.79588852       0.75272697 </v>
   <v>       0.95414002       0.29588849       0.75272697 </v>
[...]
   <v>       0.55172560       0.15971188       0.55813873 </v>
   <v>       0.49651188       0.64380933       0.55911757 </v>
   <v>       0.36426899       0.02888761       0.55664515 </v>
   <v>       0.29409122       0.62884355       0.55290459 </v>
   <v>       0.87870959       0.02664574       0.55704037 </v>
   <v>       0.95453144       0.19252047       0.57748977 </v>
   <v>       0.99125876       0.69051196       0.58298373 </v>
   <v>       0.56636940       0.25067634       0.56724786 </v>
   <v>       0.43594667       0.69367338       0.57505111 </v>
   <v>       0.28087220       0.43944090       0.57228390 </v>
   <v>       0.20098330       0.92787745       0.57259371 </v>
   <v>       0.68229911       0.03097509       0.56992527 </v>
   <v>       0.37270671       0.29143152       0.55489224 </v>
   <v>       0.49990706       0.86917965       0.55332869 </v>
   <v>       0.01875457       0.36844346       0.55682359 </v>
   <v>       0.99446990       0.86598037       0.55414691 </v>
   <v>       0.18448689       0.44352441       0.56924276 </v>
   <v>       0.14109780       0.99055511       0.56005287 </v>
   <v>       0.67587846       0.93576402       0.56359576 </v>
   <v>       0.43088913       0.18011732       0.54879263 </v>
   <v>       0.54683365       0.75198929       0.54349542 </v>
   <v>       0.06264395       0.25180225       0.54523485 </v>
   <v>       0.08349348       0.77123806       0.55031234 </v>
   <v>       0.18437321       0.56203793       0.55681895 </v>
   <v>       0.24121073       0.06470297       0.54793119 </v>
   <v>       0.79825335       0.92541345       0.55503008 </v>
   <v>       0.48647958       0.33980895       0.66070387 </v>
   <v>       0.44916169       0.81081881       0.67358773 </v>
   <v>       0.96466094       0.28445053       0.67615160 </v>
   <v>       0.93079000       0.72418206       0.67278850 </v>
   <v>       0.30878689       0.05716312       0.66944750 </v>
   <v>       0.29794474       0.54866063       0.67507661 </v>
   <v>       0.80077800       0.05631456       0.67426920 </v>
   <v>       0.76288249       0.59731065       0.65652981 </v>
   <v>       0.08649374       0.16339124       0.64476147 </v>
   <v>       0.11703843       0.72136678       0.65117871 </v>
   <v>       0.56861118       0.15701286       0.65309913 </v>
   <v>       0.56492312       0.66444922       0.65035170 </v>
   <v>       0.17689558       0.41468966       0.64773716 </v>
   <v>       0.17240106       0.91954537       0.65105612 </v>
   <v>       0.69765406       0.40652309       0.65949134 </v>
   <v>       0.67419005       0.91982702       0.65052867 </v>
   <v>       0.06325600       0.18239931       0.67134796 </v>
   <v>       0.06007909       0.67639232       0.66934024 </v>
   <v>       0.59356635       0.24699256       0.65959573 </v>
   <v>       0.53416669       0.69470842       0.67541750 </v>
   <v>       0.19877933       0.44330229       0.67371922 </v>
   <v>       0.20710989       0.95551509       0.67486160 </v>
   <v>       0.66487992       0.49731751       0.66116074 </v>
   <v>       0.69741494       0.95662868       0.67542458 </v>
   <v>       0.39871699       0.30081077       0.65652578 </v>
   <v>       0.43476192       0.84425765       0.64789582 </v>
   <v>       0.93629123       0.32516537       0.65234202 </v>
   <v>       0.90525775       0.79476255       0.65541399 </v>
   <v>       0.32869424       0.07523489       0.64264905 </v>
   <v>       0.32872175       0.57742313       0.65008138 </v>
   <v>       0.83345660       0.07556179       0.64852913 </v>
   <v>       0.85184501       0.56553710       0.65158296 </v>
   <v>       0.00895030       0.25284440       0.63094102 </v>
   <v>       0.02288323       0.80146533       0.63976151 </v>
   <v>       0.44383882       0.18315783       0.65031757 </v>
   <v>       0.50582189       0.75532504       0.63150314 </v>
   <v>       0.24534979       0.99121817       0.62937863 </v>
   <v>       0.25715814       0.49496046       0.63128166 </v>
   <v>       0.75773315       0.99046914       0.63182065 </v>
   <v>       0.81868737       0.44136522       0.65284359 </v>
   <v>       0.44874502       0.30128397       0.76888902 </v>
   <v>       0.44874501       0.80128391       0.76888902 </v>
   <v>       0.94874497       0.30128397       0.76888902 </v>
   <v>       0.94874501       0.80128391       0.76888902 </v>
   <v>       0.30127600       0.05129450       0.76887296 </v>
   <v>       0.30127601       0.55129450       0.76887296 </v>
   <v>       0.80127594       0.05129450       0.76887296 </v>
   <v>       0.80127598       0.55129450       0.76887296 </v>
   <v>       0.07877100       0.17118050       0.74344197 </v>
   <v>       0.07877101       0.67118045       0.74344197 </v>
   <v>       0.57877100       0.17118050       0.74344197 </v>
   <v>       0.57877099       0.67118045       0.74344197 </v>
   <v>       0.17119950       0.42117448       0.74342103 </v>
   <v>       0.17119950       0.92117451       0.74342103 </v>
   <v>       0.67119951       0.42117448       0.74342103 </v>
   <v>       0.67119950       0.92117451       0.74342103 </v>
   <v>       0.05125600       0.19871499       0.76888902 </v>
   <v>       0.05125600       0.69871493       0.76888902 </v>
   <v>       0.55125603       0.19871499       0.76888902 </v>
   <v>       0.55125602       0.69871493       0.76888902 </v>
   <v>       0.19872349       0.44870397       0.76887205 </v>
   <v>       0.19872349       0.94870397       0.76887205 </v>
   <v>       0.69872352       0.44870397       0.76887205 </v>
   <v>       0.69872351       0.94870397       0.76887205 </v>
   <v>       0.42123152       0.32881747       0.74344197 </v>
   <v>       0.42123151       0.82881744       0.74344197 </v>
   <v>       0.92123147       0.32881747       0.74344197 </v>
   <v>       0.92123151       0.82881744       0.74344197 </v>
   <v>       0.32880050       0.07882500       0.74342103 </v>
   <v>       0.32880049       0.57882496       0.74342103 </v>
   <v>       0.82880048       0.07882500       0.74342103 </v>
   <v>       0.82880052       0.57882496       0.74342103 </v>
   <v>       0.00000350       0.25000148       0.72582199 </v>
   <v>       0.00000350       0.75000145       0.72582199 </v>
   <v>       0.50000351       0.25000148       0.72582199 </v>
   <v>       0.50000350       0.75000145       0.72582199 </v>
   <v>       0.25000050       0.00000000       0.72580398 </v>
   <v>       0.25000052       0.50000000       0.72580398 </v>
   <v>       0.75000050       0.00000000       0.72580398 </v>
   <v>       0.75000049       0.50000000       0.72580398 </v>
   <v>       0.77609854       0.55681276       0.51935589 </v>
   <v>       0.71921241       0.47898372       0.52462581 </v>
   <v>       0.86833552       0.50122111       0.53835701 </v>
   <v>       0.85951825       0.48210791       0.56586611 </v>
   <v>       0.74457586       0.64148016       0.55995947 </v>
   <v>       0.81317025       0.59724466       0.57565841 </v>
   <v>       0.66667977       0.54710986       0.56884559 </v>
   <v>       0.68111008       0.45425887       0.56019902 </v>
   <v>       0.61711890       0.55898855       0.53711005 </v>
   <v>       0.67389002       0.63914803       0.53477566 </v>
   <v>       0.60638247       0.64567895       0.50349795 </v>
   <v>       0.68695045       0.60251630       0.49403412 </v>
   <v>       0.78696071       0.38932202       0.52977228 </v>
   <v>       0.77789877       0.37203951       0.55755982 </v>
   <v>       0.86540926       0.36706470       0.54522215 </v>
   <v>       0.86324942       0.69641532       0.55277053 </v>
   <v>       0.83971612       0.64726441       0.52937468 </v>
   <v>       0.90682349       0.60957926       0.54742156 </v>
   <v>       0.77061831       0.52827628       0.59658612 </v>
   <v>       0.77363621       0.43372360       0.58889189 </v>
   <v>       0.69224005       0.47181928       0.59995423 </v>
   <v>       0.53775469       0.52834138       0.50466915 </v>
   <v>       0.57418118       0.54586093       0.47881904 </v>
   <v>       0.70267746       0.48054732       0.46985191 </v>
   <v>       0.55669401       0.41455806       0.52069240 </v>
   <v>       0.76525050       0.35837705       0.47161069 </v>
   <v>       0.62003529       0.29216689       0.52277558 </v>
   <v>       0.72542962       0.26439363       0.49859185 </v>
   <v>       0.01884528       0.25519667       0.55726979 </v>
   <v>       0.03586872       0.76357083       0.56084246 </v>
   <v>       0.46282456       0.22644824       0.55517403 </v>
   <v>       0.50061280       0.75604410       0.55471953 </v>
   <v>       0.23791308       0.53542699       0.55989537 </v>
   <v>       0.25162031       0.01435994       0.55730184 </v>
   <v>       0.77760939       0.97972121       0.56004170 </v>
   <v>       0.01095644       0.24458750       0.64823531 </v>
   <v>       0.01149461       0.76079483       0.65235301 </v>
   <v>       0.48230225       0.22760279       0.65450176 </v>
   <v>       0.49996825       0.75437036       0.64872588 </v>
   <v>       0.25316434       0.49571478       0.64871050 </v>
   <v>       0.25070697       0.99743034       0.64666407 </v>
   <v>       0.77659294       0.48411808       0.65526015 </v>
   <v>       0.75442268       0.99722022       0.64915340 </v>
   <v>       0.49998898       0.24999498       0.74327702 </v>
   <v>       0.49998903       0.74999496       0.74327702 </v>
   <v>       0.99998898       0.24999498       0.74327702 </v>
   <v>       0.99998903       0.74999496       0.74327702 </v>
   <v>       0.25000050       0.00000100       0.74325596 </v>
   <v>       0.25000052       0.50000100       0.74325596 </v>
   <v>       0.75000050       0.00000100       0.74325596 </v>
   <v>       0.75000049       0.50000100       0.74325596 </v>
   <v>       0.62581141       0.45617484       0.49554617 </v>
   <v>       0.68430226       0.43910273       0.48168951 </v>
   <v>       0.60248320       0.40200826       0.50996455 </v>
   <v>       0.71957682       0.37063092       0.48253401 </v>
   <v>       0.63789083       0.33336668       0.51110931 </v>
   <v>       0.69701896       0.31742103       0.49749306 </v>
   <v>       0.73175161       0.53558660       0.52955495 </v>
   <v>       0.83112311       0.47772745       0.55039237 </v>
   <v>       0.79317659       0.60512952       0.55930480 </v>
   <v>       0.70772639       0.50268746       0.56749516 </v>
   <v>       0.66260951       0.58373441       0.52779862 </v>
   <v>       0.63840919       0.59409607       0.50438158 </v>
   <v>       0.81315592       0.39785189       0.54540212 </v>
   <v>       0.85451007       0.64042605       0.54623486 </v>
   <v>       0.73878461       0.48356217       0.58918108 </v>
   <v>       0.58971442       0.53156284       0.49534334 </v>
   <v>       0.99344438       0.19327167       0.56532767 </v>
   <v>       0.03242670       0.70203242       0.57186719 </v>
   <v>       0.53292585       0.21324897       0.55939674 </v>
   <v>       0.47461102       0.69438583       0.56300091 </v>
   <v>       0.42868779       0.28979439       0.55755066 </v>
   <v>       0.47440677       0.82234112       0.55890280 </v>
   <v>       0.99549270       0.32110451       0.56290177 </v>
   <v>       0.98513551       0.81597366       0.56146331 </v>
   <v>       0.23531412       0.46610525       0.56618923 </v>
   <v>       0.19477451       0.97428306       0.56338844 </v>
   <v>       0.70650378       0.98384770       0.56415196 </v>
   <v>       0.32037095       0.99769692       0.56202934 </v>
   <v>       0.29891794       0.57342381       0.55673544 </v>
   <v>       0.82429655       0.03521241       0.56137846 </v>
   <v>       0.05603697       0.19305795       0.65554310 </v>
   <v>       0.06539734       0.71459526       0.65742770 </v>
   <v>       0.55288371       0.21001073       0.65601122 </v>
   <v>       0.53430682       0.70124578       0.65910937 </v>
   <v>       0.20648262       0.44901220       0.65750553 </v>
   <v>       0.20769081       0.95558168       0.65854083 </v>
   <v>       0.70793653       0.46190725       0.65825672 </v>
   <v>       0.70625591       0.95551595       0.65930356 </v>
   <v>       0.45483176       0.29380900       0.65740596 </v>
   <v>       0.45947590       0.80631918       0.65758343 </v>
   <v>       0.96812441       0.28692648       0.65994224 </v>
   <v>       0.94542120       0.76034616       0.66097040 </v>
   <v>       0.29911011       0.04561119       0.65362225 </v>
   <v>       0.29584686       0.54286265       0.65888160 </v>
   <v>       0.79843473       0.04601568       0.65806949 </v>
   <v>       0.79804153       0.55332499       0.65510686 </v>
   <v>       0.04586250       0.20411950       0.75272599 </v>
   <v>       0.04586250       0.70411946       0.75272599 </v>
   <v>       0.54586251       0.20411950       0.75272599 </v>
   <v>       0.54586250       0.70411946       0.75272599 </v>
   <v>       0.20411900       0.45410100       0.75270499 </v>
   <v>       0.20411899       0.95410095       0.75270499 </v>
   <v>       0.70411898       0.45410100       0.75270499 </v>
   <v>       0.70411896       0.95410095       0.75270499 </v>
   <v>       0.45414002       0.29588849       0.75272697 </v>
   <v>       0.45414001       0.79588852       0.75272697 </v>
   <v>       0.95414002       0.29588849       0.75272697 </v>
   <v>       0.95414006       0.79588852       0.75272697 </v>
   <v>       0.29588249       0.04590050       0.75270499 </v>
   <v>       0.29588248       0.54590053       0.75270499 </v>
   <v>       0.79588244       0.04590050       0.75270499 </v>
   <v>       0.79588248       0.54590053       0.75270499 </v>
   <v>       0.76547473       0.53004881       0.55166625 </v>
   <v>       0.51364973       0.01751056       0.55194774 </v>
   <v>       0.48163703       0.49478190       0.55468217 </v>
   <v>       0.01099223       0.00552200       0.54835699 </v>
   <v>       0.03794462       0.50718007       0.55330433 </v>
   <v>       0.23708268       0.24162069       0.55207221 </v>
   <v>       0.25630591       0.76557450       0.55363832 </v>
   <v>       0.73794517       0.20389383       0.55456777 </v>
   <v>       0.70120390       0.79185921       0.55429397 </v>
   <v>       0.00182035       0.98270109       0.65337165 </v>
   <v>       0.99700481       0.50624745       0.65484124 </v>
   <v>       0.49773873       0.01217995       0.65413993 </v>
   <v>       0.50845145       0.49008058       0.65491535 </v>
   <v>       0.26016745       0.24594263       0.65430305 </v>
   <v>       0.25865161       0.75427495       0.65470181 </v>
   <v>       0.74697959       0.26613609       0.65447709 </v>
   <v>       0.74634812       0.74933631       0.65439407 </v>
   <v>       0.13549005       0.11221605       0.60713932 </v>
   <v>       0.15037335       0.60508886       0.60805564 </v>
   <v>       0.64767297       0.10463796       0.60946144 </v>
   <v>       0.61618724       0.62823295       0.60909393 </v>
   <v>       0.35896767       0.38730755       0.60458546 </v>
   <v>       0.37509633       0.87989230       0.60635474 </v>
   <v>       0.89020386       0.36477579       0.60924643 </v>
   <v>       0.86916099       0.87694872       0.60452002 </v>
   <v>       0.12240991       0.36805313       0.60974110 </v>
   <v>       0.12407012       0.86571496       0.60734841 </v>
   <v>       0.59310504       0.33826873       0.60117316 </v>
   <v>       0.61689888       0.87159921       0.61280280 </v>
   <v>       0.38662824       0.13461314       0.60451929 </v>
   <v>       0.38498377       0.62840708       0.61094990 </v>
   <v>       0.88701651       0.13318537       0.61035786 </v>
   <v>       0.89555775       0.64562008       0.61026995 </v>
   <v>       0.00000000       0.00000000       0.75492797 </v>
   <v>       0.00000000       0.50000000       0.75492797 </v>
   <v>       0.50000000       0.00000000       0.75492797 </v>
   <v>       0.49999999       0.50000000       0.75492797 </v>
   <v>       0.25000050       0.25000000       0.75493902 </v>
   <v>       0.25000051       0.74999997       0.75493902 </v>
   <v>       0.75000047       0.25000000       0.75493902 </v>
   <v>       0.75000046       0.74999997       0.75493902 </v>
   <v>       0.13579050       0.11421000       0.70478299 </v>
   <v>       0.13579050       0.61420998       0.70478299 </v>
   <v>       0.63579045       0.11421000       0.70478299 </v>
   <v>       0.63579049       0.61420998       0.70478299 </v>
   <v>       0.36420952       0.38578999       0.70478299 </v>
   <v>       0.36420950       0.88578996       0.70478299 </v>
   <v>       0.86420954       0.38578999       0.70478299 </v>
   <v>       0.86420953       0.88578996       0.70478299 </v>
   <v>       0.11421799       0.36421899       0.70478098 </v>
   <v>       0.11421799       0.86421899       0.70478098 </v>
   <v>       0.61421800       0.36421899       0.70478098 </v>
   <v>       0.61421799       0.86421899       0.70478098 </v>
   <v>       0.38578201       0.13578149       0.70478202 </v>
   <v>       0.38578200       0.63578149       0.70478202 </v>
   <v>       0.88578199       0.13578149       0.70478202 </v>
   <v>       0.88578203       0.63578149       0.70478202 </v>
   <v>       0.13466700       0.11533200       0.80125603 </v>
   <v>       0.13466699       0.61533199       0.80125603 </v>
   <v>       0.63466699       0.11533200       0.80125603 </v>
   <v>       0.63466698       0.61533199       0.80125603 </v>
   <v>       0.36533300       0.38466799       0.80125603 </v>
   <v>       0.36533299       0.88466796       0.80125603 </v>
   <v>       0.86533295       0.38466799       0.80125603 </v>
   <v>       0.86533294       0.88466796       0.80125603 </v>
   <v>       0.11532850       0.36533700       0.80126500 </v>
   <v>       0.11532850       0.86533698       0.80126500 </v>
   <v>       0.61532850       0.36533700       0.80126500 </v>
   <v>       0.61532849       0.86533698       0.80126500 </v>
   <v>       0.38467151       0.13466300       0.80126500 </v>
   <v>       0.38467150       0.63466297       0.80126500 </v>
   <v>       0.88467149       0.13466300       0.80126500 </v>
   <v>       0.88467153       0.63466297       0.80126500 </v>
   <v>       0.00005272       0.99852646       0.60456172 </v>
   <v>       0.00689152       0.50442017       0.60466708 </v>
   <v>       0.50526600       0.00642691       0.60369045 </v>
   <v>       0.49905004       0.49221487       0.60470182 </v>
   <v>       0.24833028       0.24675033       0.60236322 </v>
   <v>       0.25300579       0.74502104       0.60391492 </v>
   <v>       0.74400901       0.24593062       0.60260600 </v>
   <v>       0.73792737       0.75490921       0.60305415 </v>
   <v>       0.00000050       0.00000050       0.70482896 </v>
   <v>       0.00000050       0.50000048       0.70482896 </v>
   <v>       0.50000048       0.00000050       0.70482896 </v>
   <v>       0.50000046       0.50000048       0.70482896 </v>
   <v>       0.24999999       0.24999947       0.70482499 </v>
   <v>       0.25000001       0.74999950       0.70482499 </v>
   <v>       0.74999999       0.24999947       0.70482499 </v>
   <v>       0.74999998       0.74999950       0.70482499 </v>
   <v>       0.00000000       0.00000000       0.80731797 </v>
   <v>       0.00000000       0.50000000       0.80731797 </v>
   <v>       0.50000000       0.00000000       0.80731797 </v>
   <v>       0.49999999       0.50000000       0.80731797 </v>
   <v>       0.24999999       0.25000000       0.80731797 </v>
   <v>       0.25000001       0.74999997       0.80731797 </v>
   <v>       0.74999999       0.25000000       0.80731797 </v>
   <v>       0.74999998       0.74999997       0.80731797 </v>
  </varray>
 </structure>
</modeling>
