 vasp.6.2.1 16May21 (build Nov 15 2021 14:57:28) complex                         
 executed on             LinuxPGI date 2023.07.30  10:29:52
 running on    4 total cores
 distrk:  each k-point on    4 cores,    1 groups
 distr:  one band on NCORE=   1 cores,    4 groups


--------------------------------------------------------------------------------------------------------


 INCAR:
   SYSTEM = PSC
   ISTART = 1
   ICHARG = 1
   PREC = Normal
   ENCUT = 500
   GGA_COMPAT = F
   NELM = 600
   ISYM = 0
   LREAL = Auto
   ISMEAR = 0
   SIGMA = 0.05
   AMIN = 0.01
   BMIX = 0.01
   LVTOT = T
   LWAVE = F
   LDIPOL = T
   IDIPOL = 3
   LVDW = T
   IVDW = 12

 POTCAR:    PAW_PBE H 15Jun2001                   
 POTCAR:    PAW_PBE C 08Apr2002                   
 POTCAR:    PAW_PBE N 08Apr2002                   
 POTCAR:    PAW_PBE I 08Apr2002                   
 POTCAR:    PAW_PBE Pb 08Apr2002                  
 WARNING: For LVTOT=.TRUE., VASP.5.x writes the TOTAL local potential to the
     file LOCPOT. If you want only the Hartree contributions, use LVHAR=.TRUE.
     instead. 

 POTCAR:    PAW_PBE H 15Jun2001                   
   SHA256 =  030f79b5d3ab3cf0e668861823c8fb652ff669f3e15e46930bd03bfd63a607b6 H/POTCAR              
   COPYR  = (c) Copyright 15Jun2001 Georg Kresse                                                    
   COPYR  = This file is part of the software VASP. Any use, copying, and all other rights are regul
   COPYR  = If you do not have a valid VASP license, you may not use, copy or distribute this file. 
   VRHFIN =H: ultrasoft test                                                                        
   LEXCH  = PE                                                                                      
   EATOM  =    12.4884 eV,    0.9179 Ry                                                             
                                                                                                    
   TITEL  = PAW_PBE H 15Jun2001                                                                     
   LULTRA =        F    use ultrasoft PP ?                                                          
   IUNSCR =        0    unscreen: 0-lin 1-nonlin 2-no                                               
   RPACOR =    0.000    partial core radius                                                         
   POMASS =    1.000; ZVAL   =    1.000    mass and valenz                                          
   RCORE  =    1.100    outmost cutoff radius                                                       
   RWIGS  =    0.700; RWIGS  =    0.370    wigner-seitz radius (au A)                               
   ENMAX  =  250.000; ENMIN  =  200.000 eV                                                          
   RCLOC  =    0.701    cutoff for local pot                                                        
   LCOR   =        T    correct aug charges                                                         
   LPAW   =        T    paw PP                                                                      
   EAUG   =  400.000                                                                                
   RMAX   =    1.123    core radius for proj-oper                                                   
   RAUG   =    1.200    factor for augmentation sphere                                              
   RDEP   =    1.112    radius for radial grids                                                     
   RDEPT  =    0.926    core radius for aug-charge                                                  
                                                                                                    
   Atomic configuration                                                                             
    2 entries                                                                                       
     n  l   j            E        occ.                                                              
     1  0  0.50        -6.4927   1.0000                                                             
     2  1  0.50        -3.4015   0.0000                                                             
   Description                                                                                      
     l       E           TYP  RCUT    TYP  RCUT                                                     
     0     -6.4927494     23  1.100                                                                 
     0      6.8029130     23  1.100                                                                 
     1     -4.0817478     23  1.100                                                                 
  local pseudopotential read in
  atomic valenz-charges read in
  non local Contribution for L=            0  read in
    real space projection operators read in
  non local Contribution for L=            0  read in
    real space projection operators read in
  non local Contribution for L=            1  read in
    real space projection operators read in
    PAW grid and wavefunctions read in
 
   number of l-projection  operators is LMAX  =            3
   number of lm-projection operators is LMMAX =            5
 
 POTCAR:    PAW_PBE C 08Apr2002                   
   SHA256 =  253f7b50bb8d59471dbedb8285d89021f4a42ed1a2c5d38a03a736e69125dd95 C/POTCAR              
   COPYR  = (c) Copyright 08Apr2002 Georg Kresse                                                    
   COPYR  = This file is part of the software VASP. Any use, copying, and all other rights are regul
   COPYR  = If you do not have a valid VASP license, you may not use, copy or distribute this file. 
   VRHFIN =C: s2p2                                                                                  
   LEXCH  = PE                                                                                      
   EATOM  =   147.1560 eV,   10.8157 Ry                                                             
                                                                                                    
   TITEL  = PAW_PBE C 08Apr2002                                                                     
   LULTRA =        F    use ultrasoft PP ?                                                          
   IUNSCR =        1    unscreen: 0-lin 1-nonlin 2-no                                               
   RPACOR =    1.200    partial core radius                                                         
   POMASS =   12.011; ZVAL   =    4.000    mass and valenz                                          
   RCORE  =    1.500    outmost cutoff radius                                                       
   RWIGS  =    1.630; RWIGS  =    0.863    wigner-seitz radius (au A)                               
   ENMAX  =  400.000; ENMIN  =  300.000 eV                                                          
   ICORE  =        2    local potential                                                             
   LCOR   =        T    correct aug charges                                                         
   LPAW   =        T    paw PP                                                                      
   EAUG   =  644.873                                                                                
   DEXC   =    0.000                                                                                
   RMAX   =    1.529    core radius for proj-oper                                                   
   RAUG   =    1.300    factor for augmentation sphere                                              
   RDEP   =    1.501    radius for radial grids                                                     
   RDEPT  =    1.300    core radius for aug-charge                                                  
                                                                                                    
   Atomic configuration                                                                             
    4 entries                                                                                       
     n  l   j            E        occ.                                                              
     1  0  0.50      -273.3789   2.0000                                                             
     2  0  0.50       -13.7508   2.0000                                                             
     2  1  0.50        -5.2854   2.0000                                                             
     3  2  1.50        -5.4423   0.0000                                                             
   Description                                                                                      
     l       E           TYP  RCUT    TYP  RCUT                                                     
     0    -13.7508458     23  1.200                                                                 
     0     -8.2022199     23  1.200                                                                 
     1     -5.2854383     23  1.500                                                                 
     1     34.0145650     23  1.500                                                                 
     2     -5.4423304      7  1.500                                                                 
  local pseudopotential read in
  partial core-charges read in
  partial kinetic energy density read in
  atomic valenz-charges read in
  non local Contribution for L=            0  read in
    real space projection operators read in
  non local Contribution for L=            0  read in
    real space projection operators read in
  non local Contribution for L=            1  read in
    real space projection operators read in
  non local Contribution for L=            1  read in
    real space projection operators read in
    PAW grid and wavefunctions read in
 
   number of l-projection  operators is LMAX  =            4
   number of lm-projection operators is LMMAX =            8
 
 POTCAR:    PAW_PBE N 08Apr2002                   
   SHA256 =  e053789ff3a61a86a1b75d8a110fcc91f86041011e7b0817c7c99e4e8a6349d7 N/POTCAR              
   COPYR  = (c) Copyright 08Apr2002 Georg Kresse                                                    
   COPYR  = This file is part of the software VASP. Any use, copying, and all other rights are regul
   COPYR  = If you do not have a valid VASP license, you may not use, copy or distribute this file. 
   VRHFIN =N: s2p3                                                                                  
   LEXCH  = PE                                                                                      
   EATOM  =   264.5486 eV,   19.4438 Ry                                                             
                                                                                                    
   TITEL  = PAW_PBE N 08Apr2002                                                                     
   LULTRA =        F    use ultrasoft PP ?                                                          
   IUNSCR =        1    unscreen: 0-lin 1-nonlin 2-no                                               
   RPACOR =    1.200    partial core radius                                                         
   POMASS =   14.001; ZVAL   =    5.000    mass and valenz                                          
   RCORE  =    1.500    outmost cutoff radius                                                       
   RWIGS  =    1.400; RWIGS  =    0.741    wigner-seitz radius (au A)                               
   ENMAX  =  400.000; ENMIN  =  300.000 eV                                                          
   ICORE  =        2    local potential                                                             
   LCOR   =        T    correct aug charges                                                         
   LPAW   =        T    paw PP                                                                      
   EAUG   =  627.112                                                                                
   DEXC   =    0.000                                                                                
   RMAX   =    1.529    core radius for proj-oper                                                   
   RAUG   =    1.300    factor for augmentation sphere                                              
   RDEP   =    1.514    radius for radial grids                                                     
   RDEPT  =    1.338    core radius for aug-charge                                                  
                                                                                                    
   Atomic configuration                                                                             
    4 entries                                                                                       
     n  l   j            E        occ.                                                              
     1  0  0.50      -384.7179   2.0000                                                             
     2  0  0.50       -18.5828   2.0000                                                             
     2  1  0.50        -7.0898   3.0000                                                             
     3  2  1.50        -6.8029   0.0000                                                             
   Description                                                                                      
     l       E           TYP  RCUT    TYP  RCUT                                                     
     0    -18.5828119     23  1.200                                                                 
     0    -13.5018863     23  1.200                                                                 
     1     -7.0897853     23  1.500                                                                 
     1      9.5240782     23  1.500                                                                 
     2     -6.8029130      7  1.500                                                                 
  local pseudopotential read in
  partial core-charges read in
  partial kinetic energy density read in
  atomic valenz-charges read in
  non local Contribution for L=            0  read in
    real space projection operators read in
  non local Contribution for L=            0  read in
    real space projection operators read in
  non local Contribution for L=            1  read in
    real space projection operators read in
  non local Contribution for L=            1  read in
    real space projection operators read in
    PAW grid and wavefunctions read in
 
   number of l-projection  operators is LMAX  =            4
   number of lm-projection operators is LMMAX =            8
 
 POTCAR:    PAW_PBE I 08Apr2002                   
   SHA256 =  e40f3f59b681c1fc3e3091736183c4589116986673d2b852a5012aec72758799 I/POTCAR              
   COPYR  = (c) Copyright 08Apr2002 Georg Kresse                                                    
   COPYR  = This file is part of the software VASP. Any use, copying, and all other rights are regul
   COPYR  = If you do not have a valid VASP license, you may not use, copy or distribute this file. 
   VRHFIN =I : s2p5                                                                                 
   LEXCH  = PE                                                                                      
   EATOM  =   315.8678 eV,   23.2156 Ry                                                             
                                                                                                    
   TITEL  = PAW_PBE I 08Apr2002                                                                     
   LULTRA =        F    use ultrasoft PP ?                                                          
   IUNSCR =        1    unscreen: 0-lin 1-nonlin 2-no                                               
   RPACOR =    2.200    partial core radius                                                         
   POMASS =  126.904; ZVAL   =    7.000    mass and valenz                                          
   RCORE  =    2.300    outmost cutoff radius                                                       
   RWIGS  =    2.810; RWIGS  =    1.487    wigner-seitz radius (au A)                               
   ENMAX  =  175.647; ENMIN  =  131.735 eV                                                          
   ICORE  =        3    local potential                                                             
   LCOR   =        T    correct aug charges                                                         
   LPAW   =        T    paw PP                                                                      
   EAUG   =  370.139                                                                                
   DEXC   =    0.000                                                                                
   RMAX   =    2.359    core radius for proj-oper                                                   
   RAUG   =    1.300    factor for augmentation sphere                                              
   RDEP   =    2.392    radius for radial grids                                                     
   RDEPT  =    2.170    core radius for aug-charge                                                  
                                                                                                    
   Atomic configuration                                                                             
   13 entries                                                                                       
     n  l   j            E        occ.                                                              
     1  0  0.50    -32976.3739   2.0000                                                             
     2  0  0.50     -5094.5933   2.0000                                                             
     2  1  1.50     -4572.0131   6.0000                                                             
     3  0  0.50     -1028.2813   2.0000                                                             
     3  1  1.50      -859.0250   6.0000                                                             
     3  2  2.50      -605.7620  10.0000                                                             
     4  0  0.50      -180.5540   2.0000                                                             
     4  1  1.50      -127.5306   6.0000                                                             
     4  2  2.50       -50.2720  10.0000                                                             
     5  0  0.50       -17.4058   2.0000                                                             
     5  1  0.50        -7.0851   5.0000                                                             
     5  2  1.50        -7.0750   0.0000                                                             
     4  3  2.50        -7.0750   0.0000                                                             
   Description                                                                                      
     l       E           TYP  RCUT    TYP  RCUT                                                     
     0    -17.4058016     23  2.300                                                                 
     0    -18.7663842     23  2.300                                                                 
     1     -7.0850686     23  2.300                                                                 
     1     -4.2150896     23  2.300                                                                 
     2     -7.0750295     23  2.300                                                                 
     3     -1.3605826     23  2.300                                                                 
  local pseudopotential read in
  partial core-charges read in
  partial kinetic energy density read in
  atomic valenz-charges read in
  non local Contribution for L=            0  read in
    real space projection operators read in
  non local Contribution for L=            0  read in
    real space projection operators read in
  non local Contribution for L=            1  read in
    real space projection operators read in
  non local Contribution for L=            1  read in
    real space projection operators read in
  non local Contribution for L=            2  read in
    real space projection operators read in
    PAW grid and wavefunctions read in
 
   number of l-projection  operators is LMAX  =            5
   number of lm-projection operators is LMMAX =           13
 
 POTCAR:    PAW_PBE Pb 08Apr2002                  
   SHA256 =  797118a27cf1bcd06b9881c67a26cdde129e3cd1a551dd4a281f9681ce847303 Pb/POTCAR             
   COPYR  = (c) Copyright 08Apr2002 Georg Kresse                                                    
   COPYR  = This file is part of the software VASP. Any use, copying, and all other rights are regul
   COPYR  = If you do not have a valid VASP license, you may not use, copy or distribute this file. 
   VRHFIN =Pb:                                                                                      
   LEXCH  = PE                                                                                      
   EATOM  =    96.9868 eV,    7.1283 Ry                                                             
                                                                                                    
   TITEL  = PAW_PBE Pb 08Apr2002                                                                    
   LULTRA =        F    use ultrasoft PP ?                                                          
   IUNSCR =        1    unscreen: 0-lin 1-nonlin 2-no                                               
   RPACOR =    2.200    partial core radius                                                         
   POMASS =  207.200; ZVAL   =    4.000    mass and valenz                                          
   RCORE  =    3.100    outmost cutoff radius                                                       
   RWIGS  =    3.260; RWIGS  =    1.725    wigner-seitz radius (au A)                               
   ENMAX  =   97.973; ENMIN  =   73.480 eV                                                          
   ICORE  =        3    local potential                                                             
   LCOR   =        T    correct aug charges                                                         
   LPAW   =        T    paw PP                                                                      
   EAUG   =  234.873                                                                                
   DEXC   =    0.000                                                                                
   RMAX   =    3.158    core radius for proj-oper                                                   
   RAUG   =    1.300    factor for augmentation sphere                                              
   RDEP   =    3.202    radius for radial grids                                                     
   RDEPT  =    2.659    core radius for aug-charge                                                  
                                                                                                    
   Atomic configuration                                                                             
   17 entries                                                                                       
     n  l   j            E        occ.                                                              
     1  0  0.50    -88091.8466   2.0000                                                             
     2  0  0.50    -15753.4197   2.0000                                                             
     2  1  1.50    -13508.1797   6.0000                                                             
     3  0  0.50     -3781.7194   2.0000                                                             
     3  1  1.50     -3138.2529   6.0000                                                             
     3  2  2.50     -2483.2977  10.0000                                                             
     4  0  0.50      -856.2895   2.0000                                                             
     4  1  1.50      -645.4943   6.0000                                                             
     4  2  2.50      -401.8768  10.0000                                                             
     4  3  3.50      -132.9059  14.0000                                                             
     5  0  0.50      -144.0950   2.0000                                                             
     5  1  1.50       -85.7879   6.0000                                                             
     5  2  2.50       -21.1769  10.0000                                                             
     6  0  0.50       -12.0372   2.0000                                                             
     6  1  1.50        -3.4971   2.0000                                                             
     6  2  2.50        -1.3606   0.0000                                                             
     5  3  2.50        -2.7212   0.0000                                                             
   Description                                                                                      
     l       E           TYP  RCUT    TYP  RCUT                                                     
     0    -12.0371566     23  3.100                                                                 
     0    -13.3977392     23  3.100                                                                 
     1     -3.4971341     23  3.100                                                                 
     1     -5.4423304     23  3.100                                                                 
     2     -1.3605826     23  3.100                                                                 
     3     -1.3605826     23  3.100                                                                 
  local pseudopotential read in
  partial core-charges read in
  partial kinetic energy density read in
  atomic valenz-charges read in
  non local Contribution for L=            0  read in
    real space projection operators read in
  non local Contribution for L=            0  read in
    real space projection operators read in
  non local Contribution for L=            1  read in
    real space projection operators read in
  non local Contribution for L=            1  read in
    real space projection operators read in
  non local Contribution for L=            2  read in
    real space projection operators read in
    PAW grid and wavefunctions read in
 
   number of l-projection  operators is LMAX  =            5
   number of lm-projection operators is LMMAX =           13
 
 Optimization of the real space projectors (new method)

 maximal supplied QI-value         = 34.20
 optimisation between [QCUT,QGAM] = [ 11.29, 22.57] = [ 35.68,142.71] Ry 
 Optimized for a Real-space Cutoff    1.16 Angstroem

   l    n(q)    QCUT    max X(q) W(low)/X(q) W(high)/X(q)  e(spline) 
   0      8    11.287    19.460    0.40E-03    0.73E-03    0.16E-06
   0      8    11.287    12.209    0.38E-03    0.70E-03    0.15E-06
   1      7    11.287     4.655    0.22E-03    0.25E-04    0.22E-06
 Optimization of the real space projectors (new method)

 maximal supplied QI-value         = 25.13
 optimisation between [QCUT,QGAM] = [ 11.31, 22.87] = [ 35.82,146.48] Ry 
 Optimized for a Real-space Cutoff    1.00 Angstroem

   l    n(q)    QCUT    max X(q) W(low)/X(q) W(high)/X(q)  e(spline) 
   0      7    11.310   115.676    0.43E-03    0.13E-02    0.19E-06
   0      7    11.310    87.132    0.43E-03    0.13E-02    0.18E-06
   1      6    11.310     4.429    0.42E-03    0.74E-03    0.11E-06
   1      6    11.310     2.733    0.34E-03    0.55E-03    0.92E-07
 Optimization of the real space projectors (new method)

 maximal supplied QI-value         = 25.13
 optimisation between [QCUT,QGAM] = [ 11.31, 22.87] = [ 35.82,146.48] Ry 
 Optimized for a Real-space Cutoff    1.27 Angstroem

   l    n(q)    QCUT    max X(q) W(low)/X(q) W(high)/X(q)  e(spline) 
   0      9    11.310    79.467    0.75E-04    0.16E-03    0.36E-06
   0      9    11.310    66.151    0.74E-04    0.16E-03    0.36E-06
   1      8    11.310    17.416    0.35E-03    0.12E-03    0.95E-06
   1      8    11.310    12.382    0.37E-03    0.13E-03    0.98E-06
 Optimization of the real space projectors (new method)

 maximal supplied QI-value         = 16.25
 optimisation between [QCUT,QGAM] = [ 11.38, 22.75] = [ 36.24,144.96] Ry 
 Optimized for a Real-space Cutoff    1.31 Angstroem

   l    n(q)    QCUT    max X(q) W(low)/X(q) W(high)/X(q)  e(spline) 
   0      9    11.376   194.483    0.24E-03    0.23E-03    0.67E-07
   0      9    11.376   190.334    0.23E-03    0.22E-03    0.65E-07
   1      8    11.376   116.687    0.25E-03    0.63E-04    0.16E-06
   1      8    11.376    88.696    0.25E-03    0.61E-04    0.16E-06
   2      8    11.376     4.877    0.17E-03    0.14E-03    0.29E-07
 Optimization of the real space projectors (new method)

 maximal supplied QI-value         = 12.09
 optimisation between [QCUT,QGAM] = [ 11.37, 22.86] = [ 36.19,146.31] Ry 
 Optimized for a Real-space Cutoff    1.66 Angstroem

   l    n(q)    QCUT    max X(q) W(low)/X(q) W(high)/X(q)  e(spline) 
   0     11    11.369   135.111    0.12E-03    0.69E-04    0.19E-05
   0     11    11.369   146.850    0.11E-03    0.65E-04    0.18E-05
   1     11    11.369   148.016    0.17E-03    0.32E-03    0.89E-06
   1     11    11.369   122.989    0.17E-03    0.32E-03    0.91E-06
   2     10    11.369     8.916    0.12E-03    0.45E-04    0.33E-06
  PAW_PBE H 15Jun2001                   :
 energy of atom  1       EATOM=  -12.4884
 kinetic energy error for atom=    0.0020 (will be added to EATOM!!)
  PAW_PBE C 08Apr2002                   :
 energy of atom  2       EATOM= -147.1560
 kinetic energy error for atom=    0.0076 (will be added to EATOM!!)
  PAW_PBE N 08Apr2002                   :
 energy of atom  3       EATOM= -264.5486
 kinetic energy error for atom=    0.0138 (will be added to EATOM!!)
  PAW_PBE I 08Apr2002                   :
 energy of atom  4       EATOM= -315.8678
 kinetic energy error for atom=    0.0009 (will be added to EATOM!!)
  PAW_PBE Pb 08Apr2002                  :
 energy of atom  5       EATOM=  -96.9868
 kinetic energy error for atom=    0.0000 (will be added to EATOM!!)
 
 
 POSCAR:  H  C  N  I Pb
  positions in cartesian coordinates
  No initial velocities read in
 exchange correlation table for  LEXCH =        8
   RHO(1)=    0.500       N(1)  =     2000
   RHO(2)=  100.500       N(2)  =     4000
 


--------------------------------------------------------------------------------------------------------


 ion  position               nearest neighbor table
   1  0.429  0.263  0.583- 187 0.98
   2  0.420  0.752  0.579- 188 1.00
   3  0.937  0.292  0.583- 189 1.02
   4  0.948  0.807  0.581- 190 1.01
   5  0.309  0.055  0.581- 194 1.04
   6  0.303  0.574  0.576- 195 1.04
   7  0.782  0.072  0.582- 196 1.04
   8  0.100  0.190  0.563- 183 1.01
   9  0.086  0.678  0.562- 184 1.00
  10  0.598  0.192  0.563- 185 0.99
  11  0.610  0.738  0.563- 186 1.02
  12  0.368  0.024  0.561- 194 1.01
  13  0.282  0.607  0.551- 195 0.98
  14  0.846  0.065  0.562- 196 0.98
  15  0.071  0.238  0.585- 183 1.01
  16  0.019  0.691  0.582- 184 1.01
  17  0.538  0.182  0.583- 185 1.02
  18  0.552  0.703  0.582- 186 1.03
  19  0.256  0.444  0.584- 191 1.04
  20  0.178  0.009  0.579- 192 1.05
  21  0.681  0.976  0.582- 193 1.04
  22  0.417  0.321  0.561- 187 1.01
  23  0.399  0.810  0.558- 188 1.01
  24  0.893  0.268  0.559- 189 1.02
  25  0.968  0.867  0.559- 190 1.01
  26  0.207  0.402  0.564- 191 1.00
  27  0.157  0.953  0.558- 192 0.98
  28  0.687  0.910  0.561- 193 1.01
  29  0.524  0.279  0.545- 146 1.09
  30  0.519  0.805  0.545- 147 1.09
  31  0.992  0.205  0.545- 144 1.07
  32  0.058  0.789  0.545- 145 1.11
  33  0.218  0.501  0.541- 148 1.08
  34  0.274  0.957  0.544- 149 1.09
  35  0.792  0.963  0.546- 150 1.08
  36  0.437  0.289  0.675- 205 0.99
  37  0.433  0.821  0.672- 206 1.01
  38  0.966  0.279  0.681- 207 1.00
  39  0.937  0.796  0.676- 208 1.04
  40  0.300  0.048  0.677- 209 1.01
  41  0.298  0.553  0.676- 210 1.00
  42  0.802  0.055  0.675- 211 1.00
  43  0.808  0.554  0.675- 212 1.02
  44  0.084  0.170  0.645- 197 1.03
  45  0.092  0.686  0.654- 198 1.03
  46  0.579  0.174  0.649- 199 1.04
  47  0.561  0.671  0.658- 200 1.02
  48  0.182  0.413  0.650- 201 1.03
  49  0.172  0.924  0.648- 202 1.02
  50  0.669  0.423  0.655- 203 1.00
  51  0.666  0.930  0.651- 204 1.03
  52  0.070  0.182  0.672- 197 1.04
  53  0.040  0.693  0.677- 198 1.01
  54  0.536  0.184  0.674- 199 1.03
  55  0.525  0.716  0.680- 200 1.02
  56  0.210  0.441  0.676- 201 1.01
  57  0.192  0.951  0.674- 202 1.01
  58  0.709  0.448  0.679- 203 1.03
  59  0.693  0.964  0.676- 204 1.01
  60  0.423  0.335  0.651- 205 1.03
  61  0.421  0.838  0.644- 206 1.03
  62  0.925  0.319  0.658- 207 1.01
  63  0.934  0.845  0.652- 208 1.02
  64  0.338  0.074  0.652- 209 1.03
  65  0.321  0.589  0.651- 210 1.02
  66  0.839  0.073  0.650- 211 1.03
  67  0.817  0.588  0.650- 212 1.02
  68  0.993  0.256  0.635- 151 1.09
  69  0.030  0.783  0.637- 152 1.10
  70  0.512  0.268  0.633- 153 1.11
  71  0.501  0.747  0.634- 154 1.09
  72  0.262  0.999  0.632- 156 1.11
  73  0.250  0.506  0.633- 155 1.10
  74  0.759  0.996  0.633- 158 1.10
  75  0.732  0.509  0.635- 157 1.09
  76  0.449  0.301  0.769- 221 1.02
  77  0.449  0.801  0.769- 222 1.02
  78  0.949  0.301  0.769- 223 1.02
  79  0.949  0.801  0.769- 224 1.02
  80  0.301  0.051  0.769- 225 1.02
  81  0.301  0.551  0.769- 226 1.02
  82  0.801  0.051  0.769- 227 1.02
  83  0.801  0.551  0.769- 228 1.02
  84  0.079  0.171  0.743- 213 1.02
  85  0.079  0.671  0.743- 214 1.02
  86  0.579  0.171  0.743- 215 1.02
  87  0.579  0.671  0.743- 216 1.02
  88  0.171  0.421  0.743- 217 1.02
  89  0.171  0.921  0.743- 218 1.02
  90  0.671  0.421  0.743- 219 1.02
  91  0.671  0.921  0.743- 220 1.02
  92  0.051  0.199  0.769- 213 1.02
  93  0.051  0.699  0.769- 214 1.02
  94  0.551  0.199  0.769- 215 1.02
  95  0.551  0.699  0.769- 216 1.02
  96  0.199  0.449  0.769- 217 1.02
  97  0.199  0.949  0.769- 218 1.02
  98  0.699  0.449  0.769- 219 1.02
  99  0.699  0.949  0.769- 220 1.02
 100  0.421  0.329  0.743- 221 1.02
 101  0.421  0.829  0.743- 222 1.02
 102  0.921  0.329  0.743- 223 1.02
 103  0.921  0.829  0.743- 224 1.02
 104  0.329  0.079  0.743- 225 1.02
 105  0.329  0.579  0.743- 226 1.02
 106  0.829  0.079  0.743- 227 1.02
 107  0.829  0.579  0.743- 228 1.02
 108  0.000  0.250  0.726- 161 1.09
 109  0.000  0.750  0.726- 162 1.09
 110  0.500  0.250  0.726- 159 1.09
 111  0.500  0.750  0.726- 160 1.09
 112  0.250  0.000  0.726- 163 1.09
 113  0.250  0.500  0.726- 164 1.09
 114  0.750  0.000  0.726- 165 1.09
 115  0.750  0.500  0.726- 166 1.09
 116  0.782  0.509  0.520- 173 1.08
 117  0.869  0.509  0.533- 173 1.08
 118  0.758  0.630  0.540- 174 1.09
 119  0.767  0.630  0.568- 174 1.10
 120  0.679  0.458  0.559- 175 1.08
 121  0.674  0.552  0.565- 175 1.09
 122  0.804  0.430  0.572- 176 1.09
 123  0.872  0.501  0.573- 176 1.10
 124  0.861  0.385  0.543- 177 1.11
 125  0.763  0.380  0.540- 177 1.10
 126  0.773  0.385  0.501- 178 1.11
 127  0.862  0.421  0.502- 178 1.07
 128  0.891  0.618  0.534- 179 1.09
 129  0.910  0.611  0.561- 179 1.10
 130  0.869  0.693  0.550- 179 1.10
 131  0.595  0.526  0.536- 180 1.11
 132  0.664  0.483  0.521- 180 1.09
 133  0.670  0.580  0.526- 180 1.09
 134  0.730  0.480  0.598- 181 1.10
 135  0.751  0.572  0.593- 181 1.08
 136  0.817  0.517  0.606- 181 1.08
 137  0.835  0.268  0.519- 182 1.09
 138  0.843  0.281  0.491- 182 1.10
 139  0.938  0.178  0.503- 168 1.10
 140  0.976  0.413  0.514- 169 1.09
 141  0.073  0.156  0.504- 170 1.09
 142  0.107  0.390  0.516- 171 1.09
 143  0.160  0.264  0.511- 172 1.09
 144  0.996  0.227  0.561-  31 1.07 183 1.31 189 1.31
 145  0.028  0.773  0.560-  32 1.11 190 1.32 184 1.32
 146  0.507  0.255  0.560-  29 1.09 185 1.30 187 1.31
 147  0.505  0.772  0.559-  30 1.09 186 1.29 188 1.33
 148  0.243  0.504  0.557-  33 1.08 191 1.29 195 1.33
 149  0.262  0.987  0.558-  34 1.09 194 1.31 192 1.31
 150  0.767  0.987  0.561-  35 1.08 196 1.31 193 1.31
 151  0.005  0.244  0.652-  68 1.09 197 1.28 207 1.34
 152  0.013  0.765  0.653-  69 1.10 198 1.28 208 1.31
 153  0.501  0.254  0.650-  70 1.11 199 1.29 205 1.33
 154  0.492  0.754  0.651-  71 1.09 200 1.30 206 1.33
 155  0.251  0.500  0.650-  73 1.10 201 1.30 210 1.34
 156  0.254  0.999  0.650-  72 1.11 202 1.31 209 1.31
 157  0.743  0.506  0.652-  75 1.09 212 1.28 203 1.32
 158  0.752  0.001  0.650-  74 1.10 204 1.30 211 1.33
 159  0.500  0.250  0.743- 110 1.09 221 1.31 215 1.31
 160  0.500  0.750  0.743- 111 1.09 222 1.31 216 1.31
 161  1.000  0.250  0.743- 108 1.09 223 1.31 213 1.31
 162  1.000  0.750  0.743- 109 1.09 224 1.31 214 1.31
 163  0.250  0.000  0.743- 112 1.09 225 1.31 218 1.31
 164  0.250  0.500  0.743- 113 1.09 226 1.31 217 1.31
 165  0.750  0.000  0.743- 114 1.09 227 1.31 220 1.31
 166  0.750  0.500  0.743- 115 1.09 228 1.31 219 1.31
 167  0.946  0.296  0.508- 168 1.39 169 1.41 182 1.55
 168  0.976  0.226  0.505- 139 1.10 170 1.39 167 1.39
 169  0.995  0.356  0.512- 140 1.09 171 1.39 167 1.41
 170  0.052  0.212  0.506- 141 1.09 168 1.39 172 1.40
 171  0.070  0.344  0.512- 142 1.09 169 1.39 172 1.41
 172  0.100  0.272  0.510- 143 1.09 170 1.40 171 1.41
 173  0.813  0.490  0.534- 117 1.08 116 1.08 229 1.50 177 1.56
 174  0.791  0.607  0.553- 118 1.09 119 1.10 179 1.52 229 1.55
 175  0.693  0.513  0.553- 120 1.08 121 1.09 180 1.51 229 1.53
 176  0.812  0.489  0.574- 122 1.09 123 1.10 181 1.51 229 1.52
 177  0.814  0.404  0.533- 125 1.10 124 1.11 178 1.52 173 1.56
 178  0.826  0.382  0.510- 127 1.07 126 1.11 177 1.52 182 1.56
 179  0.870  0.632  0.549- 128 1.09 129 1.10 130 1.10 174 1.52
 180  0.655  0.527  0.532- 132 1.09 133 1.09 131 1.11 175 1.51
 181  0.775  0.517  0.594- 136 1.08 135 1.08 134 1.10 176 1.51
 182  0.860  0.303  0.507- 137 1.09 138 1.10 167 1.55 178 1.56
 183  0.058  0.217  0.571-  15 1.01   8 1.01 144 1.31
 184  0.045  0.708  0.569-   9 1.00  16 1.01 145 1.32
 185  0.549  0.204  0.569-  10 0.99  17 1.02 146 1.30
 186  0.557  0.732  0.568-  11 1.02  18 1.03 147 1.29
 187  0.446  0.281  0.569-   1 0.98  22 1.01 146 1.31
 188  0.436  0.778  0.566-   2 1.00  23 1.01 147 1.33
 189  0.940  0.265  0.568-  24 1.02   3 1.02 144 1.31
 190  0.976  0.818  0.567-   4 1.01  25 1.01 145 1.32
 191  0.233  0.447  0.569-  26 1.00  19 1.04 148 1.29
 192  0.194  0.982  0.566-  27 0.98  20 1.05 149 1.31
 193  0.706  0.957  0.568-  28 1.01  21 1.04 150 1.31
 194  0.317  0.025  0.567-  12 1.01   5 1.04 149 1.31
 195  0.277  0.567  0.562-  13 0.98   6 1.04 148 1.33
 196  0.802  0.044  0.569-  14 0.98   7 1.04 150 1.31
 197  0.055  0.197  0.657-  44 1.03  52 1.04 151 1.28
 198  0.049  0.712  0.662-  53 1.01  45 1.03 152 1.28
 199  0.540  0.202  0.658-  54 1.03  46 1.04 153 1.29
 200  0.528  0.711  0.664-  47 1.02  55 1.02 154 1.30
 201  0.212  0.448  0.660-  56 1.01  48 1.03 155 1.30
 202  0.203  0.955  0.658-  57 1.01  49 1.02 156 1.31
 203  0.704  0.456  0.662-  50 1.00  58 1.03 157 1.32
 204  0.701  0.963  0.660-  59 1.01  51 1.03 158 1.30
 205  0.450  0.295  0.659-  36 0.99  60 1.03 153 1.33
 206  0.446  0.808  0.656-  37 1.01  61 1.03 154 1.33
 207  0.962  0.284  0.665-  38 1.00  62 1.01 151 1.34
 208  0.958  0.803  0.661-  63 1.02  39 1.04 152 1.31
 209  0.299  0.042  0.661-  40 1.01  64 1.03 156 1.31
 210  0.293  0.551  0.660-  41 1.00  65 1.02 155 1.34
 211  0.802  0.046  0.659-  42 1.00  66 1.03 158 1.33
 212  0.791  0.551  0.660-  43 1.02  67 1.02 157 1.28
 213  0.046  0.204  0.753-  92 1.02  84 1.02 161 1.31
 214  0.046  0.704  0.753-  93 1.02  85 1.02 162 1.31
 215  0.546  0.204  0.753-  94 1.02  86 1.02 159 1.31
 216  0.546  0.704  0.753-  95 1.02  87 1.02 160 1.31
 217  0.204  0.454  0.753-  96 1.02  88 1.02 164 1.31
 218  0.204  0.954  0.753-  97 1.02  89 1.02 163 1.31
 219  0.704  0.454  0.753-  98 1.02  90 1.02 166 1.31
 220  0.704  0.954  0.753-  99 1.02  91 1.02 165 1.31
 221  0.454  0.296  0.753-  76 1.02 100 1.02 159 1.31
 222  0.454  0.796  0.753-  77 1.02 101 1.02 160 1.31
 223  0.954  0.296  0.753-  78 1.02 102 1.02 161 1.31
 224  0.954  0.796  0.753-  79 1.02 103 1.02 162 1.31
 225  0.296  0.046  0.753-  80 1.02 104 1.02 163 1.31
 226  0.296  0.546  0.753-  81 1.02 105 1.02 164 1.31
 227  0.796  0.046  0.753-  82 1.02 106 1.02 165 1.31
 228  0.796  0.546  0.753-  83 1.02 107 1.02 166 1.31
 229  0.778  0.522  0.553- 173 1.50 176 1.52 175 1.53 174 1.55
 230  0.503  0.998  0.552- 304 3.13
 231  0.461  0.478  0.555- 305 3.11
 232  0.990  0.010  0.551- 302 3.24
 233  0.032  0.491  0.559- 303 3.09
 234  0.249  0.246  0.555- 306 3.13
 235  0.244  0.765  0.552- 307 3.19
 236  0.741  0.227  0.555- 308 3.15
 237  0.717  0.785  0.545- 309 3.81
 238  0.004  0.997  0.654- 302 3.18 310 3.19
 239  0.999  0.506  0.657- 311 3.00 303 3.10
 240  0.496  0.999  0.655- 312 3.10 304 3.29
 241  0.495  0.497  0.655- 313 3.12 305 3.20
 242  0.254  0.243  0.656- 314 3.07 306 3.18
 243  0.255  0.750  0.654- 315 3.17 307 3.21
 244  0.744  0.246  0.655- 316 3.12 308 3.13
 245  0.756  0.758  0.654- 309 3.08 317 3.20
 246  0.150  0.104  0.609- 306 3.22 302 3.32
 247  0.152  0.608  0.608- 303 3.17 307 3.18
 248  0.643  0.107  0.610- 308 3.25 304 3.30
 249  0.611  0.639  0.615- 309 3.33 305 3.35
 250  0.362  0.389  0.613- 305 3.18 306 3.25
 251  0.362  0.893  0.608- 304 3.14 307 3.27
 252  0.888  0.364  0.616- 308 3.29 303 3.40
 253  0.860  0.894  0.607- 302 3.19 309 3.20
 254  0.116  0.357  0.610- 306 3.16 303 3.31
 255  0.111  0.867  0.607- 307 3.18 302 3.22
 256  0.617  0.368  0.607- 308 3.22 305 3.25
 257  0.615  0.866  0.611- 304 3.17 309 3.20
 258  0.398  0.143  0.610- 304 3.26 306 3.26
 259  0.386  0.643  0.607- 307 3.25 305 3.27
 260  0.886  0.136  0.613- 302 3.18 308 3.23
 261  0.914  0.665  0.614- 303 3.38 309 3.43
 262  0.000  0.000  0.755- 310 3.13 318 3.27
 263  0.000  0.500  0.755- 311 3.13 319 3.27
 264  0.500  0.000  0.755- 312 3.13 320 3.27
 265  0.500  0.500  0.755- 313 3.13 321 3.27
 266  0.250  0.250  0.755- 314 3.13 322 3.27
 267  0.250  0.750  0.755- 315 3.13 323 3.27
 268  0.750  0.250  0.755- 316 3.13 324 3.27
 269  0.750  0.750  0.755- 317 3.13 325 3.27
 270  0.136  0.114  0.705- 310 3.20 314 3.20
 271  0.136  0.614  0.705- 311 3.20 315 3.20
 272  0.636  0.114  0.705- 312 3.20 316 3.20
 273  0.636  0.614  0.705- 313 3.20 317 3.20
 274  0.364  0.386  0.705- 313 3.20 314 3.20
 275  0.364  0.886  0.705- 312 3.20 315 3.20
 276  0.864  0.386  0.705- 311 3.20 316 3.20
 277  0.864  0.886  0.705- 310 3.20 317 3.20
 278  0.114  0.364  0.705- 314 3.21 311 3.21
 279  0.114  0.864  0.705- 315 3.21 310 3.21
 280  0.614  0.364  0.705- 316 3.21 313 3.21
 281  0.614  0.864  0.705- 317 3.21 312 3.21
 282  0.386  0.136  0.705- 314 3.21 312 3.21
 283  0.386  0.636  0.705- 315 3.21 313 3.21
 284  0.886  0.136  0.705- 316 3.21 310 3.21
 285  0.886  0.636  0.705- 317 3.21 311 3.21
 286  0.135  0.115  0.801- 318 3.22 322 3.22
 287  0.135  0.615  0.801- 319 3.22 323 3.22
 288  0.635  0.115  0.801- 320 3.22 324 3.22
 289  0.635  0.615  0.801- 321 3.22 325 3.22
 290  0.365  0.385  0.801- 321 3.22 322 3.22
 291  0.365  0.885  0.801- 320 3.22 323 3.22
 292  0.865  0.385  0.801- 319 3.22 324 3.22
 293  0.865  0.885  0.801- 318 3.22 325 3.22
 294  0.115  0.365  0.801- 319 3.23 322 3.23
 295  0.115  0.865  0.801- 318 3.23 323 3.23
 296  0.615  0.365  0.801- 321 3.23 324 3.23
 297  0.615  0.865  0.801- 320 3.23 325 3.23
 298  0.385  0.135  0.801- 320 3.23 322 3.23
 299  0.385  0.635  0.801- 321 3.23 323 3.23
 300  0.885  0.135  0.801- 318 3.23 324 3.23
 301  0.885  0.635  0.801- 319 3.23 325 3.23
 302  0.997  0.004  0.603- 260 3.18 238 3.18 253 3.19 255 3.22 232 3.24 246 3.32
 303  0.009  0.506  0.607- 233 3.09 239 3.10 247 3.17 254 3.31 261 3.38 252 3.40
 304  0.500  0.996  0.603- 230 3.13 251 3.14 257 3.17 258 3.26 240 3.29 248 3.30
 305  0.496  0.500  0.604- 231 3.11 250 3.18 241 3.20 256 3.25 259 3.27 249 3.35
 306  0.252  0.249  0.605- 234 3.13 254 3.16 242 3.18 246 3.22 250 3.25 258 3.26
 307  0.246  0.755  0.603- 247 3.18 255 3.18 235 3.19 243 3.21 259 3.25 251 3.27
 308  0.751  0.250  0.605- 244 3.13 236 3.15 256 3.22 260 3.23 248 3.25 252 3.29
 309  0.750  0.755  0.605- 245 3.08 257 3.20 253 3.20 249 3.33 261 3.43 237 3.81
 310  0.000  0.000  0.705- 262 3.13 238 3.19 270 3.20 277 3.20 279 3.21 284 3.21
 311  0.000  0.500  0.705- 239 3.00 263 3.13 271 3.20 276 3.20 278 3.21 285 3.21
 312  0.500  0.000  0.705- 240 3.10 264 3.13 272 3.20 275 3.20 281 3.21 282 3.21
 313  0.500  0.500  0.705- 241 3.12 265 3.13 273 3.20 274 3.20 280 3.21 283 3.21
 314  0.250  0.250  0.705- 242 3.07 266 3.13 270 3.20 274 3.20 282 3.21 278 3.21
 315  0.250  0.750  0.705- 267 3.13 243 3.17 271 3.20 275 3.20 283 3.21 279 3.21
 316  0.750  0.250  0.705- 244 3.12 268 3.13 272 3.20 276 3.20 284 3.21 280 3.21
 317  0.750  0.750  0.705- 269 3.13 245 3.20 273 3.20 277 3.20 285 3.21 281 3.21
 318  0.000  0.000  0.807- 286 3.22 293 3.22 300 3.23 295 3.23 262 3.27
 319  0.000  0.500  0.807- 287 3.22 292 3.22 301 3.23 294 3.23 263 3.27
 320  0.500  0.000  0.807- 288 3.22 291 3.22 298 3.23 297 3.23 264 3.27
 321  0.500  0.500  0.807- 289 3.22 290 3.22 299 3.23 296 3.23 265 3.27
 322  0.250  0.250  0.807- 290 3.22 286 3.22 294 3.23 298 3.23 266 3.27
 323  0.250  0.750  0.807- 291 3.22 287 3.22 299 3.23 295 3.23 267 3.27
 324  0.750  0.250  0.807- 292 3.22 288 3.22 296 3.23 300 3.23 268 3.27
 325  0.750  0.750  0.807- 293 3.22 289 3.22 297 3.23 301 3.23 269 3.27
 

IMPORTANT INFORMATION: All symmetrisations will be switched off!
NOSYMM: (Re-)initialisation of all symmetry stuff for point group C_1.


----------------------------------------------------------------------------------------

                                     Primitive cell                                     

  volume of cell :   20385.2105

  direct lattice vectors                    reciprocal lattice vectors
    18.060800552  0.000000000  0.000000000     0.055368531  0.000015077 -0.000000000
    -0.004918649 18.062799454  0.000000000     0.000000000  0.055362404  0.000000000
     0.000000000  0.000000000 62.487499237     0.000000000 -0.000000000  0.016003201

  length of vectors
    18.060800552 18.062800123 62.487499237     0.055368533  0.055362404  0.016003201

  position of ions in fractional coordinates (direct lattice)
     0.428947170  0.263076592  0.582642292
     0.419658785  0.751762150  0.579420945
     0.936931712  0.291815965  0.582510125
     0.948456379  0.806700852  0.580714539
     0.309437258  0.055266213  0.580997249
     0.303182860  0.573813036  0.576252709
     0.781566308  0.071561967  0.582198600
     0.100024293  0.190062675  0.563327638
     0.085786933  0.677723034  0.562257234
     0.597840202  0.191889370  0.562604776
     0.610112190  0.737960355  0.562513755
     0.367847000  0.024304929  0.560634228
     0.281640232  0.607374530  0.551272676
     0.846476130  0.065188241  0.562016097
     0.071069377  0.237811043  0.585319769
     0.018719566  0.691298485  0.582036641
     0.537927434  0.182328366  0.583424126
     0.551513334  0.703003682  0.581664375
     0.256054690  0.444096156  0.584223847
     0.178295854  0.009430358  0.579487853
     0.681144741  0.975997940  0.581587699
     0.416904844  0.320846386  0.560718413
     0.398988699  0.810102450  0.558399101
     0.893197971  0.267982581  0.558957685
     0.967633185  0.866941553  0.559498259
     0.206509585  0.402070795  0.564002517
     0.156538426  0.952992740  0.557904434
     0.687286771  0.909788340  0.561017850
     0.523529043  0.279178096  0.545120078
     0.518896603  0.805064071  0.544907816
     0.991565087  0.205250792  0.544786088
     0.058431213  0.789409024  0.545456815
     0.217883334  0.501235994  0.540844809
     0.274440825  0.957117679  0.543754571
     0.791825579  0.962659399  0.546403843
     0.437129635  0.288965761  0.674822534
     0.433397484  0.821009399  0.671566389
     0.966161045  0.278569127  0.680972995
     0.937092043  0.796290676  0.676040185
     0.300160966  0.048374014  0.676680510
     0.298428097  0.553015124  0.676107520
     0.802421996  0.054998232  0.675113363
     0.808129050  0.553854502  0.675428917
     0.084017746  0.170081226  0.644977575
     0.091857653  0.686016708  0.653584521
     0.578869989  0.173624361  0.649190820
     0.561382245  0.670944653  0.658130536
     0.182375970  0.412669669  0.650238759
     0.172096198  0.923519808  0.647780138
     0.668803394  0.423314188  0.654529901
     0.666480203  0.929887964  0.650929999
     0.069895322  0.182476411  0.672289068
     0.040292905  0.692671066  0.676730020
     0.536192719  0.184413611  0.673886556
     0.524632715  0.715909078  0.680320765
     0.209725313  0.440721749  0.675618408
     0.192430965  0.950577526  0.673740897
     0.708786932  0.447959680  0.678773641
     0.692681936  0.963551772  0.675888909
     0.422735694  0.334971408  0.650683123
     0.421043524  0.838497529  0.644435597
     0.925018352  0.318954090  0.658396031
     0.933675490  0.844503743  0.652348068
     0.337539813  0.073804067  0.652296849
     0.320836126  0.589072576  0.651204284
     0.839381912  0.073300978  0.649860021
     0.816963527  0.588442699  0.650117947
     0.993068685  0.256357767  0.635086376
     0.030380698  0.783407086  0.636573917
     0.512124053  0.268497939  0.632754488
     0.500584819  0.746547268  0.633814881
     0.262122290  0.998720371  0.632313421
     0.250217970  0.505942593  0.632878231
     0.758988835  0.996151428  0.632700095
     0.731900436  0.508912252  0.635084788
     0.448745018  0.301283966  0.768889017
     0.448745007  0.801283913  0.768889017
     0.948744965  0.301283966  0.768889017
     0.948745007  0.801283913  0.768889017
     0.301275995  0.051294496  0.768872961
     0.301276011  0.551294499  0.768872961
     0.801275943  0.051294496  0.768872961
     0.801275984  0.551294499  0.768872961
     0.078771004  0.171180501  0.743441971
     0.078771006  0.671180448  0.743441971
     0.578771004  0.171180501  0.743441971
     0.578770992  0.671180448  0.743441971
     0.171199499  0.421174482  0.743421032
     0.171199501  0.921174508  0.743421032
     0.671199512  0.421174482  0.743421032
     0.671199501  0.921174508  0.743421032
     0.051256000  0.198714991  0.768889017
     0.051256002  0.698714925  0.768889017
     0.551256027  0.198714991  0.768889017
     0.551256016  0.698714925  0.768889017
     0.198723491  0.448703970  0.768872046
     0.198723493  0.948703970  0.768872046
     0.698723518  0.448703970  0.768872046
     0.698723507  0.948703970  0.768872046
     0.421231519  0.328817467  0.743441971
     0.421231508  0.828817440  0.743441971
     0.921231466  0.328817467  0.743441971
     0.921231508  0.828817440  0.743441971
     0.328800503  0.078824997  0.743421032
     0.328800492  0.578824964  0.743421032
     0.828800477  0.078824997  0.743421032
     0.828800519  0.578824964  0.743421032
     0.000003500  0.250001478  0.725821992
     0.000003500  0.750001452  0.725821992
     0.500003506  0.250001478  0.725821992
     0.500003495  0.750001452  0.725821992
     0.250000502  0.000000000  0.725803983
     0.250000517  0.500000000  0.725803983
     0.750000502  0.000000000  0.725803983
     0.750000490  0.500000000  0.725803983
     0.782153496  0.508635909  0.520097678
     0.868989066  0.508950161  0.533089229
     0.757640933  0.629639057  0.539896072
     0.767486607  0.629947237  0.567593140
     0.678740678  0.458309984  0.559297413
     0.674064211  0.552249504  0.565364362
     0.803775220  0.429886895  0.572291040
     0.872166420  0.500636899  0.572846815
     0.860773264  0.384693751  0.543020171
     0.763130660  0.379546767  0.539543401
     0.773147626  0.385272625  0.500849352
     0.862109338  0.421480497  0.502049787
     0.891394085  0.618106244  0.533615458
     0.910407505  0.611215932  0.561082682
     0.869376069  0.693358968  0.549951489
     0.594672647  0.525663063  0.535731420
     0.664390528  0.482564931  0.520726893
     0.670381378  0.580372517  0.525550124
     0.729580612  0.480389402  0.598399350
     0.751029569  0.572092729  0.593145980
     0.816643726  0.517397741  0.606103223
     0.835071926  0.267568330  0.518600675
     0.843247032  0.280592415  0.491033180
     0.938396479  0.178184169  0.503325677
     0.975775766  0.413081993  0.513936656
     0.072607447  0.156407756  0.503685124
     0.106736178  0.390253982  0.515561859
     0.159709465  0.263559823  0.510941947
     0.995751927  0.227138489  0.560671956
     0.027812874  0.772764601  0.560109343
     0.506777322  0.254918106  0.560358111
     0.505415946  0.772425059  0.559080146
     0.242503606  0.504183901  0.556650827
     0.262482851  0.987060431  0.558425474
     0.767322202  0.987296331  0.560561338
     0.004989633  0.244453549  0.651846136
     0.013400451  0.764635074  0.652649276
     0.500878444  0.254010118  0.649791648
     0.492455875  0.754317083  0.650978226
     0.251063476  0.500085955  0.650373796
     0.254403909  0.998597920  0.649906906
     0.743212009  0.506382609  0.652149298
     0.752483018  0.000814379  0.650201643
     0.499988984  0.249994984  0.743277021
     0.499989025  0.749994958  0.743277021
     0.999988984  0.249994984  0.743277021
     0.999989025  0.749994958  0.743277021
     0.250000502  0.000001000  0.743255960
     0.250000517  0.500001003  0.743255960
     0.750000502  0.000001000  0.743255960
     0.750000491  0.500001003  0.743255960
     0.945694855  0.296366494  0.508040121
     0.975772533  0.225934649  0.505427019
     0.994587575  0.356143340  0.511600587
     0.051632345  0.212435517  0.506282842
     0.070354933  0.343631868  0.512080419
     0.100085402  0.271747796  0.509515941
     0.812672661  0.489571398  0.533918436
     0.791127238  0.606905105  0.552747702
     0.693300848  0.512650646  0.553407746
     0.812223320  0.489438928  0.573558200
     0.814311485  0.403533528  0.532877151
     0.826270810  0.382041300  0.509619478
     0.870475255  0.632384326  0.549402978
     0.654921781  0.526718700  0.532345184
     0.775470781  0.517348058  0.593662136
     0.860408421  0.303369607  0.506582402
     0.058496689  0.217435750  0.570756004
     0.045292127  0.708437516  0.568643826
     0.548916540  0.204438328  0.568783625
     0.556567857  0.731734872  0.567576962
     0.445729981  0.281479786  0.568728926
     0.436485247  0.778437397  0.566175864
     0.939561636  0.265023956  0.568130235
     0.975553929  0.817696449  0.566957331
     0.232994276  0.447403509  0.568920432
     0.194404797  0.981533931  0.565553975
     0.706387901  0.956615798  0.567737700
     0.316580214  0.025441949  0.566899214
     0.277292689  0.566599022  0.561536081
     0.801917731  0.044366081  0.568779595
     0.054603633  0.196899080  0.656843108
     0.049347612  0.712088372  0.661724272
     0.540204709  0.202164423  0.658248967
     0.527903940  0.711230356  0.664011961
     0.212353272  0.448356085  0.659613193
     0.203225874  0.955094564  0.657945867
     0.703862512  0.455858850  0.662450247
     0.701254329  0.962584789  0.659905060
     0.449834797  0.295151460  0.659474799
     0.445890732  0.808146612  0.656331836
     0.961732940  0.283926009  0.665066432
     0.958495504  0.803182888  0.660796413
     0.299449971  0.042382805  0.660545203
     0.292871066  0.550739595  0.660181910
     0.801516009  0.045750239  0.659347942
     0.791034590  0.551338374  0.659931982
     0.045862501  0.204119496  0.752725994
     0.045862500  0.704119456  0.752725994
     0.545862507  0.204119496  0.752725994
     0.545862496  0.704119456  0.752725994
     0.204119002  0.454101003  0.752704994
     0.204118991  0.954100951  0.752704994
     0.704118976  0.454101003  0.752704994
     0.704118964  0.954100951  0.752704994
     0.454140018  0.295888490  0.752726971
     0.454140007  0.795888516  0.752726971
     0.954140018  0.295888490  0.752726971
     0.954140060  0.795888516  0.752726971
     0.295882492  0.045900498  0.752704994
     0.295882481  0.545900528  0.752704994
     0.795882439  0.045900498  0.752704994
     0.795882481  0.545900528  0.752704994
     0.777518012  0.522330788  0.553457073
     0.502578154  0.997557447  0.552493501
     0.460898841  0.477837742  0.555364009
     0.989577065  0.010275974  0.551226097
     0.032211184  0.491114939  0.558644512
     0.249427051  0.246126048  0.554691695
     0.243901538  0.765102176  0.551737674
     0.740522320  0.227246276  0.555022754
     0.717014055  0.785183782  0.544972527
     0.003874202  0.997002124  0.653750814
     0.998672456  0.506021525  0.656899515
     0.496466126  0.999234933  0.655225841
     0.494749197  0.496678972  0.654981224
     0.253625919  0.243251767  0.655677408
     0.254759924  0.750453189  0.654083645
     0.744463535  0.245705065  0.654961811
     0.756493656  0.758137842  0.653704479
     0.150323608  0.103505303  0.608682535
     0.152227868  0.607540842  0.608394452
     0.643480916  0.107044914  0.609586341
     0.611497458  0.639342588  0.615143971
     0.362387155  0.388681112  0.612549397
     0.362241979  0.892916544  0.608435965
     0.887969784  0.364145017  0.615761588
     0.859988770  0.894071547  0.607272585
     0.115777139  0.356965242  0.610430687
     0.111042144  0.867398464  0.607413055
     0.617126630  0.367694844  0.607317760
     0.614522867  0.866304548  0.610792088
     0.397670618  0.142931341  0.609518762
     0.386168950  0.642878767  0.606864666
     0.886256928  0.136077156  0.612564964
     0.914377665  0.664996464  0.614458654
     0.000000000  0.000000000  0.754927972
     0.000000000  0.500000000  0.754927972
     0.500000000  0.000000000  0.754927972
     0.499999989  0.500000000  0.754927972
     0.250000496  0.250000000  0.754939022
     0.250000511  0.749999974  0.754939022
     0.750000470  0.250000000  0.754939022
     0.750000458  0.749999974  0.754939022
     0.135790500  0.114209997  0.704782994
     0.135790502  0.614209984  0.704782994
     0.635790447  0.114209997  0.704782994
     0.635790488  0.614209984  0.704782994
     0.364209516  0.385789989  0.704782994
     0.364209505  0.885789963  0.704782994
     0.864209542  0.385789989  0.704782994
     0.864209531  0.885789963  0.704782994
     0.114217990  0.364218986  0.704780979
     0.114217992  0.864218986  0.704780979
     0.614218004  0.364218986  0.704780979
     0.614217992  0.864218986  0.704780979
     0.385782012  0.135781489  0.704782017
     0.385782001  0.635781489  0.704782017
     0.885781985  0.135781489  0.704782017
     0.885782027  0.635781489  0.704782017
     0.134667000  0.115332001  0.801256025
     0.134666989  0.615331988  0.801256025
     0.634666987  0.115332001  0.801256025
     0.634666976  0.615331988  0.801256025
     0.365333002  0.384667985  0.801256025
     0.365332990  0.884667959  0.801256025
     0.865332949  0.384667985  0.801256025
     0.865332938  0.884667959  0.801256025
     0.115328503  0.365337004  0.801264999
     0.115328505  0.865336978  0.801264999
     0.615328503  0.365337004  0.801264999
     0.615328492  0.865336978  0.801264999
     0.384671513  0.134662996  0.801264999
     0.384671501  0.634662970  0.801264999
     0.884671486  0.134662996  0.801264999
     0.884671528  0.634662970  0.801264999
     0.997271649  0.003925452  0.602931873
     0.009237695  0.505603420  0.607440221
     0.500488654  0.996354441  0.602559362
     0.495769199  0.499570913  0.603703390
     0.252351921  0.249043174  0.604754442
     0.245978689  0.755182966  0.602756240
     0.751077633  0.250088278  0.604914264
     0.750418134  0.754845905  0.604527651
     0.000000500  0.000000500  0.704828963
     0.000000500  0.500000475  0.704828963
     0.500000475  0.000000500  0.704828963
     0.500000464  0.500000475  0.704828963
     0.249999994  0.249999472  0.704824995
     0.250000010  0.749999498  0.704824995
     0.749999994  0.249999472  0.704824995
     0.749999983  0.749999498  0.704824995
     0.000000000  0.000000000  0.807317968
     0.000000000  0.500000000  0.807317968
     0.500000000  0.000000000  0.807317968
     0.499999989  0.500000000  0.807317968
     0.249999994  0.250000000  0.807317968
     0.250000010  0.749999974  0.807317968
     0.749999994  0.250000000  0.807317968
     0.749999983  0.749999974  0.807317968

  ion indices of the primitive-cell ions
   primitive index   ion index
                 1           1
                 2           2
                 3           3
                 4           4
                 5           5
                 6           6
                 7           7
                 8           8
                 9           9
                10          10
                11          11
                12          12
                13          13
                14          14
                15          15
                16          16
                17          17
                18          18
                19          19
                20          20
                21          21
                22          22
                23          23
                24          24
                25          25
                26          26
                27          27
                28          28
                29          29
                30          30
                31          31
                32          32
                33          33
                34          34
                35          35
                36          36
                37          37
                38          38
                39          39
                40          40
                41          41
                42          42
                43          43
                44          44
                45          45
                46          46
                47          47
                48          48
                49          49
                50          50
                51          51
                52          52
                53          53
                54          54
                55          55
                56          56
                57          57
                58          58
                59          59
                60          60
                61          61
                62          62
                63          63
                64          64
                65          65
                66          66
                67          67
                68          68
                69          69
                70          70
                71          71
                72          72
                73          73
                74          74
                75          75
                76          76
                77          77
                78          78
                79          79
                80          80
                81          81
                82          82
                83          83
                84          84
                85          85
                86          86
                87          87
                88          88
                89          89
                90          90
                91          91
                92          92
                93          93
                94          94
                95          95
                96          96
                97          97
                98          98
                99          99
               100         100
               101         101
               102         102
               103         103
               104         104
               105         105
               106         106
               107         107
               108         108
               109         109
               110         110
               111         111
               112         112
               113         113
               114         114
               115         115
               116         116
               117         117
               118         118
               119         119
               120         120
               121         121
               122         122
               123         123
               124         124
               125         125
               126         126
               127         127
               128         128
               129         129
               130         130
               131         131
               132         132
               133         133
               134         134
               135         135
               136         136
               137         137
               138         138
               139         139
               140         140
               141         141
               142         142
               143         143
               144         144
               145         145
               146         146
               147         147
               148         148
               149         149
               150         150
               151         151
               152         152
               153         153
               154         154
               155         155
               156         156
               157         157
               158         158
               159         159
               160         160
               161         161
               162         162
               163         163
               164         164
               165         165
               166         166
               167         167
               168         168
               169         169
               170         170
               171         171
               172         172
               173         173
               174         174
               175         175
               176         176
               177         177
               178         178
               179         179
               180         180
               181         181
               182         182
               183         183
               184         184
               185         185
               186         186
               187         187
               188         188
               189         189
               190         190
               191         191
               192         192
               193         193
               194         194
               195         195
               196         196
               197         197
               198         198
               199         199
               200         200
               201         201
               202         202
               203         203
               204         204
               205         205
               206         206
               207         207
               208         208
               209         209
               210         210
               211         211
               212         212
               213         213
               214         214
               215         215
               216         216
               217         217
               218         218
               219         219
               220         220
               221         221
               222         222
               223         223
               224         224
               225         225
               226         226
               227         227
               228         228
               229         229
               230         230
               231         231
               232         232
               233         233
               234         234
               235         235
               236         236
               237         237
               238         238
               239         239
               240         240
               241         241
               242         242
               243         243
               244         244
               245         245
               246         246
               247         247
               248         248
               249         249
               250         250
               251         251
               252         252
               253         253
               254         254
               255         255
               256         256
               257         257
               258         258
               259         259
               260         260
               261         261
               262         262
               263         263
               264         264
               265         265
               266         266
               267         267
               268         268
               269         269
               270         270
               271         271
               272         272
               273         273
               274         274
               275         275
               276         276
               277         277
               278         278
               279         279
               280         280
               281         281
               282         282
               283         283
               284         284
               285         285
               286         286
               287         287
               288         288
               289         289
               290         290
               291         291
               292         292
               293         293
               294         294
               295         295
               296         296
               297         297
               298         298
               299         299
               300         300
               301         301
               302         302
               303         303
               304         304
               305         305
               306         306
               307         307
               308         308
               309         309
               310         310
               311         311
               312         312
               313         313
               314         314
               315         315
               316         316
               317         317
               318         318
               319         319
               320         320
               321         321
               322         322
               323         323
               324         324
               325         325

----------------------------------------------------------------------------------------

 
 
 KPOINTS: Automatic Mesh                          

Automatic generation of k-mesh.
 Grid dimensions read from file:
 generate k-points for:    3    3    1

 Generating k-lattice:

  Cartesian coordinates                     Fractional coordinates (reciprocal lattice)
     0.018456177  0.000005026 -0.000000000     0.333333333  0.000000000  0.000000000
     0.000000000  0.018454135  0.000000000     0.000000000  0.333333333  0.000000000
     0.000000000 -0.000000000  0.016003201     0.000000000  0.000000000  1.000000000

  Length of vectors
     0.018456178  0.018454135  0.016003201

  Shift w.r.t. Gamma in fractional coordinates (k-lattice)
     0.000000000  0.000000000  0.000000000

 
 Subroutine IBZKPT returns following result:
 ===========================================
 
 Found      5 irreducible k-points:
 
 Following reciprocal coordinates:
            Coordinates               Weight
  0.000000  0.000000  0.000000      1.000000
  0.333333  0.000000  0.000000      2.000000
  0.000000  0.333333  0.000000      2.000000
  0.333333  0.333333  0.000000      2.000000
 -0.333333  0.333333  0.000000      2.000000
 
 Following cartesian coordinates:
            Coordinates               Weight
  0.000000  0.000000  0.000000      1.000000
  0.018456  0.000005  0.000000      2.000000
  0.000000  0.018454  0.000000      2.000000
  0.018456  0.018459  0.000000      2.000000
 -0.018456  0.018449  0.000000      2.000000
 


--------------------------------------------------------------------------------------------------------




 Dimension of arrays:
   k-points           NKPTS =      5   k-points in BZ     NKDIM =      5   number of bands    NBANDS=    732
   number of dos      NEDOS =    301   number of ions     NIONS =    325
   non local maximal  LDIM  =      5   non local SUM 2l+1 LMDIM =     13
   total plane-waves  NPLWV = ******
   max r-space proj   IRMAX =   3336   max aug-charges    IRDMAX=  19845
   dimension x,y,z NGX =   100 NGY =  100 NGZ =  350
   dimension x,y,z NGXF=   200 NGYF=  200 NGZF=  700
   support grid    NGXF=   200 NGYF=  200 NGZF=  700
   ions per type =             143  39  47  72  24
   NGX,Y,Z   is equivalent  to a cutoff of   9.20,  9.20,  9.31 a.u.
   NGXF,Y,Z  is equivalent  to a cutoff of  18.41, 18.41, 18.62 a.u.

 SYSTEM =  PSC                                     
 POSCAR =   H  C  N  I Pb                          

 Startparameter for this run:
   NWRITE =      2    write-flag & timer
   PREC   = normal    normal or accurate (medium, high low for compatibility)
   ISTART =      0    job   : 0-new  1-cont  2-samecut
   ICHARG =      1    charge: 1-file 2-atom 10-const
   ISPIN  =      1    spin polarized calculation?
   LNONCOLLINEAR =      F non collinear calculations
   LSORBIT =      F    spin-orbit coupling
   INIWAV =      1    electr: 0-lowe 1-rand  2-diag
   LASPH  =      F    aspherical Exc in radial PAW
 Electronic Relaxation 1
   ENCUT  =  500.0 eV  36.75 Ry    6.06 a.u.  32.93 32.93113.93*2*pi/ulx,y,z
   ENINI  =  500.0     initial cutoff
   ENAUG  =  644.9 eV  augmentation charge cutoff
   NELM   =    600;   NELMIN=  2; NELMDL=  0     # of ELM steps 
   EDIFF  = 0.1E-03   stopping-criterion for ELM
   LREAL  =      T    real-space projection
   NLSPLINE    = F    spline interpolate recip. space projectors
   LCOMPAT=      F    compatible to vasp.4.4
   GGA_COMPAT  = F    GGA compatible to vasp.4.4-vasp.4.6
   LMAXPAW     = -100 max onsite density
   LMAXMIX     =    2 max onsite mixed and CHGCAR
   VOSKOWN=      0    Vosko Wilk Nusair interpolation
   ROPT   =   -0.00050  -0.00050  -0.00050  -0.00050
   ROPT   =   -0.00050
 Ionic relaxation
   EDIFFG = 0.1E-02   stopping-criterion for IOM
   NSW    =      0    number of steps for IOM
   NBLOCK =      1;   KBLOCK =      1    inner block; outer block 
   IBRION =     -1    ionic relax: 0-MD 1-quasi-New 2-CG
   NFREE  =      0    steps in history (QN), initial steepest desc. (CG)
   ISIF   =      2    stress and relaxation
   IWAVPR =     10    prediction:  0-non 1-charg 2-wave 3-comb
   ISYM   =      0    0-nonsym 1-usesym 2-fastsym
   LCORR  =      T    Harris-Foulkes like correction to forces

   POTIM  = 0.5000    time-step for ionic-motion
   TEIN   =    0.0    initial temperature
   TEBEG  =    0.0;   TEEND  =   0.0 temperature during run
   SMASS  =  -3.00    Nose mass-parameter (am)
   estimated Nose-frequenzy (Omega)   =  0.10E-29 period in steps = 0.13E+47 mass=  -0.745E-26a.u.
   SCALEE = 1.0000    scale energy and forces
   NPACO  =    256;   APACO  = 16.0  distance and # of slots for P.C.
   PSTRESS=    0.0 pullay stress

  Mass of Ions in am
   POMASS =   1.00 12.01 14.00126.90207.20
  Ionic Valenz
   ZVAL   =   1.00  4.00  5.00  7.00  4.00
  Atomic Wigner-Seitz radii
   RWIGS  =  -1.00 -1.00 -1.00 -1.00 -1.00
  virtual crystal weights 
   VCA    =   1.00  1.00  1.00  1.00  1.00
   NELECT =    1134.0000    total number of electrons
   NUPDOWN=      -1.0000    fix difference up-down

 DOS related values:
   EMIN   =  10.00;   EMAX   =-10.00  energy-range for DOS
   EFERMI =   0.00
   ISMEAR =     0;   SIGMA  =   0.05  broadening in eV -4-tet -1-fermi 0-gaus

 Electronic relaxation 2 (details)
   IALGO  =     38    algorithm
   LDIAG  =      T    sub-space diagonalisation (order eigenvalues)
   LSUBROT=      F    optimize rotation matrix (better conditioning)
   TURBO    =      0    0=normal 1=particle mesh
   IRESTART =      0    0=no restart 2=restart with 2 vectors
   NREBOOT  =      0    no. of reboots
   NMIN     =      0    reboot dimension
   EREF     =   0.00    reference energy to select bands
   IMIX   =      4    mixing-type and parameters
     AMIX     =   0.40;   BMIX     =  0.01
     AMIX_MAG =   1.60;   BMIX_MAG =  0.01
     AMIN     =   0.01
     WC   =   100.;   INIMIX=   1;  MIXPRE=   1;  MAXMIX= -45

 Intra band minimization:
   WEIMIN = 0.0000     energy-eigenvalue tresh-hold
   EBREAK =  0.34E-07  absolut break condition
   DEPER  =   0.30     relativ break condition  

   TIME   =   0.40     timestep for ELM

  volume/ion in A,a.u.               =      62.72       423.28
  Fermi-wavevector in a.u.,A,eV,Ry     =   0.624944  1.180972  5.313816  0.390554
  Thomas-Fermi vector in A             =   1.685677
 
 Write flags
   LWAVE        =      F    write WAVECAR
   LDOWNSAMPLE  =      F    k-point downsampling of WAVECAR
   LCHARG       =      T    write CHGCAR
   LVTOT        =      T    write LOCPOT, total local potential
   LVHAR        =      F    write LOCPOT, Hartree potential only
   LELF         =      F    write electronic localiz. function (ELF)
   LORBIT       =      0    0 simple, 1 ext, 2 COOP (PROOUT), +10 PAW based schemes


 Dipole corrections
   LMONO  =      F    monopole corrections only (constant potential shift)
   LDIPOL =      T    correct potential (dipole corrections)
   IDIPOL =      3    1-x, 2-y, 3-z, 4-all directions 
   EPSILON=  1.0000000 bulk dielectric constant

 Exchange correlation treatment:
   GGA     =    --    GGA type
   LEXCH   =     8    internal setting for exchange type
   VOSKOWN=      0    Vosko Wilk Nusair interpolation
   LHFCALC =     F    Hartree Fock is set to
   LHFONE  =     F    Hartree Fock one center treatment
   AEXX    =    0.0000 exact exchange contribution

 Linear response parameters
   LEPSILON=     F    determine dielectric tensor
   LRPA    =     F    only Hartree local field effects (RPA)
   LNABLA  =     F    use nabla operator in PAW spheres
   LVEL    =     F    velocity operator in full k-point grid
   LINTERFAST=   F  fast interpolation
   KINTER  =     0    interpolate to denser k-point grid
   CSHIFT  =0.1000    complex shift for real part using Kramers Kronig
   OMEGAMAX=  -1.0    maximum frequency
   DEG_THRESHOLD= 0.2000000E-02 threshold for treating states as degnerate
   RTIME   =   -0.100 relaxation time in fs
  (WPLASMAI=    0.000 imaginary part of plasma frequency in eV, 0.658/RTIME)
   DFIELD  = 0.0000000 0.0000000 0.0000000 field for delta impulse in time
 
 Orbital magnetization related:
   ORBITALMAG=     F  switch on orbital magnetization
   LCHIMAG   =     F  perturbation theory with respect to B field
   DQ        =  0.001000  dq finite difference perturbation B field
   LLRAUG    =     F  two centre corrections for induced B field



--------------------------------------------------------------------------------------------------------


 Static calculation
 charge density and potential will be updated during run
 non-spin polarized calculation
 Variant of blocked Davidson
 Davidson routine will perform the subspace rotation
 perform sub-space diagonalisation
    after iterative eigenvector-optimisation
 modified Broyden-mixing scheme, WC =      100.0
 initial mixing is a Kerker type mixing with AMIX =  0.4000 and BMIX =      0.0100
 Hartree-type preconditioning will be used
 using additional bands           165
 real space projection scheme for non local part
[...]
     13.54561      0.00000     45.35368        -0.001503      0.000329      0.012873
     13.54315      9.03140     45.35368        -0.001963     -0.002831      0.020769
     14.12382      9.18739     32.49960        -0.208732      0.465153     -0.299349
     15.69213      9.19306     33.31141         0.533215      0.271006      0.036404
     13.68050     11.37304     33.73676        -0.271336     -0.101332     -0.236216
     13.85832     11.37861     35.46748         0.171099     -0.208488     -0.165583
     12.25635      8.27836     34.94910         0.178642     -0.619091      0.246275
     12.17142      9.97517     35.32821        -0.142704      0.093630      0.168006
     14.51471      7.76496     35.76104         0.108600     -0.221128     -0.036082
     15.74956      9.04290     35.79576        -0.182510      0.044087     -0.124157
     15.54436      6.94865     33.93197        -0.130882     -0.078130     -0.148299
     13.78088      6.85568     33.71472         0.142226     -0.054121     -0.158128
     13.96177      6.95910     31.29682         0.128252     -0.072042      0.129957
     15.56831      7.61312     31.37184         0.585936      0.698030     -0.456374
     16.09625     11.16473     33.34430         0.073007     -0.087021     -0.308847
     16.43968     11.04027     35.06065        -0.084476      0.048985      0.140925
     15.69822     12.52400     34.36509        -0.031050     -0.100509      0.157969
     10.73768      9.49495     33.47652         0.262443      0.161404     -0.049895
     11.99705      8.71647     32.53892         0.136029     -0.081903     -0.167601
     12.10477     10.48315     32.84031        -0.163044      0.072385     -0.159956
     13.17445      8.67718     37.39248         0.195740      0.025045     -0.000358
     13.56138     10.33360     37.06421         0.100918      0.448285     -0.185464
     14.74669      9.34565     37.87387         0.326666      0.014965      0.587922
     15.08075      4.83303     32.40606        -0.078689     -0.329831      0.181207
     15.22834      5.06828     30.68344         0.013352      0.045432     -0.052212
     16.94732      3.21850     31.45156         0.106366      0.284586     -0.066648
     17.62126      7.46142     32.11462        -0.176095     -0.165021      0.020158
      1.31058      2.82516     31.47402        -0.006434      0.045518      0.135168
      1.92582      7.04908     32.21617         0.104321     -0.012536     -0.060941
      2.88318      4.76063     31.92748        -0.035685     -0.054535     -0.088126
     17.98296      4.10276     35.03499         0.260738      0.650852      0.725044
      0.49852     13.95829     34.99983         0.234345      0.082085     -0.852410
      9.15155      4.60453     35.01538        -0.173726      0.797435     -0.592199
      9.12442     13.95216     34.93552        -1.235343      0.556106     -0.141648
      4.37733      9.10697     34.78372         0.162085      1.351610     -0.639892
      4.73580     17.82907     34.89461         0.038039     -0.089571     -0.439141
     13.85360     17.83334     35.02808         0.003222     -0.217607     -0.226358
      0.08891      4.41552     40.73223        -2.162473      1.929829      0.007464
      0.23826     13.81145     40.78242        -0.988984      1.805344     -1.200479
      9.04502      4.58813     40.60386        -0.972437      1.712766     -1.007352
      8.89044     13.62508     40.67800        -1.185109      1.376855     -0.637410
      4.53195      9.03295     40.64023         1.073464      1.470869     -0.177664
      4.58983     18.03747     40.61106         0.327774      0.162410     -0.621618
     13.42051      9.14669     40.75118        -1.708865     -1.636733     -0.707173
     13.59044      0.01471     40.62947         1.242927      0.872772     -0.440183
      9.02897      4.51561     46.44552         0.012706      0.005005      0.038902
      9.02651     13.54701     46.44552         0.006936      0.007115      0.055878
     18.05937      4.51561     46.44552        -0.000755      0.016884      0.059163
     18.05691     13.54701     46.44552         0.032316     -0.014640      0.050299
      4.51521      0.00002     46.44421         0.001992     -0.001147      0.063242
      4.51275      9.03142     46.44421        -0.005844     -0.006469      0.054259
     13.54561      0.00002     46.44421         0.000285      0.001331      0.053456
     13.54315      9.03142     46.44421        -0.020844     -0.023126      0.053005
     17.07855      5.35321     31.74616        -0.848516      0.722335      0.082662
     17.62212      4.08101     31.58287        -0.286747     -0.795036      0.070781
     17.96130      6.43295     31.96864        -0.444651     -0.295652     -0.236473
      0.93148      3.83718     31.63635         0.327789      0.223384     -0.203190
      1.26898      6.20695     31.99862         0.583162     -0.615782      0.187386
      1.80629      4.90853     31.83838        -0.240664      0.596996      0.188253
     14.67511      8.84303     33.36323        -0.263902     -1.467487      0.139216
     14.28541     10.96241     34.53982         0.249484     -0.076864      0.272036
     12.51905      9.25991     34.58107         0.086110      0.296902      0.118362
     14.66700      8.84064     35.84022        -0.428653      0.304229     -0.377902
     14.70513      7.28895     33.29816         0.061393      0.940355      0.542197
     14.92123      6.90074     31.84485        -0.150603     -1.344682     -0.110819
     15.71837     11.42263     34.33082        -0.116219      0.078285      0.183320
     11.82582      9.51401     33.26492        -0.225512     -0.002309      0.064327
     14.00308      9.34475     37.09646        -0.569474     -0.550175      0.169353
     15.53817      5.47970     31.65507         0.386697      0.726821     -0.006002
      1.05543      3.92750     35.66512        -0.071006     -0.436139     -0.519719
      0.81453     12.79636     35.53313        -0.610078      1.073030     -0.170634
      9.91287      3.69273     35.54187        -1.017029     -0.105490      0.880927
     10.04846     13.21718     35.46646         0.221365     -0.568739      0.624508
      8.04886      5.08431     35.53845         0.942161      0.159840     -1.624282
      7.87944     14.06076     35.37891         1.007728      0.166465     -0.710581
     16.96793      4.78707     35.50104        -0.301690     -0.001473     -0.470035
     17.61526     14.76989     35.42775         0.635060     -0.926667     -0.358325
      4.20586      8.08136     35.55042         0.993087      0.127224      1.889684
      3.50628     17.72925     35.34005         1.045338      1.461221      1.667926
     12.75323     17.27916     35.47651         0.134806      1.565960      1.210090
      5.71757      0.45955     35.42411        -1.469042      0.514173      1.188782
      5.00534     10.23436     35.08899        -0.091941     -2.090918      1.796289
     14.48306      0.80138     35.54161        -1.982314     -0.112193      1.472522
      0.98522      3.55655     41.04448         1.513877     -1.378700      0.462044
      0.88775     12.86231     41.34949         1.434593     -1.568952      0.121537
      9.75554      3.65166     41.13233         1.077930     -1.484434      0.632971
      9.53087     12.84681     41.49245         0.342074     -0.293105      0.948468
      3.83306      8.09857     41.21758        -0.323403     -0.345370     -0.508858
      3.66572     17.25168     41.11339         0.179340      0.096897     -0.562131
     12.71008      8.23409     41.39486         1.309365      1.057860      1.083941
     12.66048     17.38698     41.23582        -0.342216     -0.330880     -0.509254
      8.12292      5.33126     41.20893         0.859265     -0.354366     -1.630290
      8.04917     14.59739     41.01254         0.794659     -0.845146     -0.867555
     17.36827      5.12850     41.55834         1.477503     -1.302932     -0.993498
     17.30725     14.50773     41.29152        -0.422076     -0.193148      0.864938
      5.40810      0.76555     41.27582         0.111209      0.139813     -0.446574
      5.28678      9.94790     41.25312        -0.686413     -0.830270     -1.236939
     14.47580      0.82638     41.20100        -0.570394     -0.649370     -1.215165
     14.28401      9.95871     41.23750         1.296899      1.208082      0.310773
      0.82731      3.68697     47.03596         0.025671     -0.034246     -0.097966
      0.82485     12.71837     47.03596         0.007364     -0.009410     -0.098335
      9.85771      3.68697     47.03596         0.020122     -0.024059     -0.088840
      9.85525     12.71837     47.03596         0.025621     -0.020120     -0.090147
      3.68432      8.20234     47.03465        -0.007606     -0.008272     -0.078747
      3.68186     17.23373     47.03465        -0.012186     -0.007150     -0.074440
     12.71472      8.20234     47.03465         0.003075      0.002988     -0.075125
     12.71226     17.23373     47.03465        -0.006625     -0.016992     -0.075872
      8.20068      5.34457     47.03603        -0.020194      0.016440     -0.091899
      8.19822     14.37597     47.03603        -0.016894      0.012913     -0.098953
     17.23108      5.34457     47.03603        -0.011488      0.007463     -0.104621
     17.22862     14.37597     47.03603        -0.033170      0.025774     -0.088903
      5.34365      0.82909     47.03465         0.008161      0.010218     -0.085273
      5.34119      9.86049     47.03465         0.012277      0.014426     -0.072922
     14.37405      0.82909     47.03465         0.013098      0.006122     -0.076577
     14.37159      9.86049     47.03465         0.021345      0.030768     -0.077022
     14.04003      9.43476     34.58415         0.242417      0.762601     -0.308709
      9.07206     18.01868     34.52394         0.041002     -0.073255      0.073630
      8.32185      8.63109     34.70331         0.036390      0.010813     -0.021099
     17.87250      0.18561     34.44474         0.082396     -0.014060     -0.010504
      0.57934      8.87091     34.90830        -0.077944      0.062740     -0.213409
      4.50364      4.44573     34.66130        -0.007496      0.004479      0.076841
      4.40129     13.81989     34.47671        -0.071641      0.023285     -0.040341
     13.37331      4.10470     34.68198         0.048847     -0.024344     -0.055042
     12.94599     14.18262     34.05397         0.228693      0.017787      0.092779
      0.06507     18.00865     40.85125        -0.000805      0.050530      0.061917
     18.03434      9.14017     41.04801         0.044578     -0.020198     -0.131181
      8.96166     18.04898     40.94342         0.070765      0.088922     -0.080544
      8.93312      8.97141     40.92814         0.052372      0.065300      0.054607
      4.57949      4.39381     40.97164        -0.037614     -0.010187     -0.040472
      4.59748     13.55529     40.87205        -0.104781      0.028507      0.014072
     13.44440      4.43812     40.92693        -0.033083      0.044076      0.137288
     13.65915     13.69409     40.84836        -0.036721     -0.012395     -0.084212
      2.71446      1.86960     38.03505        -0.079294      0.009405      0.063600
      2.74637     10.97389     38.01705        -0.080820     -0.060576      0.046773
     11.62125      1.93353     38.09153         0.032075     -0.048860      0.018819
     11.04099     11.54832     38.43881         0.308358     -0.183466     -0.208749
      6.54309      7.02067     38.27668        -0.108302     -0.010245     -0.028657
      6.53799     16.12857     38.01964        -0.116107     -0.112396     -0.001185
     16.03565      6.57748     38.47740        -0.064858      0.138462     -0.180383
     15.52769     16.14944     37.94695        -0.034646     -0.051862      0.039417
      2.08927      6.44779     38.14429        -0.016222      0.090911      0.096691
      2.00124     15.66764     37.95572         0.111606     -0.026373      0.033763
     11.14399      6.64160     37.94977        -0.023838      0.034115     -0.027892
     11.09451     15.64789     38.16687         0.103789     -0.072668      0.068062
      7.18155      2.58174     38.08730        -0.037087     -0.044974     -0.005817
      6.97136     11.61219     37.92146        -0.087011     -0.062896      0.002805
     16.00584      2.45793     38.27765         0.107786     -0.038992     -0.024706
     16.51112     12.01170     38.39598        -0.076705     -0.165950     -0.377303
      0.00000      0.00000     47.17356         0.000112     -0.001044      0.362054
     -0.00246      9.03140     47.17356        -0.002772      0.003616      0.575275
      9.03040      0.00000     47.17356        -0.001769     -0.003407      0.508208
      9.02794      9.03140     47.17356        -0.000026      0.002887      0.490457
      4.51398      4.51570     47.17425        -0.002014     -0.007695      0.503553
      4.51152     13.54710     47.17425        -0.000300      0.002212      0.409958
     13.54438      4.51570     47.17425         0.003138     -0.004461      0.461991
     13.54192     13.54710     47.17425         0.003313      0.000392      0.253323
      2.45192      2.06295     44.04013        -0.021718     -0.039424     -0.031221
      2.44946     11.09435     44.04013         0.048315     -0.016516      0.030251
     11.48232      2.06295     44.04013        -0.018740     -0.040424     -0.034966
     11.47986     11.09435     44.04013         0.064742      0.032141     -0.030799
      6.57602      6.96845     44.04013        -0.071593      0.009552      0.022841
      6.57356     15.99985     44.04013        -0.028972      0.008630      0.021077
     15.60642      6.96845     44.04013        -0.080257      0.060152      0.011688
     15.60396     15.99985     44.04013        -0.049242      0.028094      0.043748
      2.06108      6.57881     44.04000         0.013043     -0.024735     -0.014191
      2.05862     15.61021     44.04000         0.015354      0.039133     -0.011632
     11.09148      6.57881     44.04000        -0.031491     -0.051432      0.073029
     11.08902     15.61021     44.04000         0.014363     -0.038078     -0.015201
      6.96686      2.45259     44.04007         0.054450      0.035054      0.023341
      6.96440     11.48399     44.04007         0.001883      0.044700      0.053257
     15.99726      2.45259     44.04007         0.055995     -0.009642      0.032146
     15.99481     11.48399     44.04007        -0.008231      0.075589     -0.015254
      2.43163      2.08322     50.06849        -0.006539     -0.028250      0.019160
      2.42917     11.11462     50.06849         0.019582      0.002036      0.020383
     11.46203      2.08322     50.06849         0.010673     -0.013272      0.021652
     11.45957     11.11462     50.06849         0.031553      0.011043      0.020028
      6.59631      6.94818     50.06849        -0.007963      0.012206      0.022197
      6.59385     15.97958     50.06849        -0.014584      0.005164      0.020082
     15.62671      6.94818     50.06849        -0.015289      0.003963      0.020693
     15.62425     15.97958     50.06849        -0.017233      0.003029      0.018059
      2.08113      6.59901     50.06905        -0.009049     -0.012641      0.021415
      2.07867     15.63041     50.06905        -0.018012     -0.003314      0.019535
     11.11153      6.59901     50.06905        -0.007819     -0.011261      0.022334
     11.10907     15.63041     50.06905         0.009649     -0.029634      0.019755
      6.94681      2.43239     50.06905         0.013620      0.003184      0.021054
      6.94435     11.46379     50.06905         0.004584      0.017650      0.021763
     15.97721      2.43239     50.06905         0.022717     -0.004140      0.020046
     15.97475     11.46379     50.06905        -0.014466      0.036148      0.019192
     18.01151      0.07090     37.67570        -0.040137      0.076474      0.068361
      0.16435      9.13261     37.95742         0.010399     -0.064409     -0.127740
      9.03433     17.99695     37.65243         0.059336      0.085365      0.036314
      8.95153      9.02365     37.72392         0.057513     -0.047792     -0.075611
      4.55645      4.49842     37.78959         0.102165      0.006899     -0.019864
      4.43886     13.64072     37.66473         0.004431      0.080841      0.089803
     13.56383      4.51729     37.79958        -0.036858      0.097571      0.107259
     13.54944     13.63463     37.77542        -0.039223      0.080339      0.089499
      0.00001      0.00001     44.04300        -0.010015     -0.032844      0.017240
     -0.00245      9.03141     44.04300         0.062635     -0.085734      0.358646
      9.03041      0.00001     44.04300         0.011196     -0.009796      0.054241
      9.02795      9.03141     44.04300         0.010611     -0.047456      0.004506
      4.51397      4.51569     44.04275         0.014332      0.065287      0.158232
      4.51151     13.54709     44.04275        -0.024493      0.001925     -0.000621
     13.54437      4.51569     44.04275        -0.038164      0.037858      0.045155
     13.54191     13.54709     44.04275        -0.091107      0.009121      0.165561
      0.00000      0.00000     50.44728         0.011918      0.015677     -0.612283
     -0.00246      9.03140     50.44728         0.009854     -0.017810     -0.669598
      9.03040      0.00000     50.44728        -0.009217      0.017807     -0.652264
      9.02794      9.03140     50.44728        -0.012096     -0.017132     -0.650363
      4.51397      4.51570     50.44728         0.005113      0.012153     -0.650197
      4.51151     13.54710     50.44728         0.006018     -0.012642     -0.627649
     13.54437      4.51570     50.44728        -0.006646      0.010929     -0.642295
     13.54191     13.54710     50.44728        -0.004197     -0.012839     -0.581953
 -----------------------------------------------------------------------------------
    total drift:                               -0.042932      0.137447     -0.116767


--------------------------------------------------------------------------------------------------------



  FREE ENERGIE OF THE ION-ELECTRON SYSTEM (eV)
  ---------------------------------------------------
  free  energy   TOTEN  =     -1573.47473385 eV

  energy  without entropy=    -1573.47473385  energy(sigma->0) =    -1573.47473385
 


--------------------------------------------------------------------------------------------------------


    POTLOK:  cpu time    0.5066: real time    0.5065


--------------------------------------------------------------------------------------------------------


     LOOP+:  cpu time  285.6078: real time  285.9780
 vacuum level on the upper side and lower side of the slab         2.322         1.605
    4ORBIT:  cpu time    0.0000: real time    0.0000

 total amount of memory used by VASP MPI-rank0  8653574. kBytes
=======================================================================

   base      :      30000. kBytes
   nonlr-proj:      53612. kBytes
   fftplans  :     249280. kBytes
   grid      :     701440. kBytes
   one-center:       2636. kBytes
   wavefun   :    7616606. kBytes
 
  
  
 General timing and accounting informations for this job:
 ========================================================
  
                  Total CPU time used (sec):      499.044
                            User time (sec):      405.210
                          System time (sec):       93.835
                         Elapsed time (sec):      500.351
  
                   Maximum memory used (kb):    10330696.
                   Average memory used (kb):          N/A
  
                          Minor page faults:      3658232
                          Major page faults:           13
                 Voluntary context switches:        10785
