 vasp.6.2.1 16May21 (build Nov 15 2021 14:57:28) complex                         
 executed on             LinuxPGI date 2023.07.30  09:37:02
 running on    4 total cores
 distrk:  each k-point on    4 cores,    1 groups
 distr:  one band on NCORE=   1 cores,    4 groups


--------------------------------------------------------------------------------------------------------


 INCAR:
   SYSTEM = PSC
   ISTART = 1
   ICHARG = 1
   PREC = Normal
   ENCUT = 500
   GGA_COMPAT = F
   NELM = 600
   ISYM = 0
   LREAL = Auto
   ISMEAR = 0
   SIGMA = 0.05
   AMIN = 0.01
   BMIX = 0.01
   LVTOT = T
   LWAVE = F
   LDIPOL = T
   IDIPOL = 3
   LVDW = T
   IVDW = 12

 POTCAR:    PAW_PBE H 15Jun2001                   
 POTCAR:    PAW_PBE C 08Apr2002                   
 POTCAR:    PAW_PBE N 08Apr2002                   
 POTCAR:    PAW_PBE I 08Apr2002                   
 POTCAR:    PAW_PBE Pb 08Apr2002                  
 WARNING: For LVTOT=.TRUE., VASP.5.x writes the TOTAL local potential to the
     file LOCPOT. If you want only the Hartree contributions, use LVHAR=.TRUE.
     instead. 

 POTCAR:    PAW_PBE H 15Jun2001                   
   SHA256 =  030f79b5d3ab3cf0e668861823c8fb652ff669f3e15e46930bd03bfd63a607b6 H/POTCAR              
   COPYR  = (c) Copyright 15Jun2001 Georg Kresse                                                    
   COPYR  = This file is part of the software VASP. Any use, copying, and all other rights are regul
   COPYR  = If you do not have a valid VASP license, you may not use, copy or distribute this file. 
   VRHFIN =H: ultrasoft test                                                                        
   LEXCH  = PE                                                                                      
   EATOM  =    12.4884 eV,    0.9179 Ry                                                             
                                                                                                    
   TITEL  = PAW_PBE H 15Jun2001                                                                     
   LULTRA =        F    use ultrasoft PP ?                                                          
   IUNSCR =        0    unscreen: 0-lin 1-nonlin 2-no                                               
   RPACOR =    0.000    partial core radius                                                         
   POMASS =    1.000; ZVAL   =    1.000    mass and valenz                                          
   RCORE  =    1.100    outmost cutoff radius                                                       
   RWIGS  =    0.700; RWIGS  =    0.370    wigner-seitz radius (au A)                               
   ENMAX  =  250.000; ENMIN  =  200.000 eV                                                          
   RCLOC  =    0.701    cutoff for local pot                                                        
   LCOR   =        T    correct aug charges                                                         
   LPAW   =        T    paw PP                                                                      
   EAUG   =  400.000                                                                                
   RMAX   =    1.123    core radius for proj-oper                                                   
   RAUG   =    1.200    factor for augmentation sphere                                              
   RDEP   =    1.112    radius for radial grids                                                     
   RDEPT  =    0.926    core radius for aug-charge                                                  
                                                                                                    
   Atomic configuration                                                                             
    2 entries                                                                                       
     n  l   j            E        occ.                                                              
     1  0  0.50        -6.4927   1.0000                                                             
     2  1  0.50        -3.4015   0.0000                                                             
   Description                                                                                      
     l       E           TYP  RCUT    TYP  RCUT                                                     
     0     -6.4927494     23  1.100                                                                 
     0      6.8029130     23  1.100                                                                 
     1     -4.0817478     23  1.100                                                                 
  local pseudopotential read in
  atomic valenz-charges read in
  non local Contribution for L=            0  read in
    real space projection operators read in
  non local Contribution for L=            0  read in
    real space projection operators read in
  non local Contribution for L=            1  read in
    real space projection operators read in
    PAW grid and wavefunctions read in
 
   number of l-projection  operators is LMAX  =            3
   number of lm-projection operators is LMMAX =            5
 
 POTCAR:    PAW_PBE C 08Apr2002                   
   SHA256 =  253f7b50bb8d59471dbedb8285d89021f4a42ed1a2c5d38a03a736e69125dd95 C/POTCAR              
   COPYR  = (c) Copyright 08Apr2002 Georg Kresse                                                    
   COPYR  = This file is part of the software VASP. Any use, copying, and all other rights are regul
   COPYR  = If you do not have a valid VASP license, you may not use, copy or distribute this file. 
   VRHFIN =C: s2p2                                                                                  
   LEXCH  = PE                                                                                      
   EATOM  =   147.1560 eV,   10.8157 Ry                                                             
                                                                                                    
   TITEL  = PAW_PBE C 08Apr2002                                                                     
   LULTRA =        F    use ultrasoft PP ?                                                          
   IUNSCR =        1    unscreen: 0-lin 1-nonlin 2-no                                               
   RPACOR =    1.200    partial core radius                                                         
   POMASS =   12.011; ZVAL   =    4.000    mass and valenz                                          
   RCORE  =    1.500    outmost cutoff radius                                                       
   RWIGS  =    1.630; RWIGS  =    0.863    wigner-seitz radius (au A)                               
   ENMAX  =  400.000; ENMIN  =  300.000 eV                                                          
   ICORE  =        2    local potential                                                             
   LCOR   =        T    correct aug charges                                                         
   LPAW   =        T    paw PP                                                                      
   EAUG   =  644.873                                                                                
   DEXC   =    0.000                                                                                
   RMAX   =    1.529    core radius for proj-oper                                                   
   RAUG   =    1.300    factor for augmentation sphere                                              
   RDEP   =    1.501    radius for radial grids                                                     
   RDEPT  =    1.300    core radius for aug-charge                                                  
                                                                                                    
   Atomic configuration                                                                             
    4 entries                                                                                       
     n  l   j            E        occ.                                                              
     1  0  0.50      -273.3789   2.0000                                                             
     2  0  0.50       -13.7508   2.0000                                                             
     2  1  0.50        -5.2854   2.0000                                                             
     3  2  1.50        -5.4423   0.0000                                                             
   Description                                                                                      
     l       E           TYP  RCUT    TYP  RCUT                                                     
     0    -13.7508458     23  1.200                                                                 
     0     -8.2022199     23  1.200                                                                 
     1     -5.2854383     23  1.500                                                                 
     1     34.0145650     23  1.500                                                                 
     2     -5.4423304      7  1.500                                                                 
  local pseudopotential read in
  partial core-charges read in
  partial kinetic energy density read in
  atomic valenz-charges read in
  non local Contribution for L=            0  read in
    real space projection operators read in
  non local Contribution for L=            0  read in
    real space projection operators read in
  non local Contribution for L=            1  read in
    real space projection operators read in
  non local Contribution for L=            1  read in
    real space projection operators read in
    PAW grid and wavefunctions read in
 
   number of l-projection  operators is LMAX  =            4
   number of lm-projection operators is LMMAX =            8
 
 POTCAR:    PAW_PBE N 08Apr2002                   
   SHA256 =  e053789ff3a61a86a1b75d8a110fcc91f86041011e7b0817c7c99e4e8a6349d7 N/POTCAR              
   COPYR  = (c) Copyright 08Apr2002 Georg Kresse                                                    
   COPYR  = This file is part of the software VASP. Any use, copying, and all other rights are regul
   COPYR  = If you do not have a valid VASP license, you may not use, copy or distribute this file. 
   VRHFIN =N: s2p3                                                                                  
   LEXCH  = PE                                                                                      
   EATOM  =   264.5486 eV,   19.4438 Ry                                                             
                                                                                                    
   TITEL  = PAW_PBE N 08Apr2002                                                                     
   LULTRA =        F    use ultrasoft PP ?                                                          
   IUNSCR =        1    unscreen: 0-lin 1-nonlin 2-no                                               
   RPACOR =    1.200    partial core radius                                                         
   POMASS =   14.001; ZVAL   =    5.000    mass and valenz                                          
   RCORE  =    1.500    outmost cutoff radius                                                       
   RWIGS  =    1.400; RWIGS  =    0.741    wigner-seitz radius (au A)                               
   ENMAX  =  400.000; ENMIN  =  300.000 eV                                                          
   ICORE  =        2    local potential                                                             
   LCOR   =        T    correct aug charges                                                         
   LPAW   =        T    paw PP                                                                      
   EAUG   =  627.112                                                                                
   DEXC   =    0.000                                                                                
   RMAX   =    1.529    core radius for proj-oper                                                   
   RAUG   =    1.300    factor for augmentation sphere                                              
   RDEP   =    1.514    radius for radial grids                                                     
   RDEPT  =    1.338    core radius for aug-charge                                                  
                                                                                                    
   Atomic configuration                                                                             
    4 entries                                                                                       
     n  l   j            E        occ.                                                              
     1  0  0.50      -384.7179   2.0000                                                             
     2  0  0.50       -18.5828   2.0000                                                             
     2  1  0.50        -7.0898   3.0000                                                             
     3  2  1.50        -6.8029   0.0000                                                             
   Description                                                                                      
     l       E           TYP  RCUT    TYP  RCUT                                                     
     0    -18.5828119     23  1.200                                                                 
     0    -13.5018863     23  1.200                                                                 
     1     -7.0897853     23  1.500                                                                 
     1      9.5240782     23  1.500                                                                 
     2     -6.8029130      7  1.500                                                                 
  local pseudopotential read in
  partial core-charges read in
  partial kinetic energy density read in
  atomic valenz-charges read in
  non local Contribution for L=            0  read in
    real space projection operators read in
  non local Contribution for L=            0  read in
    real space projection operators read in
  non local Contribution for L=            1  read in
    real space projection operators read in
  non local Contribution for L=            1  read in
    real space projection operators read in
    PAW grid and wavefunctions read in
 
   number of l-projection  operators is LMAX  =            4
   number of lm-projection operators is LMMAX =            8
 
 POTCAR:    PAW_PBE I 08Apr2002                   
   SHA256 =  e40f3f59b681c1fc3e3091736183c4589116986673d2b852a5012aec72758799 I/POTCAR              
   COPYR  = (c) Copyright 08Apr2002 Georg Kresse                                                    
   COPYR  = This file is part of the software VASP. Any use, copying, and all other rights are regul
   COPYR  = If you do not have a valid VASP license, you may not use, copy or distribute this file. 
   VRHFIN =I : s2p5                                                                                 
   LEXCH  = PE                                                                                      
   EATOM  =   315.8678 eV,   23.2156 Ry                                                             
                                                                                                    
   TITEL  = PAW_PBE I 08Apr2002                                                                     
   LULTRA =        F    use ultrasoft PP ?                                                          
   IUNSCR =        1    unscreen: 0-lin 1-nonlin 2-no                                               
   RPACOR =    2.200    partial core radius                                                         
   POMASS =  126.904; ZVAL   =    7.000    mass and valenz                                          
   RCORE  =    2.300    outmost cutoff radius                                                       
   RWIGS  =    2.810; RWIGS  =    1.487    wigner-seitz radius (au A)                               
   ENMAX  =  175.647; ENMIN  =  131.735 eV                                                          
   ICORE  =        3    local potential                                                             
   LCOR   =        T    correct aug charges                                                         
   LPAW   =        T    paw PP                                                                      
   EAUG   =  370.139                                                                                
   DEXC   =    0.000                                                                                
   RMAX   =    2.359    core radius for proj-oper                                                   
   RAUG   =    1.300    factor for augmentation sphere                                              
   RDEP   =    2.392    radius for radial grids                                                     
   RDEPT  =    2.170    core radius for aug-charge                                                  
                                                                                                    
   Atomic configuration                                                                             
   13 entries                                                                                       
     n  l   j            E        occ.                                                              
     1  0  0.50    -32976.3739   2.0000                                                             
     2  0  0.50     -5094.5933   2.0000                                                             
     2  1  1.50     -4572.0131   6.0000                                                             
     3  0  0.50     -1028.2813   2.0000                                                             
     3  1  1.50      -859.0250   6.0000                                                             
     3  2  2.50      -605.7620  10.0000                                                             
     4  0  0.50      -180.5540   2.0000                                                             
     4  1  1.50      -127.5306   6.0000                                                             
     4  2  2.50       -50.2720  10.0000                                                             
     5  0  0.50       -17.4058   2.0000                                                             
     5  1  0.50        -7.0851   5.0000                                                             
     5  2  1.50        -7.0750   0.0000                                                             
     4  3  2.50        -7.0750   0.0000                                                             
   Description                                                                                      
     l       E           TYP  RCUT    TYP  RCUT                                                     
     0    -17.4058016     23  2.300                                                                 
     0    -18.7663842     23  2.300                                                                 
     1     -7.0850686     23  2.300                                                                 
     1     -4.2150896     23  2.300                                                                 
     2     -7.0750295     23  2.300                                                                 
     3     -1.3605826     23  2.300                                                                 
  local pseudopotential read in
  partial core-charges read in
  partial kinetic energy density read in
  atomic valenz-charges read in
  non local Contribution for L=            0  read in
    real space projection operators read in
  non local Contribution for L=            0  read in
    real space projection operators read in
  non local Contribution for L=            1  read in
    real space projection operators read in
  non local Contribution for L=            1  read in
    real space projection operators read in
  non local Contribution for L=            2  read in
    real space projection operators read in
    PAW grid and wavefunctions read in
 
   number of l-projection  operators is LMAX  =            5
   number of lm-projection operators is LMMAX =           13
 
 POTCAR:    PAW_PBE Pb 08Apr2002                  
   SHA256 =  797118a27cf1bcd06b9881c67a26cdde129e3cd1a551dd4a281f9681ce847303 Pb/POTCAR             
   COPYR  = (c) Copyright 08Apr2002 Georg Kresse                                                    
   COPYR  = This file is part of the software VASP. Any use, copying, and all other rights are regul
   COPYR  = If you do not have a valid VASP license, you may not use, copy or distribute this file. 
   VRHFIN =Pb:                                                                                      
   LEXCH  = PE                                                                                      
   EATOM  =    96.9868 eV,    7.1283 Ry                                                             
                                                                                                    
   TITEL  = PAW_PBE Pb 08Apr2002                                                                    
   LULTRA =        F    use ultrasoft PP ?                                                          
   IUNSCR =        1    unscreen: 0-lin 1-nonlin 2-no                                               
   RPACOR =    2.200    partial core radius                                                         
   POMASS =  207.200; ZVAL   =    4.000    mass and valenz                                          
   RCORE  =    3.100    outmost cutoff radius                                                       
   RWIGS  =    3.260; RWIGS  =    1.725    wigner-seitz radius (au A)                               
   ENMAX  =   97.973; ENMIN  =   73.480 eV                                                          
   ICORE  =        3    local potential                                                             
   LCOR   =        T    correct aug charges                                                         
   LPAW   =        T    paw PP                                                                      
   EAUG   =  234.873                                                                                
   DEXC   =    0.000                                                                                
   RMAX   =    3.158    core radius for proj-oper                                                   
   RAUG   =    1.300    factor for augmentation sphere                                              
   RDEP   =    3.202    radius for radial grids                                                     
   RDEPT  =    2.659    core radius for aug-charge                                                  
                                                                                                    
   Atomic configuration                                                                             
   17 entries                                                                                       
     n  l   j            E        occ.                                                              
     1  0  0.50    -88091.8466   2.0000                                                             
     2  0  0.50    -15753.4197   2.0000                                                             
     2  1  1.50    -13508.1797   6.0000                                                             
     3  0  0.50     -3781.7194   2.0000                                                             
     3  1  1.50     -3138.2529   6.0000                                                             
     3  2  2.50     -2483.2977  10.0000                                                             
     4  0  0.50      -856.2895   2.0000                                                             
     4  1  1.50      -645.4943   6.0000                                                             
     4  2  2.50      -401.8768  10.0000                                                             
     4  3  3.50      -132.9059  14.0000                                                             
     5  0  0.50      -144.0950   2.0000                                                             
     5  1  1.50       -85.7879   6.0000                                                             
     5  2  2.50       -21.1769  10.0000                                                             
     6  0  0.50       -12.0372   2.0000                                                             
     6  1  1.50        -3.4971   2.0000                                                             
     6  2  2.50        -1.3606   0.0000                                                             
     5  3  2.50        -2.7212   0.0000                                                             
   Description                                                                                      
     l       E           TYP  RCUT    TYP  RCUT                                                     
     0    -12.0371566     23  3.100                                                                 
     0    -13.3977392     23  3.100                                                                 
     1     -3.4971341     23  3.100                                                                 
     1     -5.4423304     23  3.100                                                                 
     2     -1.3605826     23  3.100                                                                 
     3     -1.3605826     23  3.100                                                                 
  local pseudopotential read in
  partial core-charges read in
  partial kinetic energy density read in
  atomic valenz-charges read in
  non local Contribution for L=            0  read in
    real space projection operators read in
  non local Contribution for L=            0  read in
    real space projection operators read in
  non local Contribution for L=            1  read in
    real space projection operators read in
  non local Contribution for L=            1  read in
    real space projection operators read in
  non local Contribution for L=            2  read in
    real space projection operators read in
    PAW grid and wavefunctions read in
 
   number of l-projection  operators is LMAX  =            5
   number of lm-projection operators is LMMAX =           13
 
 Optimization of the real space projectors (new method)

 maximal supplied QI-value         = 34.20
 optimisation between [QCUT,QGAM] = [ 11.29, 22.57] = [ 35.68,142.71] Ry 
 Optimized for a Real-space Cutoff    1.16 Angstroem

   l    n(q)    QCUT    max X(q) W(low)/X(q) W(high)/X(q)  e(spline) 
   0      8    11.287    19.460    0.40E-03    0.73E-03    0.16E-06
   0      8    11.287    12.209    0.38E-03    0.70E-03    0.15E-06
   1      7    11.287     4.655    0.22E-03    0.25E-04    0.22E-06
 Optimization of the real space projectors (new method)

 maximal supplied QI-value         = 25.13
 optimisation between [QCUT,QGAM] = [ 11.31, 22.87] = [ 35.82,146.48] Ry 
 Optimized for a Real-space Cutoff    1.00 Angstroem

   l    n(q)    QCUT    max X(q) W(low)/X(q) W(high)/X(q)  e(spline) 
   0      7    11.310   115.676    0.43E-03    0.13E-02    0.19E-06
   0      7    11.310    87.132    0.43E-03    0.13E-02    0.18E-06
   1      6    11.310     4.429    0.42E-03    0.74E-03    0.11E-06
   1      6    11.310     2.733    0.34E-03    0.55E-03    0.92E-07
 Optimization of the real space projectors (new method)

 maximal supplied QI-value         = 25.13
 optimisation between [QCUT,QGAM] = [ 11.31, 22.87] = [ 35.82,146.48] Ry 
 Optimized for a Real-space Cutoff    1.27 Angstroem

   l    n(q)    QCUT    max X(q) W(low)/X(q) W(high)/X(q)  e(spline) 
   0      9    11.310    79.467    0.75E-04    0.16E-03    0.36E-06
   0      9    11.310    66.151    0.74E-04    0.16E-03    0.36E-06
   1      8    11.310    17.416    0.35E-03    0.12E-03    0.95E-06
   1      8    11.310    12.382    0.37E-03    0.13E-03    0.98E-06
 Optimization of the real space projectors (new method)

 maximal supplied QI-value         = 16.25
 optimisation between [QCUT,QGAM] = [ 11.38, 22.75] = [ 36.24,144.96] Ry 
 Optimized for a Real-space Cutoff    1.31 Angstroem

   l    n(q)    QCUT    max X(q) W(low)/X(q) W(high)/X(q)  e(spline) 
   0      9    11.376   194.483    0.24E-03    0.23E-03    0.67E-07
   0      9    11.376   190.334    0.23E-03    0.22E-03    0.65E-07
   1      8    11.376   116.687    0.25E-03    0.63E-04    0.16E-06
   1      8    11.376    88.696    0.25E-03    0.61E-04    0.16E-06
   2      8    11.376     4.877    0.17E-03    0.14E-03    0.29E-07
 Optimization of the real space projectors (new method)

 maximal supplied QI-value         = 12.09
 optimisation between [QCUT,QGAM] = [ 11.37, 22.86] = [ 36.19,146.31] Ry 
 Optimized for a Real-space Cutoff    1.66 Angstroem

   l    n(q)    QCUT    max X(q) W(low)/X(q) W(high)/X(q)  e(spline) 
   0     11    11.369   135.111    0.12E-03    0.69E-04    0.19E-05
   0     11    11.369   146.850    0.11E-03    0.65E-04    0.18E-05
   1     11    11.369   148.016    0.17E-03    0.32E-03    0.89E-06
   1     11    11.369   122.989    0.17E-03    0.32E-03    0.91E-06
   2     10    11.369     8.916    0.12E-03    0.45E-04    0.33E-06
  PAW_PBE H 15Jun2001                   :
 energy of atom  1       EATOM=  -12.4884
 kinetic energy error for atom=    0.0020 (will be added to EATOM!!)
  PAW_PBE C 08Apr2002                   :
 energy of atom  2       EATOM= -147.1560
 kinetic energy error for atom=    0.0076 (will be added to EATOM!!)
  PAW_PBE N 08Apr2002                   :
 energy of atom  3       EATOM= -264.5486
 kinetic energy error for atom=    0.0138 (will be added to EATOM!!)
  PAW_PBE I 08Apr2002                   :
 energy of atom  4       EATOM= -315.8678
 kinetic energy error for atom=    0.0009 (will be added to EATOM!!)
  PAW_PBE Pb 08Apr2002                  :
 energy of atom  5       EATOM=  -96.9868
 kinetic energy error for atom=    0.0000 (will be added to EATOM!!)
 
 
 POSCAR:  H  C  N  I Pb
  positions in cartesian coordinates
  No initial velocities read in
 exchange correlation table for  LEXCH =        8
   RHO(1)=    0.500       N(1)  =     2000
   RHO(2)=  100.500       N(2)  =     4000
 


--------------------------------------------------------------------------------------------------------


 ion  position               nearest neighbor table
   1  0.436  0.282  0.584- 187 1.08
   2  0.430  0.779  0.581- 188 1.05
   3  0.942  0.295  0.584- 189 1.04
   4  0.951  0.806  0.582- 190 1.05
   5  0.304  0.050  0.582- 194 1.01
   6  0.307  0.566  0.578- 195 1.02
   7  0.779  0.066  0.582- 196 1.01
   8  0.089  0.175  0.560- 183 1.06
   9  0.088  0.679  0.558- 184 1.03
  10  0.597  0.185  0.559- 185 1.05
  11  0.607  0.710  0.558- 186 1.03
  12  0.356  0.050  0.558- 194 1.07
  13  0.310  0.596  0.551- 195 1.07
  14  0.827  0.083  0.558- 196 1.07
  15  0.064  0.216  0.585- 183 1.03
  16  0.040  0.694  0.581- 184 1.05
  17  0.547  0.191  0.583- 185 1.03
  18  0.552  0.708  0.582- 186 1.02
  19  0.234  0.446  0.585- 191 1.00
  20  0.183  0.977  0.581- 192 1.01
  21  0.692  0.954  0.582- 193 1.01
  22  0.415  0.320  0.559- 187 1.02
  23  0.411  0.824  0.557- 188 1.01
  24  0.900  0.296  0.558- 189 1.03
  25  0.946  0.854  0.558- 190 1.03
  26  0.195  0.403  0.562- 191 1.06
  27  0.161  0.934  0.557- 192 1.07
  28  0.689  0.902  0.558- 193 1.08
  29  0.515  0.261  0.541- 146 1.09
  30  0.521  0.783  0.540- 147 1.09
  31  0.983  0.217  0.542- 144 1.13
  32  0.037  0.783  0.540- 145 1.09
  33  0.241  0.496  0.539- 148 1.10
  34  0.270  0.976  0.540- 149 1.10
  35  0.775  0.980  0.541- 150 1.10
  36  0.438  0.295  0.673- 205 1.06
  37  0.440  0.808  0.673- 206 1.06
  38  0.947  0.299  0.675- 207 1.03
  39  0.943  0.798  0.676- 208 1.02
  40  0.301  0.056  0.674- 209 1.04
  41  0.301  0.555  0.675- 210 1.06
  42  0.811  0.049  0.674- 211 1.06
  43  0.804  0.554  0.674- 212 1.03
  44  0.081  0.170  0.649- 197 1.00
  45  0.089  0.686  0.651- 198 1.00
  46  0.580  0.174  0.648- 199 0.99
  47  0.574  0.666  0.655- 200 1.06
  48  0.171  0.419  0.651- 201 1.03
  49  0.174  0.916  0.650- 202 1.03
  50  0.666  0.413  0.657- 203 1.06
  51  0.663  0.933  0.650- 204 1.02
  52  0.053  0.195  0.674- 197 1.04
  53  0.050  0.702  0.677- 198 1.03
  54  0.541  0.191  0.673- 199 1.04
  55  0.540  0.702  0.678- 200 1.01
  56  0.198  0.451  0.676- 201 1.05
  57  0.199  0.951  0.676- 202 1.05
  58  0.703  0.448  0.681- 203 1.02
  59  0.696  0.957  0.676- 204 1.04
  60  0.423  0.332  0.648- 205 1.01
  61  0.423  0.831  0.647- 206 1.01
  62  0.921  0.326  0.650- 207 1.05
  63  0.922  0.834  0.651- 208 1.01
  64  0.329  0.078  0.647- 209 1.03
  65  0.328  0.579  0.649- 210 1.01
  66  0.837  0.074  0.648- 211 1.03
  67  0.813  0.578  0.647- 212 1.01
  68  0.001  0.250  0.632- 151 1.09
  69  0.014  0.767  0.634- 152 1.08
  70  0.510  0.261  0.631- 153 1.08
  71  0.507  0.742  0.633- 154 1.09
  72  0.251  0.990  0.631- 156 1.08
  73  0.247  0.495  0.632- 155 1.08
  74  0.746  0.000  0.632- 158 1.08
  75  0.730  0.493  0.635- 157 1.09
  76  0.449  0.301  0.769- 221 1.02
  77  0.449  0.801  0.769- 222 1.02
  78  0.949  0.301  0.769- 223 1.02
  79  0.949  0.801  0.769- 224 1.02
  80  0.301  0.051  0.769- 225 1.02
  81  0.301  0.551  0.769- 226 1.02
  82  0.801  0.051  0.769- 227 1.02
  83  0.801  0.551  0.769- 228 1.02
  84  0.079  0.171  0.743- 213 1.02
  85  0.079  0.671  0.743- 214 1.02
  86  0.579  0.171  0.743- 215 1.02
  87  0.579  0.671  0.743- 216 1.02
  88  0.171  0.421  0.743- 217 1.02
  89  0.171  0.921  0.743- 218 1.02
  90  0.671  0.421  0.743- 219 1.02
  91  0.671  0.921  0.743- 220 1.02
  92  0.051  0.199  0.769- 213 1.02
  93  0.051  0.699  0.769- 214 1.02
  94  0.551  0.199  0.769- 215 1.02
  95  0.551  0.699  0.769- 216 1.02
  96  0.199  0.449  0.769- 217 1.02
  97  0.199  0.949  0.769- 218 1.02
  98  0.699  0.449  0.769- 219 1.02
  99  0.699  0.949  0.769- 220 1.02
 100  0.421  0.329  0.743- 221 1.02
 101  0.421  0.829  0.743- 222 1.02
 102  0.921  0.329  0.743- 223 1.02
 103  0.921  0.829  0.743- 224 1.02
 104  0.329  0.079  0.743- 225 1.02
 105  0.329  0.579  0.743- 226 1.02
 106  0.829  0.079  0.743- 227 1.02
 107  0.829  0.579  0.743- 228 1.02
 108  0.000  0.250  0.726- 161 1.09
 109  0.000  0.750  0.726- 162 1.09
 110  0.500  0.250  0.726- 159 1.09
 111  0.500  0.750  0.726- 160 1.09
 112  0.250  0.000  0.726- 163 1.09
 113  0.250  0.500  0.726- 164 1.09
 114  0.750  0.000  0.726- 165 1.09
 115  0.750  0.500  0.726- 166 1.09
 116  0.776  0.520  0.523- 173 1.13
 117  0.871  0.517  0.535- 173 1.11
 118  0.767  0.630  0.541- 174 1.10
 119  0.772  0.636  0.569- 174 1.09
 120  0.683  0.467  0.563- 175 1.12
 121  0.675  0.564  0.569- 175 1.10
 122  0.809  0.431  0.574- 176 1.11
 123  0.872  0.507  0.576- 176 1.09
 124  0.857  0.393  0.547- 177 1.12
 125  0.760  0.388  0.541- 177 1.09
 126  0.776  0.395  0.504- 178 1.12
 127  0.867  0.433  0.506- 178 1.13
 128  0.898  0.635  0.536- 179 1.09
 129  0.920  0.610  0.563- 179 1.11
 130  0.876  0.697  0.557- 179 1.11
 131  0.598  0.540  0.538- 180 1.11
 132  0.669  0.491  0.524- 180 1.09
 133  0.672  0.590  0.527- 180 1.12
 134  0.731  0.480  0.602- 181 1.08
 135  0.751  0.573  0.593- 181 1.11
 136  0.814  0.530  0.610- 181 1.13
 137  0.839  0.273  0.521- 182 1.14
 138  0.842  0.292  0.493- 182 1.11
 139  0.940  0.186  0.504- 168 1.10
 140  0.968  0.420  0.517- 169 1.09
 141  0.076  0.170  0.506- 170 1.10
 142  0.100  0.403  0.520- 171 1.09
 143  0.159  0.277  0.514- 172 1.08
 144  0.993  0.234  0.560-  31 1.13 183 1.32 189 1.32
 145  0.018  0.768  0.557-  32 1.09 184 1.30 190 1.30
 146  0.505  0.252  0.558-  29 1.09 187 1.32 185 1.33
 147  0.508  0.767  0.557-  30 1.09 188 1.31 186 1.34
 148  0.252  0.500  0.556-  33 1.10 195 1.31 191 1.33
 149  0.258  0.992  0.557-  34 1.10 194 1.32 192 1.32
 150  0.758  0.992  0.557-  35 1.10 193 1.31 196 1.32
 151  0.000  0.249  0.649-  68 1.09 207 1.28 197 1.35
 152  0.005  0.761  0.651-  69 1.08 208 1.30 198 1.36
 153  0.501  0.254  0.647-  70 1.08 205 1.30 199 1.35
 154  0.499  0.750  0.650-  71 1.09 206 1.30 200 1.33
 155  0.250  0.500  0.649-  73 1.08 210 1.30 201 1.34
 156  0.251  0.998  0.648-  72 1.08 209 1.31 202 1.33
 157  0.739  0.495  0.652-  75 1.09 203 1.29 212 1.36
 158  0.751  0.003  0.649-  74 1.08 211 1.30 204 1.34
 159  0.500  0.250  0.743- 110 1.09 221 1.31 215 1.31
 160  0.500  0.750  0.743- 111 1.09 222 1.31 216 1.31
 161  1.000  0.250  0.743- 108 1.09 223 1.31 213 1.31
 162  1.000  0.750  0.743- 109 1.09 224 1.31 214 1.31
 163  0.250  0.000  0.743- 112 1.09 225 1.31 218 1.31
 164  0.250  0.500  0.743- 113 1.09 226 1.31 217 1.31
 165  0.750  0.000  0.743- 114 1.09 227 1.31 220 1.31
 166  0.750  0.500  0.743- 115 1.09 228 1.31 219 1.31
 167  0.942  0.305  0.510- 169 1.41 168 1.42 182 1.47
 168  0.976  0.234  0.506- 139 1.10 170 1.39 167 1.42
 169  0.991  0.365  0.513- 140 1.09 171 1.40 167 1.41
 170  0.052  0.226  0.507- 141 1.10 168 1.39 172 1.42
 171  0.067  0.355  0.515- 142 1.09 172 1.38 169 1.40
 172  0.100  0.286  0.513- 143 1.08 171 1.38 170 1.42
 173  0.813  0.495  0.536- 117 1.11 116 1.13 177 1.48 229 1.52
 174  0.799  0.612  0.555- 119 1.09 118 1.10 229 1.50 179 1.53
 175  0.695  0.524  0.557- 121 1.10 120 1.12 180 1.52 229 1.57
 176  0.813  0.492  0.576- 123 1.09 122 1.11 229 1.53 181 1.54
 177  0.812  0.413  0.536- 125 1.09 124 1.12 173 1.48 178 1.55
 178  0.830  0.389  0.513- 126 1.12 127 1.13 182 1.50 177 1.55
 179  0.879  0.638  0.553- 128 1.09 129 1.11 130 1.11 174 1.53
 180  0.659  0.537  0.536- 132 1.09 131 1.11 133 1.12 175 1.52
 181  0.774  0.518  0.597- 134 1.08 135 1.11 136 1.13 176 1.54
 182  0.861  0.313  0.509- 138 1.11 137 1.14 167 1.47 178 1.50
 183  0.051  0.206  0.569-  15 1.03   8 1.06 144 1.32
 184  0.050  0.712  0.566-   9 1.03  16 1.05 145 1.30
 185  0.551  0.205  0.567-  17 1.03  10 1.05 146 1.33
 186  0.558  0.724  0.566-  18 1.02  11 1.03 147 1.34
 187  0.449  0.286  0.567-  22 1.02   1 1.08 146 1.32
 188  0.446  0.791  0.565-  23 1.01   2 1.05 147 1.31
 189  0.942  0.277  0.568-  24 1.03   3 1.04 144 1.32
 190  0.970  0.810  0.566-  25 1.03   4 1.05 145 1.30
 191  0.226  0.448  0.569-  19 1.00  26 1.06 148 1.33
 192  0.198  0.967  0.566-  20 1.01  27 1.07 149 1.32
 193  0.710  0.949  0.567-  21 1.01  28 1.08 150 1.31
 194  0.308  0.033  0.567-   5 1.01  12 1.07 149 1.32
 195  0.291  0.556  0.563-   6 1.02  13 1.07 148 1.31
 196  0.789  0.050  0.567-   7 1.01  14 1.07 150 1.32
 197  0.049  0.201  0.658-  44 1.00  52 1.04 151 1.35
 198  0.051  0.713  0.660-  45 1.00  53 1.03 152 1.36
 199  0.544  0.202  0.657-  46 0.99  54 1.04 153 1.35
 200  0.539  0.704  0.662-  55 1.01  47 1.06 154 1.33
 201  0.204  0.454  0.659-  48 1.03  56 1.05 155 1.34
 202  0.206  0.953  0.659-  49 1.03  57 1.05 156 1.33
 203  0.702  0.451  0.664-  58 1.02  50 1.06 157 1.29
 204  0.700  0.962  0.659-  51 1.02  59 1.04 158 1.34
 205  0.452  0.295  0.657-  60 1.01  36 1.06 153 1.30
 206  0.452  0.798  0.657-  61 1.01  37 1.06 154 1.30
 207  0.956  0.291  0.659-  38 1.03  62 1.05 151 1.28
 208  0.954  0.800  0.660-  63 1.01  39 1.02 152 1.30
 209  0.296  0.047  0.657-  64 1.03  40 1.04 156 1.31
 210  0.295  0.547  0.658-  65 1.01  41 1.06 155 1.30
 211  0.802  0.043  0.658-  66 1.03  42 1.06 158 1.30
 212  0.789  0.546  0.658-  67 1.01  43 1.03 157 1.36
 213  0.046  0.204  0.753-  92 1.02  84 1.02 161 1.31
 214  0.046  0.704  0.753-  93 1.02  85 1.02 162 1.31
 215  0.546  0.204  0.753-  94 1.02  86 1.02 159 1.31
 216  0.546  0.704  0.753-  95 1.02  87 1.02 160 1.31
 217  0.204  0.454  0.753-  96 1.02  88 1.02 164 1.31
 218  0.204  0.954  0.753-  97 1.02  89 1.02 163 1.31
 219  0.704  0.454  0.753-  98 1.02  90 1.02 166 1.31
 220  0.704  0.954  0.753-  99 1.02  91 1.02 165 1.31
 221  0.454  0.296  0.753-  76 1.02 100 1.02 159 1.31
 222  0.454  0.796  0.753-  77 1.02 101 1.02 160 1.31
 223  0.954  0.296  0.753-  78 1.02 102 1.02 161 1.31
 224  0.954  0.796  0.753-  79 1.02 103 1.02 162 1.31
 225  0.296  0.046  0.753-  80 1.02 104 1.02 163 1.31
 226  0.296  0.546  0.753-  81 1.02 105 1.02 164 1.31
 227  0.796  0.046  0.753-  82 1.02 106 1.02 165 1.31
 228  0.796  0.546  0.753-  83 1.02 107 1.02 166 1.31
 229  0.782  0.530  0.556- 174 1.50 173 1.52 176 1.53 175 1.57
 230  0.495  0.001  0.552- 304 3.12
 231  0.474  0.481  0.555- 305 3.07
 232  0.997  0.003  0.551- 302 3.25
 233  0.022  0.497  0.558- 303 3.06
 234  0.260  0.245  0.554- 306 3.15
 235  0.247  0.759  0.551- 307 3.25
 236  0.736  0.230  0.555- 308 3.19
 237  0.727  0.774  0.547- 309 3.65
 238  0.003  0.004  0.654- 310 3.18 302 3.19
 239  0.006  0.501  0.657- 311 3.02 303 3.11
 240  0.506  0.005  0.654- 312 3.15 304 3.27
 241  0.502  0.500  0.656- 313 3.08 305 3.26
 242  0.247  0.248  0.655- 314 3.09 306 3.18
 243  0.247  0.752  0.654- 315 3.15 307 3.19
 244  0.742  0.249  0.656- 316 3.05 308 3.13
 245  0.748  0.758  0.653- 309 3.05 317 3.21
 246  0.146  0.104  0.609- 302 3.25 306 3.27
 247  0.149  0.606  0.609- 303 3.12 307 3.28
 248  0.642  0.106  0.610- 304 3.23 308 3.27
 249  0.620  0.631  0.614- 305 3.31 309 3.33
 250  0.356  0.390  0.611- 306 3.18 305 3.27
 251  0.356  0.892  0.609- 307 3.15 304 3.28
 252  0.880  0.372  0.614- 308 3.25 303 3.36
 253  0.856  0.896  0.608- 309 3.14 302 3.24
 254  0.111  0.353  0.610- 306 3.25 303 3.26
 255  0.108  0.857  0.608- 307 3.17 302 3.28
 256  0.615  0.364  0.607- 308 3.16 305 3.19
 257  0.608  0.862  0.610- 309 3.18 304 3.24
 258  0.394  0.140  0.610- 304 3.18 306 3.18
 259  0.389  0.645  0.607- 307 3.21 305 3.34
 260  0.891  0.137  0.610- 302 3.15 308 3.31
 261  0.910  0.661  0.613- 303 3.41 309 3.44
 262  0.000  0.000  0.755- 310 3.13 318 3.27
 263  0.000  0.500  0.755- 311 3.13 319 3.27
 264  0.500  0.000  0.755- 312 3.13 320 3.27
 265  0.500  0.500  0.755- 313 3.13 321 3.27
 266  0.250  0.250  0.755- 314 3.13 322 3.27
 267  0.250  0.750  0.755- 315 3.13 323 3.27
 268  0.750  0.250  0.755- 316 3.13 324 3.27
 269  0.750  0.750  0.755- 317 3.13 325 3.27
 270  0.136  0.114  0.705- 310 3.20 314 3.20
 271  0.136  0.614  0.705- 311 3.20 315 3.20
 272  0.636  0.114  0.705- 312 3.20 316 3.20
 273  0.636  0.614  0.705- 313 3.20 317 3.20
 274  0.364  0.386  0.705- 313 3.20 314 3.20
 275  0.364  0.886  0.705- 312 3.20 315 3.20
 276  0.864  0.386  0.705- 311 3.20 316 3.20
 277  0.864  0.886  0.705- 310 3.20 317 3.20
 278  0.114  0.364  0.705- 314 3.21 311 3.21
 279  0.114  0.864  0.705- 315 3.21 310 3.21
 280  0.614  0.364  0.705- 316 3.21 313 3.21
 281  0.614  0.864  0.705- 317 3.21 312 3.21
 282  0.386  0.136  0.705- 314 3.21 312 3.21
 283  0.386  0.636  0.705- 315 3.21 313 3.21
 284  0.886  0.136  0.705- 316 3.21 310 3.21
 285  0.886  0.636  0.705- 317 3.21 311 3.21
 286  0.135  0.115  0.801- 318 3.22 322 3.22
 287  0.135  0.615  0.801- 319 3.22 323 3.22
 288  0.635  0.115  0.801- 320 3.22 324 3.22
 289  0.635  0.615  0.801- 321 3.22 325 3.22
 290  0.365  0.385  0.801- 321 3.22 322 3.22
 291  0.365  0.885  0.801- 320 3.22 323 3.22
 292  0.865  0.385  0.801- 319 3.22 324 3.22
 293  0.865  0.885  0.801- 318 3.22 325 3.22
 294  0.115  0.365  0.801- 319 3.23 322 3.23
 295  0.115  0.865  0.801- 318 3.23 323 3.23
 296  0.615  0.365  0.801- 321 3.23 324 3.23
 297  0.615  0.865  0.801- 320 3.23 325 3.23
 298  0.385  0.135  0.801- 320 3.23 322 3.23
 299  0.385  0.635  0.801- 321 3.23 323 3.23
 300  0.885  0.135  0.801- 318 3.23 324 3.23
 301  0.885  0.635  0.801- 319 3.23 325 3.23
 302  0.999  0.002  0.603- 260 3.15 238 3.19 253 3.24 246 3.25 232 3.25 255 3.28
 303  0.011  0.502  0.607- 233 3.06 239 3.11 247 3.12 254 3.26 252 3.36 261 3.41
 304  0.499  0.002  0.602- 230 3.12 258 3.18 248 3.23 257 3.24 240 3.27 251 3.28
 305  0.500  0.497  0.604- 231 3.07 256 3.19 241 3.26 250 3.27 249 3.31 259 3.34
 306  0.255  0.247  0.605- 234 3.15 242 3.18 250 3.18 258 3.18 254 3.25 246 3.27
 307  0.250  0.755  0.603- 251 3.15 255 3.17 243 3.19 259 3.21 235 3.25 247 3.28
 308  0.749  0.251  0.606- 244 3.13 256 3.16 236 3.19 252 3.25 248 3.27 260 3.31
 309  0.750  0.759  0.605- 245 3.05 253 3.14 257 3.18 249 3.33 261 3.44 237 3.65
 310  0.000  0.000  0.705- 262 3.13 238 3.18 270 3.20 277 3.20 279 3.21 284 3.21
 311  0.000  0.500  0.705- 239 3.02 263 3.13 271 3.20 276 3.20 278 3.21 285 3.21
 312  0.500  0.000  0.705- 264 3.13 240 3.15 272 3.20 275 3.20 281 3.21 282 3.21
 313  0.500  0.500  0.705- 241 3.08 265 3.13 273 3.20 274 3.20 280 3.21 283 3.21
 314  0.250  0.250  0.705- 242 3.09 266 3.13 270 3.20 274 3.20 282 3.21 278 3.21
 315  0.250  0.750  0.705- 267 3.13 243 3.15 271 3.20 275 3.20 283 3.21 279 3.21
 316  0.750  0.250  0.705- 244 3.05 268 3.13 272 3.20 276 3.20 284 3.21 280 3.21
 317  0.750  0.750  0.705- 269 3.13 273 3.20 277 3.20 285 3.21 281 3.21 245 3.21
 318  0.000  0.000  0.807- 286 3.22 293 3.22 300 3.23 295 3.23 262 3.27
 319  0.000  0.500  0.807- 287 3.22 292 3.22 301 3.23 294 3.23 263 3.27
 320  0.500  0.000  0.807- 288 3.22 291 3.22 298 3.23 297 3.23 264 3.27
 321  0.500  0.500  0.807- 289 3.22 290 3.22 299 3.23 296 3.23 265 3.27
 322  0.250  0.250  0.807- 290 3.22 286 3.22 294 3.23 298 3.23 266 3.27
 323  0.250  0.750  0.807- 291 3.22 287 3.22 299 3.23 295 3.23 267 3.27
 324  0.750  0.250  0.807- 292 3.22 288 3.22 296 3.23 300 3.23 268 3.27
 325  0.750  0.750  0.807- 293 3.22 289 3.22 297 3.23 301 3.23 269 3.27
 

IMPORTANT INFORMATION: All symmetrisations will be switched off!
NOSYMM: (Re-)initialisation of all symmetry stuff for point group C_1.


----------------------------------------------------------------------------------------

                                     Primitive cell                                     

  volume of cell :   20385.2105

  direct lattice vectors                    reciprocal lattice vectors
    18.060800552  0.000000000  0.000000000     0.055368531  0.000015077 -0.000000000
    -0.004918649 18.062799454  0.000000000     0.000000000  0.055362404  0.000000000
     0.000000000  0.000000000 62.487499237     0.000000000 -0.000000000  0.016003201

  length of vectors
    18.060800552 18.062800123 62.487499237     0.055368533  0.055362404  0.016003201

  position of ions in fractional coordinates (direct lattice)
     0.435758724  0.281698157  0.583865498
     0.430484498  0.779327936  0.581087111
     0.941991726  0.295145837  0.584094304
     0.951160156  0.805624624  0.581594964
     0.304309121  0.050073622  0.582107456
     0.306586523  0.566151298  0.578187178
     0.778610936  0.066095728  0.581911922
     0.088747264  0.174600393  0.559672549
     0.088318058  0.679417840  0.557953761
     0.596663771  0.185027002  0.558899690
     0.606620732  0.710494673  0.558476082
     0.356080236  0.049820058  0.558096856
     0.309967832  0.595747948  0.551352892
     0.827253934  0.082583197  0.557940025
     0.063849414  0.216379782  0.584731700
     0.039742145  0.693656113  0.581466398
     0.546799043  0.191173499  0.583414358
     0.551996347  0.707728443  0.581927428
     0.233531804  0.446295444  0.584618884
     0.183286605  0.977039695  0.581439659
     0.691606738  0.954394460  0.581754420
     0.414967016  0.320398266  0.558785226
     0.410828051  0.824369920  0.557041469
     0.900177293  0.295759030  0.558325966
     0.945681069  0.854170422  0.557639428
     0.194579456  0.403479701  0.561897543
     0.160781840  0.933710867  0.556926883
     0.689450376  0.901957781  0.557755784
     0.514724877  0.260689001  0.540589753
     0.520889726  0.782960893  0.540317787
     0.983356218  0.216772307  0.542450721
     0.037078399  0.782779744  0.540466681
     0.240652475  0.495665678  0.538614565
     0.269568029  0.976486480  0.540151494
     0.774522186  0.979574968  0.540667283
     0.438448891  0.294921473  0.673386211
     0.440203551  0.807752266  0.673410997
     0.947025237  0.298681462  0.675301511
     0.942862059  0.797992874  0.676309281
     0.300901278  0.056346461  0.673648715
     0.301262312  0.555282574  0.674549957
     0.810822449  0.048949093  0.674421575
     0.803959229  0.554128310  0.674055840
     0.081366031  0.170102873  0.648808847
     0.088692210  0.686178797  0.651301350
     0.579917907  0.173546801  0.648043862
     0.573686430  0.665545085  0.654538570
     0.170837907  0.419115873  0.650708091
     0.173772970  0.916181555  0.650444733
     0.665696362  0.413357122  0.656939501
     0.662513683  0.932709975  0.650192852
     0.052935764  0.194825714  0.674470290
     0.050239276  0.702204167  0.676566291
     0.540894719  0.190820428  0.673252823
     0.540082432  0.702458546  0.678384892
     0.198170881  0.450950617  0.676058987
     0.199345993  0.950847989  0.675639531
     0.703373705  0.447697276  0.680658052
     0.696085585  0.957098765  0.675590204
     0.422840144  0.332274159  0.648327122
     0.423420238  0.830839117  0.646694654
     0.920653150  0.325718109  0.649966183
     0.922476441  0.834041509  0.651213625
     0.328667078  0.078277696  0.647382597
     0.327752903  0.578946240  0.648621676
     0.837390942  0.074032457  0.648273645
     0.813228871  0.577901796  0.646954411
     0.001158498  0.249653436  0.631650141
     0.014286100  0.767479603  0.633771232
     0.509956541  0.260622370  0.630528823
     0.507340426  0.742186019  0.632990803
     0.251009706  0.990388844  0.631384769
     0.246674203  0.494835012  0.631831025
     0.746205682  0.000434237  0.631518584
     0.729658061  0.493132708  0.634677602
     0.448745018  0.301283966  0.768889017
     0.448745007  0.801283913  0.768889017
     0.948744965  0.301283966  0.768889017
     0.948745007  0.801283913  0.768889017
     0.301275995  0.051294496  0.768872961
     0.301276011  0.551294499  0.768872961
     0.801275943  0.051294496  0.768872961
     0.801275984  0.551294499  0.768872961
     0.078771004  0.171180501  0.743441971
     0.078771006  0.671180448  0.743441971
     0.578771004  0.171180501  0.743441971
     0.578770992  0.671180448  0.743441971
     0.171199499  0.421174482  0.743421032
     0.171199501  0.921174508  0.743421032
     0.671199512  0.421174482  0.743421032
     0.671199501  0.921174508  0.743421032
     0.051256000  0.198714991  0.768889017
     0.051256002  0.698714925  0.768889017
     0.551256027  0.198714991  0.768889017
     0.551256016  0.698714925  0.768889017
     0.198723491  0.448703970  0.768872046
     0.198723493  0.948703970  0.768872046
     0.698723518  0.448703970  0.768872046
     0.698723507  0.948703970  0.768872046
     0.421231519  0.328817467  0.743441971
     0.421231508  0.828817440  0.743441971
     0.921231466  0.328817467  0.743441971
     0.921231508  0.828817440  0.743441971
     0.328800503  0.078824997  0.743421032
     0.328800492  0.578824964  0.743421032
     0.828800477  0.078824997  0.743421032
     0.828800519  0.578824964  0.743421032
     0.000003500  0.250001478  0.725821992
     0.000003500  0.750001452  0.725821992
     0.500003506  0.250001478  0.725821992
     0.500003495  0.750001452  0.725821992
     0.250000502  0.000000000  0.725803983
     0.250000517  0.500000000  0.725803983
     0.750000502  0.000000000  0.725803983
     0.750000490  0.500000000  0.725803983
     0.776403980  0.520456364  0.523453635
     0.870844031  0.517200436  0.535319106
     0.767035532  0.629848505  0.540893830
     0.772296207  0.636109310  0.568881667
     0.683122947  0.467024350  0.563411334
     0.675368675  0.563706236  0.569165598
     0.809173196  0.431345537  0.573858309
     0.872222936  0.506706311  0.575763719
     0.857438297  0.393221952  0.546616471
     0.760390364  0.387873571  0.540960249
     0.775927491  0.394660083  0.504096492
     0.866843753  0.433295277  0.505524176
     0.898246872  0.634956894  0.536335423
     0.920354063  0.610271804  0.563223491
     0.876092535  0.697287381  0.557482109
     0.598324721  0.539704348  0.538464755
     0.669209724  0.491391493  0.524469830
     0.671509703  0.590138508  0.527034429
     0.731125771  0.480467120  0.601728629
     0.750646653  0.572924609  0.592700518
     0.813502697  0.529574633  0.610173190
     0.838677587  0.272505047  0.521390417
     0.841530776  0.291899861  0.493350141
     0.940286842  0.185926754  0.503558512
     0.968207596  0.419880964  0.516743614
     0.076293627  0.169849880  0.505951141
     0.100102072  0.403143538  0.519639823
     0.158581095  0.276899770  0.513859858
     0.992545289  0.234172912  0.559598133
     0.018372139  0.767766242  0.556510418
     0.505064336  0.252059190  0.557633933
     0.507550339  0.766879980  0.556749479
     0.252302295  0.500069693  0.555871374
     0.258272286  0.991964299  0.556815594
     0.758005724  0.992413213  0.557169058
     0.000324827  0.248979526  0.649049557
     0.004584542  0.761472281  0.650734586
     0.501083297  0.253532483  0.647419958
     0.498815674  0.749593906  0.650137299
     0.250215609  0.499794723  0.649025870
     0.251376275  0.997977104  0.648489996
     0.738924495  0.494849795  0.651907733
     0.750792650  0.003259111  0.648715505
     0.499988984  0.249994984  0.743277021
     0.499989025  0.749994958  0.743277021
     0.999988984  0.249994984  0.743277021
     0.999989025  0.749994958  0.743277021
     0.250000502  0.000001000  0.743255960
     0.250000517  0.500001003  0.743255960
     0.750000502  0.000001000  0.743255960
     0.750000491  0.500001003  0.743255960
     0.942394733  0.304876428  0.509749783
     0.975676726  0.234385475  0.506461467
     0.990730953  0.365220374  0.512973817
     0.052367319  0.225820183  0.507400528
     0.067310482  0.354842009  0.515083858
     0.099603837  0.286106633  0.512712351
     0.813331928  0.495249104  0.536127313
     0.798790819  0.611717880  0.554932038
     0.695088666  0.523688429  0.557071321
     0.813379468  0.492400299  0.575948021
     0.812487395  0.413064306  0.535734290
     0.830065284  0.388674882  0.512548439
     0.878928392  0.637920165  0.552879992
     0.658703594  0.537271377  0.535502493
     0.774321294  0.517515743  0.596521472
     0.861318563  0.312944444  0.508984432
     0.051459946  0.206054017  0.568991002
     0.050178386  0.711650045  0.565825147
     0.550579901  0.205395616  0.567415309
     0.558104338  0.723605240  0.566319875
     0.449343113  0.286122076  0.567060746
     0.445822161  0.791162330  0.565175298
     0.941619140  0.277292796  0.568335598
     0.969635944  0.810419025  0.565715018
     0.225536160  0.447556728  0.568719281
     0.197897330  0.966704327  0.566178917
     0.710114002  0.948928449  0.566640068
     0.307693936  0.032825540  0.566805873
     0.290971884  0.556177706  0.562845975
     0.789074042  0.049726510  0.566807460
     0.048671567  0.201127569  0.657995743
     0.051280387  0.712830391  0.660373172
     0.543932026  0.201851703  0.656884315
     0.538996750  0.704245854  0.662242991
     0.204029358  0.454111457  0.659430661
     0.205605748  0.952835809  0.659020484
     0.702042647  0.451239949  0.664385327
     0.700289472  0.962084689  0.658996920
     0.452220093  0.294770102  0.656896585
     0.451690035  0.798240495  0.657079056
     0.955552782  0.291397253  0.659096000
     0.953657414  0.799881870  0.660256632
     0.295595417  0.047030197  0.657227950
     0.295044546  0.546887317  0.657911375
     0.802024676  0.043074775  0.657693131
     0.789402634  0.546261242  0.658275157
     0.045862501  0.204119496  0.752725994
     0.045862500  0.704119456  0.752725994
     0.545862507  0.204119496  0.752725994
     0.545862496  0.704119456  0.752725994
     0.204119002  0.454101003  0.752704994
     0.204118991  0.954100951  0.752704994
     0.704118976  0.454101003  0.752704994
     0.704118964  0.954100951  0.752704994
     0.454140018  0.295888490  0.752726971
     0.454140007  0.795888516  0.752726971
     0.954140018  0.295888490  0.752726971
     0.954140060  0.795888516  0.752726971
     0.295882492  0.045900498  0.752704994
     0.295882481  0.545900528  0.752704994
     0.795882439  0.045900498  0.752704994
     0.795882481  0.545900528  0.752704994
     0.781620115  0.530499860  0.556177038
     0.494996391  0.001172114  0.552294181
     0.474435896  0.481406022  0.555243502
     0.996511141  0.002552115  0.550996498
     0.022396992  0.496678074  0.558003575
     0.260229092  0.245325080  0.554112416
     0.246781810  0.758888572  0.551478772
     0.735748925  0.229934629  0.555458388
     0.726540014  0.773508679  0.546861332
     0.003419861  0.004185549  0.654007152
     0.005915194  0.500788692  0.656559054
     0.505592790  0.004835685  0.654412079
     0.501647540  0.499907234  0.655617154
     0.247108300  0.247526533  0.655424794
     0.246690521  0.752423177  0.654472699
     0.741556542  0.249006083  0.656053887
     0.747699798  0.757525230  0.653470912
     0.145760819  0.103763866  0.609324021
     0.149061041  0.605698731  0.609230984
     0.642195251  0.106060368  0.609526332
     0.619886450  0.631152345  0.613850927
     0.356275168  0.389931520  0.610900813
     0.356016227  0.891939153  0.608787475
     0.880215049  0.371877161  0.613645320
     0.855521271  0.895807324  0.608116443
     0.111319449  0.353373124  0.609897316
     0.107658555  0.857180102  0.608300562
     0.615372459  0.363874640  0.606705394
     0.608040047  0.861760092  0.610184544
     0.394060918  0.140228758  0.609961721
     0.389081061  0.644994477  0.606602407
     0.891186272  0.136565878  0.609575780
     0.910402938  0.661144819  0.613257913
     0.000000000  0.000000000  0.754927972
     0.000000000  0.500000000  0.754927972
     0.500000000  0.000000000  0.754927972
     0.499999989  0.500000000  0.754927972
     0.250000496  0.250000000  0.754939022
     0.250000511  0.749999974  0.754939022
     0.750000470  0.250000000  0.754939022
     0.750000458  0.749999974  0.754939022
     0.135790500  0.114209997  0.704782994
     0.135790502  0.614209984  0.704782994
     0.635790447  0.114209997  0.704782994
     0.635790488  0.614209984  0.704782994
     0.364209516  0.385789989  0.704782994
     0.364209505  0.885789963  0.704782994
     0.864209542  0.385789989  0.704782994
     0.864209531  0.885789963  0.704782994
     0.114217990  0.364218986  0.704780979
     0.114217992  0.864218986  0.704780979
     0.614218004  0.364218986  0.704780979
     0.614217992  0.864218986  0.704780979
     0.385782012  0.135781489  0.704782017
     0.385782001  0.635781489  0.704782017
     0.885781985  0.135781489  0.704782017
     0.885782027  0.635781489  0.704782017
     0.134667000  0.115332001  0.801256025
     0.134666989  0.615331988  0.801256025
     0.634666987  0.115332001  0.801256025
     0.634666976  0.615331988  0.801256025
     0.365333002  0.384667985  0.801256025
     0.365332990  0.884667959  0.801256025
     0.865332949  0.384667985  0.801256025
     0.865332938  0.884667959  0.801256025
     0.115328503  0.365337004  0.801264999
     0.115328505  0.865336978  0.801264999
     0.615328503  0.365337004  0.801264999
     0.615328492  0.865336978  0.801264999
     0.384671513  0.134662996  0.801264999
     0.384671501  0.634662970  0.801264999
     0.884671486  0.134662996  0.801264999
     0.884671528  0.634662970  0.801264999
     0.999450013  0.001631748  0.602949333
     0.010560962  0.502463858  0.606791776
     0.499209024  0.001627105  0.602158159
     0.500062658  0.497448234  0.603526719
     0.255209949  0.247237835  0.604551887
     0.249761713  0.755160210  0.603393513
     0.749159473  0.251376383  0.605981922
     0.749613636  0.758592219  0.604684970
     0.000000500  0.000000500  0.704828963
     0.000000500  0.500000475  0.704828963
     0.500000475  0.000000500  0.704828963
     0.500000464  0.500000475  0.704828963
     0.249999994  0.249999472  0.704824995
     0.250000010  0.749999498  0.704824995
     0.749999994  0.249999472  0.704824995
     0.749999983  0.749999498  0.704824995
     0.000000000  0.000000000  0.807317968
     0.000000000  0.500000000  0.807317968
     0.500000000  0.000000000  0.807317968
     0.499999989  0.500000000  0.807317968
     0.249999994  0.250000000  0.807317968
     0.250000010  0.749999974  0.807317968
     0.749999994  0.250000000  0.807317968
     0.749999983  0.749999974  0.807317968

  ion indices of the primitive-cell ions
   primitive index   ion index
                 1           1
                 2           2
                 3           3
                 4           4
                 5           5
                 6           6
                 7           7
                 8           8
                 9           9
                10          10
                11          11
                12          12
                13          13
                14          14
                15          15
                16          16
                17          17
                18          18
                19          19
                20          20
                21          21
                22          22
                23          23
                24          24
                25          25
                26          26
                27          27
                28          28
                29          29
                30          30
                31          31
                32          32
                33          33
                34          34
                35          35
                36          36
                37          37
                38          38
                39          39
                40          40
                41          41
                42          42
                43          43
                44          44
                45          45
                46          46
                47          47
                48          48
                49          49
                50          50
                51          51
                52          52
                53          53
                54          54
                55          55
                56          56
                57          57
                58          58
                59          59
                60          60
                61          61
                62          62
                63          63
                64          64
                65          65
                66          66
                67          67
                68          68
                69          69
                70          70
                71          71
                72          72
                73          73
                74          74
                75          75
                76          76
                77          77
                78          78
                79          79
                80          80
                81          81
                82          82
                83          83
                84          84
                85          85
                86          86
                87          87
                88          88
                89          89
                90          90
                91          91
                92          92
                93          93
                94          94
                95          95
                96          96
                97          97
                98          98
                99          99
               100         100
               101         101
               102         102
               103         103
               104         104
               105         105
               106         106
               107         107
               108         108
               109         109
               110         110
               111         111
               112         112
               113         113
               114         114
               115         115
               116         116
               117         117
               118         118
               119         119
               120         120
               121         121
               122         122
               123         123
               124         124
               125         125
               126         126
               127         127
               128         128
               129         129
               130         130
               131         131
               132         132
               133         133
               134         134
               135         135
               136         136
               137         137
               138         138
               139         139
               140         140
               141         141
               142         142
               143         143
               144         144
               145         145
               146         146
               147         147
               148         148
               149         149
               150         150
               151         151
               152         152
               153         153
               154         154
               155         155
               156         156
               157         157
               158         158
               159         159
               160         160
               161         161
               162         162
               163         163
               164         164
               165         165
               166         166
               167         167
               168         168
               169         169
               170         170
               171         171
               172         172
               173         173
               174         174
               175         175
               176         176
               177         177
               178         178
               179         179
               180         180
               181         181
               182         182
               183         183
               184         184
               185         185
               186         186
               187         187
               188         188
               189         189
               190         190
               191         191
               192         192
               193         193
               194         194
               195         195
               196         196
               197         197
               198         198
               199         199
               200         200
               201         201
               202         202
               203         203
               204         204
               205         205
               206         206
               207         207
               208         208
               209         209
               210         210
               211         211
               212         212
               213         213
               214         214
               215         215
               216         216
               217         217
               218         218
               219         219
               220         220
               221         221
               222         222
               223         223
               224         224
               225         225
               226         226
               227         227
               228         228
               229         229
               230         230
               231         231
               232         232
               233         233
               234         234
               235         235
               236         236
               237         237
               238         238
               239         239
               240         240
               241         241
               242         242
               243         243
               244         244
               245         245
               246         246
               247         247
               248         248
               249         249
               250         250
               251         251
               252         252
               253         253
               254         254
               255         255
               256         256
               257         257
               258         258
               259         259
               260         260
               261         261
               262         262
               263         263
               264         264
               265         265
               266         266
               267         267
               268         268
               269         269
               270         270
               271         271
               272         272
               273         273
               274         274
               275         275
               276         276
               277         277
               278         278
               279         279
               280         280
               281         281
               282         282
               283         283
               284         284
               285         285
               286         286
               287         287
               288         288
               289         289
               290         290
               291         291
               292         292
               293         293
               294         294
               295         295
               296         296
               297         297
               298         298
               299         299
               300         300
               301         301
               302         302
               303         303
               304         304
               305         305
               306         306
               307         307
               308         308
               309         309
               310         310
               311         311
               312         312
               313         313
               314         314
               315         315
               316         316
               317         317
               318         318
               319         319
               320         320
               321         321
               322         322
               323         323
               324         324
               325         325

----------------------------------------------------------------------------------------

 
 
 KPOINTS: Automatic Mesh                          

Automatic generation of k-mesh.
 Grid dimensions read from file:
 generate k-points for:    3    3    1

 Generating k-lattice:

  Cartesian coordinates                     Fractional coordinates (reciprocal lattice)
     0.018456177  0.000005026 -0.000000000     0.333333333  0.000000000  0.000000000
     0.000000000  0.018454135  0.000000000     0.000000000  0.333333333  0.000000000
     0.000000000 -0.000000000  0.016003201     0.000000000  0.000000000  1.000000000

  Length of vectors
     0.018456178  0.018454135  0.016003201

  Shift w.r.t. Gamma in fractional coordinates (k-lattice)
     0.000000000  0.000000000  0.000000000

 
 Subroutine IBZKPT returns following result:
 ===========================================
 
 Found      5 irreducible k-points:
 
 Following reciprocal coordinates:
            Coordinates               Weight
  0.000000  0.000000  0.000000      1.000000
  0.333333  0.000000  0.000000      2.000000
  0.000000  0.333333  0.000000      2.000000
  0.333333  0.333333  0.000000      2.000000
 -0.333333  0.333333  0.000000      2.000000
 
 Following cartesian coordinates:
            Coordinates               Weight
  0.000000  0.000000  0.000000      1.000000
  0.018456  0.000005  0.000000      2.000000
  0.000000  0.018454  0.000000      2.000000
  0.018456  0.018459  0.000000      2.000000
 -0.018456  0.018449  0.000000      2.000000
 


--------------------------------------------------------------------------------------------------------




 Dimension of arrays:
   k-points           NKPTS =      5   k-points in BZ     NKDIM =      5   number of bands    NBANDS=    732
   number of dos      NEDOS =    301   number of ions     NIONS =    325
   non local maximal  LDIM  =      5   non local SUM 2l+1 LMDIM =     13
   total plane-waves  NPLWV = ******
   max r-space proj   IRMAX =   3336   max aug-charges    IRDMAX=  19845
   dimension x,y,z NGX =   100 NGY =  100 NGZ =  350
   dimension x,y,z NGXF=   200 NGYF=  200 NGZF=  700
   support grid    NGXF=   200 NGYF=  200 NGZF=  700
   ions per type =             143  39  47  72  24
   NGX,Y,Z   is equivalent  to a cutoff of   9.20,  9.20,  9.31 a.u.
   NGXF,Y,Z  is equivalent  to a cutoff of  18.41, 18.41, 18.62 a.u.

 SYSTEM =  PSC                                     
 POSCAR =   H  C  N  I Pb                          

 Startparameter for this run:
   NWRITE =      2    write-flag & timer
   PREC   = normal    normal or accurate (medium, high low for compatibility)
   ISTART =      0    job   : 0-new  1-cont  2-samecut
   ICHARG =      1    charge: 1-file 2-atom 10-const
   ISPIN  =      1    spin polarized calculation?
   LNONCOLLINEAR =      F non collinear calculations
   LSORBIT =      F    spin-orbit coupling
   INIWAV =      1    electr: 0-lowe 1-rand  2-diag
   LASPH  =      F    aspherical Exc in radial PAW
 Electronic Relaxation 1
   ENCUT  =  500.0 eV  36.75 Ry    6.06 a.u.  32.93 32.93113.93*2*pi/ulx,y,z
   ENINI  =  500.0     initial cutoff
   ENAUG  =  644.9 eV  augmentation charge cutoff
   NELM   =    600;   NELMIN=  2; NELMDL=  0     # of ELM steps 
   EDIFF  = 0.1E-03   stopping-criterion for ELM
   LREAL  =      T    real-space projection
   NLSPLINE    = F    spline interpolate recip. space projectors
   LCOMPAT=      F    compatible to vasp.4.4
   GGA_COMPAT  = F    GGA compatible to vasp.4.4-vasp.4.6
   LMAXPAW     = -100 max onsite density
   LMAXMIX     =    2 max onsite mixed and CHGCAR
   VOSKOWN=      0    Vosko Wilk Nusair interpolation
   ROPT   =   -0.00050  -0.00050  -0.00050  -0.00050
   ROPT   =   -0.00050
 Ionic relaxation
   EDIFFG = 0.1E-02   stopping-criterion for IOM
   NSW    =      0    number of steps for IOM
   NBLOCK =      1;   KBLOCK =      1    inner block; outer block 
   IBRION =     -1    ionic relax: 0-MD 1-quasi-New 2-CG
   NFREE  =      0    steps in history (QN), initial steepest desc. (CG)
   ISIF   =      2    stress and relaxation
   IWAVPR =     10    prediction:  0-non 1-charg 2-wave 3-comb
   ISYM   =      0    0-nonsym 1-usesym 2-fastsym
   LCORR  =      T    Harris-Foulkes like correction to forces

   POTIM  = 0.5000    time-step for ionic-motion
   TEIN   =    0.0    initial temperature
   TEBEG  =    0.0;   TEEND  =   0.0 temperature during run
   SMASS  =  -3.00    Nose mass-parameter (am)
   estimated Nose-frequenzy (Omega)   =  0.10E-29 period in steps = 0.13E+47 mass=  -0.745E-26a.u.
   SCALEE = 1.0000    scale energy and forces
   NPACO  =    256;   APACO  = 16.0  distance and # of slots for P.C.
   PSTRESS=    0.0 pullay stress

  Mass of Ions in am
   POMASS =   1.00 12.01 14.00126.90207.20
  Ionic Valenz
   ZVAL   =   1.00  4.00  5.00  7.00  4.00
  Atomic Wigner-Seitz radii
   RWIGS  =  -1.00 -1.00 -1.00 -1.00 -1.00
  virtual crystal weights 
   VCA    =   1.00  1.00  1.00  1.00  1.00
   NELECT =    1134.0000    total number of electrons
   NUPDOWN=      -1.0000    fix difference up-down

 DOS related values:
   EMIN   =  10.00;   EMAX   =-10.00  energy-range for DOS
   EFERMI =   0.00
   ISMEAR =     0;   SIGMA  =   0.05  broadening in eV -4-tet -1-fermi 0-gaus

 Electronic relaxation 2 (details)
   IALGO  =     38    algorithm
   LDIAG  =      T    sub-space diagonalisation (order eigenvalues)
   LSUBROT=      F    optimize rotation matrix (better conditioning)
   TURBO    =      0    0=normal 1=particle mesh
   IRESTART =      0    0=no restart 2=restart with 2 vectors
   NREBOOT  =      0    no. of reboots
   NMIN     =      0    reboot dimension
   EREF     =   0.00    reference energy to select bands
   IMIX   =      4    mixing-type and parameters
     AMIX     =   0.40;   BMIX     =  0.01
     AMIX_MAG =   1.60;   BMIX_MAG =  0.01
     AMIN     =   0.01
     WC   =   100.;   INIMIX=   1;  MIXPRE=   1;  MAXMIX= -45

 Intra band minimization:
   WEIMIN = 0.0000     energy-eigenvalue tresh-hold
   EBREAK =  0.34E-07  absolut break condition
   DEPER  =   0.30     relativ break condition  

   TIME   =   0.40     timestep for ELM

  volume/ion in A,a.u.               =      62.72       423.28
  Fermi-wavevector in a.u.,A,eV,Ry     =   0.624944  1.180972  5.313816  0.390554
  Thomas-Fermi vector in A             =   1.685677
 
 Write flags
   LWAVE        =      F    write WAVECAR
   LDOWNSAMPLE  =      F    k-point downsampling of WAVECAR
   LCHARG       =      T    write CHGCAR
   LVTOT        =      T    write LOCPOT, total local potential
   LVHAR        =      F    write LOCPOT, Hartree potential only
   LELF         =      F    write electronic localiz. function (ELF)
   LORBIT       =      0    0 simple, 1 ext, 2 COOP (PROOUT), +10 PAW based schemes


 Dipole corrections
   LMONO  =      F    monopole corrections only (constant potential shift)
   LDIPOL =      T    correct potential (dipole corrections)
   IDIPOL =      3    1-x, 2-y, 3-z, 4-all directions 
   EPSILON=  1.0000000 bulk dielectric constant

 Exchange correlation treatment:
   GGA     =    --    GGA type
   LEXCH   =     8    internal setting for exchange type
   VOSKOWN=      0    Vosko Wilk Nusair interpolation
   LHFCALC =     F    Hartree Fock is set to
   LHFONE  =     F    Hartree Fock one center treatment
   AEXX    =    0.0000 exact exchange contribution

 Linear response parameters
   LEPSILON=     F    determine dielectric tensor
   LRPA    =     F    only Hartree local field effects (RPA)
   LNABLA  =     F    use nabla operator in PAW spheres
   LVEL    =     F    velocity operator in full k-point grid
   LINTERFAST=   F  fast interpolation
   KINTER  =     0    interpolate to denser k-point grid
   CSHIFT  =0.1000    complex shift for real part using Kramers Kronig
   OMEGAMAX=  -1.0    maximum frequency
   DEG_THRESHOLD= 0.2000000E-02 threshold for treating states as degnerate
   RTIME   =   -0.100 relaxation time in fs
  (WPLASMAI=    0.000 imaginary part of plasma frequency in eV, 0.658/RTIME)
   DFIELD  = 0.0000000 0.0000000 0.0000000 field for delta impulse in time
 
 Orbital magnetization related:
   ORBITALMAG=     F  switch on orbital magnetization
   LCHIMAG   =     F  perturbation theory with respect to B field
   DQ        =  0.001000  dq finite difference perturbation B field
   LLRAUG    =     F  two centre corrections for induced B field



--------------------------------------------------------------------------------------------------------


 Static calculation
 charge density and potential will be updated during run
 non-spin polarized calculation
 Variant of blocked Davidson
 Davidson routine will perform the subspace rotation
 perform sub-space diagonalisation
    after iterative eigenvector-optimisation
 modified Broyden-mixing scheme, WC =      100.0
 initial mixing is a Kerker type mixing with AMIX =  0.4000 and BMIX =      0.0100
 Hartree-type preconditioning will be used
 using additional bands           165
 real space projection scheme for non local part
[...]
     13.54561      0.00000     45.35368        -0.004575      0.003224      0.009825
     13.54315      9.03140     45.35368         0.002995      0.004862      0.019541
     14.01992      9.40090     32.70931         1.051001     -0.485299      0.301484
     15.72560      9.34209     33.45075        -0.438636     -0.272180     -0.233619
     13.85018     11.37683     33.79910         0.115568      0.142668      0.207455
     13.94516     11.48991     35.54799        -0.020258      0.143435      0.169883
     12.33545      8.43577     35.20617         0.051615      0.543649     -0.352861
     12.19493     10.18211     35.56573         0.221054     -0.154725     -0.171272
     14.61219      7.79131     35.85897        -0.097716      0.691716     -0.071590
     15.75055      9.15253     35.97803         0.117413     -0.046721      0.054741
     15.48409      7.10269     34.15670        -0.402958      0.060634     -0.288746
     13.73135      7.00608     33.80325        -0.062162      0.004540      0.105870
     14.01193      7.12867     31.49973         0.488367     -0.132987     -0.041170
     15.65376      7.82653     31.58894        -0.469202     -0.780216      0.088955
     16.21993     11.46910     33.51426         0.103738     -0.024040     -0.139068
     16.61933     11.02322     35.19443        -0.491965      0.134862     -0.162967
     15.81950     12.59496     34.83566         0.128914     -0.406880     -0.174703
     10.80357      9.74857     33.64732         0.221213     -0.191656     -0.059317
     12.08405      8.87591     32.77281        -0.163807     -0.066082     -0.095271
     12.12510     10.65955     32.93306         0.206292     -0.355015      0.506481
     13.20235      8.67858     37.60052        -0.453383     -0.335862      0.000240
     13.55446     10.34862     37.03637        -0.039422     -0.547462      0.559728
     14.68991      9.56560     38.12820        -0.445608     -0.433369     -0.959693
     15.14585      4.92220     32.58038        -0.017166      0.640095     -0.733395
     15.19728      5.27253     30.82822         0.018329     -0.033407      0.174173
     16.98142      3.35836     31.46611         0.101695      0.145855     -0.003741
     17.48454      7.58423     32.29002         0.116373     -0.090206     -0.186868
      1.37709      3.06796     31.61562        -0.136275      0.336943     -0.126024
      1.80594      7.28190     32.47099         0.092371     -0.033343     -0.086716
      2.86274      5.00159     32.10982         0.286424      0.055963      0.170951
     17.92501      4.22982     34.96789        -0.314927     -0.411331     -0.797727
      0.32804     13.86801     34.77494         0.317019      0.229102      0.091551
      9.12063      4.55289     34.84515         0.062095     -0.519215      1.010756
      9.16299     13.85200     34.78988         1.345765     -0.836009      0.166493
      4.55432      9.03266     34.73501        -0.542391     -0.941459      0.953324
      4.65973     17.91765     34.79401         0.025283      0.086307      0.873071
     13.68531     17.92576     34.81610         0.142458      0.403826      0.851238
      0.00464      4.49727     40.55748         2.379387     -2.379366      0.198709
      0.07906     13.75432     40.66278         2.056790     -2.006858      0.977868
      9.04872      4.57951     40.45565         1.404935     -1.690650      1.068624
      9.00532     13.53976     40.62545         0.940109     -1.229063      0.467139
      4.51664      9.02769     40.55600        -1.570700     -1.489865      0.993977
      4.53515     18.02626     40.52252        -0.822776     -0.904071      1.214927
     13.34313      8.93837     40.73608         1.962736      2.219231      0.369200
     13.55990      0.05887     40.53661        -1.489279     -1.289402      1.016717
      9.02897      4.51561     46.44552         0.014070      0.002521      0.043636
      9.02651     13.54701     46.44552         0.006955      0.009171      0.047812
     18.05937      4.51561     46.44552         0.014093      0.004461      0.042677
     18.05691     13.54701     46.44552         0.032380     -0.015470      0.050029
      4.51521      0.00002     46.44421         0.002106      0.003467      0.052024
      4.51275      9.03142     46.44421        -0.011839     -0.010684      0.052872
     13.54561      0.00002     46.44421        -0.000321      0.003085      0.048540
     13.54315      9.03142     46.44421        -0.009608     -0.010066      0.068213
     17.01890      5.50692     31.85299         1.795111      0.116248     -0.426475
     17.62035      4.23366     31.64751        -0.137642      0.337657      0.010012
     17.89160      6.59690     32.05445        -0.316006     -0.524253      0.576838
      0.94468      4.07894     31.70619         0.521347     -0.125909      0.473972
      1.21394      6.40944     32.18630        -0.064634      0.613380      0.149946
      1.79752      5.16789     32.03811        -0.878926     -0.974149     -0.767976
     14.68699      8.94559     33.50126        -0.715056      1.427212     -0.048242
     14.42379     11.04934     34.67632         0.134949     -0.100967     -0.097179
     12.55128      9.45928     34.80999         0.473960     -0.196683     -0.285890
     14.68786      8.89413     35.98955        -0.110592     -0.165820      0.490513
     14.67214      7.46110     33.47670         1.077501     -1.010978     -0.128041
     14.98973      7.02056     32.02787        -0.764662      1.712185     -0.235813
     15.87101     11.52262     34.54809        -0.256601      0.223283      0.366449
     11.89407      9.70463     33.46221        -0.445216      0.286957     -0.098880
     13.98232      9.34778     37.27514         1.053976      1.569538     -0.230610
     15.55456      5.65265     31.80516        -0.999255     -1.294906      0.436941
      0.92839      3.72191     35.55482         0.396796     -0.336308     -0.723451
      0.90276     12.85439     35.35700         0.534974     -1.396950      0.768546
      9.94290      3.71002     35.45636         0.271860     -0.086515     -0.671040
     10.07625     13.07034     35.38791        -1.556015      0.707813     -0.512349
      8.11409      5.16817     35.43421        -0.247996     -0.176269      1.552040
      8.04801     14.29061     35.31639        -0.009800     -0.500246      1.492190
     17.00503      5.00868     35.51387         0.320135     -0.171844     -0.528008
     17.50842     14.63844     35.35012        -1.351355      0.755329      0.790266
      4.07116      8.08413     35.53785        -0.791455     -0.679873     -2.375052
      3.56943     17.46139     35.37910        -0.942986     -1.307158     -2.302479
     12.82056     17.14030     35.40792        -0.678032     -1.433375     -1.935424
      5.55704      0.59292     35.41828         1.380489      0.402221     -2.070091
      5.25245     10.04613     35.17084         0.640228      1.629956     -2.247031
     14.25106      0.89820     35.41838         1.440587      0.526429     -2.247950
      0.87806      3.63293     41.11651        -1.700992      1.636723      0.862374
      0.92266     12.87571     41.26507        -1.876292      1.596020     -0.057176
      9.82285      3.64601     41.04706        -1.917180      1.748040      0.882747
      9.73125     12.72065     41.38191         0.431678     -0.392723     -1.401045
      3.68270      8.20252     41.20617         0.518312      0.498100      0.219374
      3.70872     17.21088     41.18054         0.298388      0.376806      0.284356
     12.67723      8.15066     41.51578        -1.342589     -1.505962     -0.938671
     12.64306     17.37794     41.17907         0.694844      0.450903      0.255568
      8.16601      5.32437     41.04782        -0.772832      0.377264      1.719762
      8.15396     14.41846     41.05923        -0.547481      0.601102      1.463761
     17.25661      5.26345     41.18526        -2.120736      2.013594      0.554883
     17.21988     14.44811     41.25779        -0.149144      0.070802      0.269616
      5.33846      0.84950     41.06853         0.228782      0.210670      0.410516
      5.32605      9.87832     41.11124         0.447890      0.483404      1.448072
     14.48500      0.77805     41.09760         0.988842      0.864291      1.183254
     14.25456      9.86701     41.13397        -1.569594     -1.758263      0.077896
      0.82731      3.68697     47.03596         0.015755     -0.025158     -0.089403
      0.82485     12.71837     47.03596         0.007502     -0.007909     -0.097021
      9.85771      3.68697     47.03596         0.017111     -0.020253     -0.084729
      9.85525     12.71837     47.03596         0.026435     -0.022689     -0.088964
      3.68432      8.20234     47.03465        -0.002895     -0.004703     -0.078927
      3.68186     17.23373     47.03465        -0.012547     -0.013257     -0.073462
     12.71472      8.20234     47.03465        -0.003457     -0.004904     -0.087758
     12.71226     17.23373     47.03465        -0.007081     -0.017456     -0.071567
      8.20068      5.34457     47.03603        -0.019483      0.018902     -0.089817
      8.19822     14.37597     47.03603        -0.017158      0.013110     -0.095763
     17.23108      5.34457     47.03603        -0.022920      0.017013     -0.098459
     17.22862     14.37597     47.03603        -0.034369      0.027263     -0.091596
      5.34365      0.82909     47.03465         0.011256      0.007163     -0.077328
      5.34119      9.86049     47.03465         0.017747      0.017678     -0.072848
     14.37405      0.82909     47.03465         0.014054      0.006971     -0.073373
     14.37159      9.86049     47.03465         0.010959      0.018534     -0.082345
     14.11408      9.58231     34.75411        -0.450077     -0.787767      0.455948
      8.94003      0.02117     34.51148         0.025988      0.013209     -0.035132
      8.56632      8.69554     34.69578        -0.097200      0.016812     -0.032109
     17.99778      0.04610     34.43039        -0.038994      0.030015      0.047904
      0.40206      8.97140     34.86825         0.227910     -0.075861     -0.233919
      4.69874      4.43126     34.62510        -0.130755      0.012070      0.068115
      4.45334     13.70765     34.46053         0.015523     -0.005212      0.062233
     13.28708      4.15326     34.70921         0.175902      0.109330     -0.073129
     13.11809     13.97173     34.17200        -0.113892      0.468738     -0.033846
      0.06174      0.07560     40.86727        -0.014372     -0.104205      0.047849
      0.10437      9.04565     41.02673        -0.074011      0.011319     -0.083349
      9.13139      0.08735     40.89257        -0.160140     -0.089834      0.033475
      9.05770      9.02972     40.96788        -0.047938     -0.049174     -0.180090
      4.46176      4.47102     40.95586         0.067936     -0.007209     -0.042221
      4.45173     13.59087     40.89636         0.096853     -0.030269     -0.015091
     13.39188      4.49775     40.99517         0.054793     -0.012987     -0.226948
     13.50033     13.68303     40.83376         0.043415     -0.027065      0.078620
      2.63205      1.87427     38.07513         0.027775     -0.019754     -0.072210
      2.68918     10.94061     38.06932         0.013430      0.061544     -0.064660
     11.59804      1.91575     38.08778         0.011738      0.047863     -0.059331
     11.19254     11.40038     38.35801        -0.002724     -0.083980     -0.171100
      6.43270      7.04325     38.17366         0.176546      0.038282     -0.019726
      6.42555     16.11092     38.04161         0.173081      0.085903     -0.024761
     15.89556      6.71714     38.34516        -0.063069     -0.095680      0.013288
     15.44699     16.18079     37.99968         0.091391     -0.005671     -0.042021
      2.00878      6.38291     38.11096         0.066316      0.065334     -0.052024
      1.94018     15.48307     38.01118        -0.027545      0.149978     -0.052454
     11.11233      6.57259     37.91150        -0.045399      0.054554      0.006929
     10.97745     15.56580     38.12891         0.035486      0.090072     -0.060494
      7.11637      2.53292     38.11498         0.034075      0.054986     -0.028574
      7.02394     11.65041     37.90507         0.063584     -0.120181      0.007618
     16.09487      2.46676     38.09087        -0.114522      0.077072      0.028854
     16.43935     11.94213     38.32095        -0.059374     -0.088904     -0.271882
      0.00000      0.00000     47.17356        -0.003253     -0.002142      0.390525
     -0.00246      9.03140     47.17356        -0.004069      0.003288      0.565174
      9.03040      0.00000     47.17356        -0.001105     -0.002802      0.455303
      9.02794      9.03140     47.17356         0.002535      0.003204      0.511399
      4.51398      4.51570     47.17425         0.000921     -0.003152      0.494008
      4.51152     13.54710     47.17425         0.000963      0.002778      0.418140
     13.54438      4.51570     47.17425         0.001957      0.000481      0.476642
     13.54192     13.54710     47.17425         0.001756      0.000620      0.257312
      2.45192      2.06295     44.04013        -0.008515     -0.041897      0.007780
      2.44946     11.09435     44.04013         0.047471      0.001798      0.028415
     11.48232      2.06295     44.04013        -0.019173     -0.001091     -0.008143
     11.47986     11.09435     44.04013         0.083390      0.002686      0.025996
      6.57602      6.96845     44.04013         0.021396     -0.034060     -0.070002
      6.57356     15.99985     44.04013         0.017208     -0.022524     -0.062295
     15.60642      6.96845     44.04013        -0.013778     -0.019135     -0.057314
     15.60396     15.99985     44.04013        -0.048981      0.014142      0.017089
      2.06108      6.57881     44.04000        -0.004656     -0.013841      0.014638
      2.05862     15.61021     44.04000        -0.012393      0.017744      0.002707
     11.09148      6.57881     44.04000        -0.100073     -0.102435      0.177968
     11.08902     15.61021     44.04000         0.021020     -0.021778     -0.015334
      6.96686      2.45259     44.04007         0.004034     -0.010567     -0.067054
      6.96440     11.48399     44.04007        -0.035394     -0.003445     -0.049322
     15.99726      2.45259     44.04007        -0.006055     -0.026578     -0.055577
     15.99481     11.48399     44.04007        -0.051891      0.043706     -0.069446
      2.43163      2.08322     50.06849        -0.003337     -0.025111      0.022003
      2.42917     11.11462     50.06849         0.018980      0.001527      0.021566
     11.46203      2.08322     50.06849         0.007502     -0.015727      0.022569
     11.45957     11.11462     50.06849         0.031428      0.010977      0.020170
      6.59631      6.94818     50.06849        -0.006817      0.012889      0.023266
      6.59385     15.97958     50.06849        -0.010082      0.008739      0.021488
     15.62671      6.94818     50.06849        -0.015851      0.005197      0.021971
     15.62425     15.97958     50.06849        -0.020210     -0.000195      0.019663
      2.08113      6.59901     50.06905        -0.008985     -0.011392      0.023349
      2.07867     15.63041     50.06905        -0.015519     -0.005860      0.021143
     11.11153      6.59901     50.06905        -0.007181     -0.010346      0.021682
     11.10907     15.63041     50.06905         0.005642     -0.025962      0.020846
      6.94681      2.43239     50.06905         0.017826      0.000313      0.022844
      6.94435     11.46379     50.06905         0.005120      0.017257      0.022291
     15.97721      2.43239     50.06905         0.018491     -0.000658      0.021578
     15.97475     11.46379     50.06905        -0.014796      0.035203      0.020407
     18.05086      0.02947     37.67680         0.029496     -0.011462     -0.019565
      0.18827      9.07590     37.91690        -0.040089      0.034062      0.031572
      9.01611      0.02939     37.62736         0.057289     -0.187724      0.102771
      9.02909      8.98531     37.71288        -0.086194      0.125553      0.076299
      4.60808      4.46581     37.77694        -0.216106      0.012499     -0.078569
      4.50718     13.64031     37.70455        -0.134124     -0.110412     -0.110627
     13.52918      4.54056     37.86629         0.123790     -0.093269     -0.079241
     13.53489     13.70230     37.78525         0.017932     -0.100719     -0.039770
      0.00001      0.00001     44.04300         0.056912      0.008805     -0.003342
     -0.00245      9.03141     44.04300         0.056376     -0.023556      0.263299
      9.03041      0.00001     44.04300         0.023673      0.017348     -0.039063
      9.02795      9.03141     44.04300        -0.029106     -0.034665      0.127050
      4.51397      4.51569     44.04275        -0.028396      0.025740      0.122438
      4.51151     13.54709     44.04275        -0.029342     -0.005373      0.049572
     13.54437      4.51569     44.04275        -0.027762     -0.040486      0.305202
     13.54191     13.54709     44.04275        -0.043428      0.004029      0.132283
      0.00000      0.00000     50.44728         0.012664      0.015999     -0.620250
     -0.00246      9.03140     50.44728         0.010911     -0.017982     -0.666369
      9.03040      0.00000     50.44728        -0.009933      0.017858     -0.638928
      9.02794      9.03140     50.44728        -0.013223     -0.016546     -0.651825
      4.51397      4.51570     50.44728         0.000487      0.011583     -0.649692
      4.51151     13.54710     50.44728         0.001996     -0.011898     -0.628236
     13.54437      4.51570     50.44728        -0.001927      0.010616     -0.642856
     13.54191     13.54710     50.44728         0.000015     -0.011375     -0.582605
 -----------------------------------------------------------------------------------
    total drift:                               -0.051863      0.078164      0.353189


--------------------------------------------------------------------------------------------------------



  FREE ENERGIE OF THE ION-ELECTRON SYSTEM (eV)
  ---------------------------------------------------
  free  energy   TOTEN  =     -1571.56615745 eV

  energy  without entropy=    -1571.56615745  energy(sigma->0) =    -1571.56615745
 


--------------------------------------------------------------------------------------------------------


    POTLOK:  cpu time    0.5020: real time    0.5019


--------------------------------------------------------------------------------------------------------


     LOOP+:  cpu time  328.0029: real time  328.5672
 vacuum level on the upper side and lower side of the slab         2.408         1.487
    4ORBIT:  cpu time    0.0000: real time    0.0000

 total amount of memory used by VASP MPI-rank0  8653570. kBytes
=======================================================================

   base      :      30000. kBytes
   nonlr-proj:      53608. kBytes
   fftplans  :     249280. kBytes
   grid      :     701440. kBytes
   one-center:       2636. kBytes
   wavefun   :    7616606. kBytes
 
  
  
 General timing and accounting informations for this job:
 ========================================================
  
                  Total CPU time used (sec):      539.929
                            User time (sec):      433.826
                          System time (sec):      106.103
                         Elapsed time (sec):      542.361
  
                   Maximum memory used (kb):    10307560.
                   Average memory used (kb):          N/A
  
                          Minor page faults:      3757135
                          Major page faults:           13
                 Voluntary context switches:        11177
