<?xml version="1.0" encoding="ISO-8859-1"?>
<modeling>
 <generator>
  <i name="program" type="string">vasp </i>
  <i name="version" type="string">6.2.1  </i>
  <i name="subversion" type="string">16May21 (build Nov 15 2021 14:57:28) complex                          parallel </i>
  <i name="platform" type="string">LinuxPGI </i>
  <i name="date" type="string">2023 07 30 </i>
  <i name="time" type="string">09:37:02 </i>
 </generator>
 <incar>
  <i type="string" name="SYSTEM">PSC</i>
  <i type="int" name="ISTART">     1</i>
  <i type="string" name="PREC">Normal</i>
  <i name="BMIX">      0.01000000</i>
  <i name="AMIN">      0.01000000</i>
  <i type="int" name="ICHARG">     1</i>
  <i type="int" name="NELM">   600</i>
  <i type="int" name="ISYM">     0</i>
  <i name="ENCUT">    500.00000000</i>
  <i type="string" name="LREAL">Auto</i>
  <i type="int" name="ISMEAR">     0</i>
  <i name="SIGMA">      0.05000000</i>
  <i type="logical" name="LWAVE"> F  </i>
  <i type="logical" name="LVTOT"> T  </i>
  <i type="logical" name="GGA_COMPAT"> F  </i>
  <i type="logical" name="LDIPOL"> T  </i>
  <i type="int" name="IDIPOL">     3</i>
  <i type="int" name="IVDW">    12</i>
 </incar>
 <primitive_cell>
  <structure name="primitive_cell" >
   <crystal>
    <varray name="basis" >
     <v>      18.06080055       0.00000000       0.00000000 </v>
     <v>      -0.00491865      18.06279945       0.00000000 </v>
     <v>       0.00000000       0.00000000      62.48749924 </v>
    </varray>
    <i name="volume">  20385.21054034 </i>
    <varray name="rec_basis" >
     <v>       0.05536853       0.00001508      -0.00000000 </v>
     <v>       0.00000000       0.05536240       0.00000000 </v>
     <v>       0.00000000      -0.00000000       0.01600320 </v>
    </varray>
   </crystal>
   <varray name="positions" >
    <v>       0.43575872       0.28169816       0.58386550 </v>
    <v>       0.43048450       0.77932794       0.58108711 </v>
    <v>       0.94199173       0.29514584       0.58409430 </v>
    <v>       0.95116016       0.80562462       0.58159496 </v>
    <v>       0.30430912       0.05007362       0.58210746 </v>
    <v>       0.30658652       0.56615130       0.57818718 </v>
    <v>       0.77861094       0.06609573       0.58191192 </v>
    <v>       0.08874726       0.17460039       0.55967255 </v>
    <v>       0.08831806       0.67941784       0.55795376 </v>
    <v>       0.59666377       0.18502700       0.55889969 </v>
    <v>       0.60662073       0.71049467       0.55847608 </v>
    <v>       0.35608024       0.04982006       0.55809686 </v>
    <v>       0.30996783       0.59574795       0.55135289 </v>
    <v>       0.82725393       0.08258320       0.55794002 </v>
    <v>       0.06384941       0.21637978       0.58473170 </v>
    <v>       0.03974214       0.69365611       0.58146640 </v>
    <v>       0.54679904       0.19117350       0.58341436 </v>
    <v>       0.55199635       0.70772844       0.58192743 </v>
    <v>       0.23353180       0.44629544       0.58461888 </v>
    <v>       0.18328660       0.97703969       0.58143966 </v>
    <v>       0.69160674       0.95439446       0.58175442 </v>
    <v>       0.41496702       0.32039827       0.55878523 </v>
    <v>       0.41082805       0.82436992       0.55704147 </v>
    <v>       0.90017729       0.29575903       0.55832597 </v>
    <v>       0.94568107       0.85417042       0.55763943 </v>
    <v>       0.19457946       0.40347970       0.56189754 </v>
    <v>       0.16078184       0.93371087       0.55692688 </v>
    <v>       0.68945038       0.90195778       0.55775578 </v>
    <v>       0.51472488       0.26068900       0.54058975 </v>
    <v>       0.52088973       0.78296089       0.54031779 </v>
    <v>       0.98335622       0.21677231       0.54245072 </v>
    <v>       0.03707840       0.78277974       0.54046668 </v>
    <v>       0.24065248       0.49566568       0.53861457 </v>
    <v>       0.26956803       0.97648648       0.54015149 </v>
    <v>       0.77452219       0.97957497       0.54066728 </v>
    <v>       0.43844889       0.29492147       0.67338621 </v>
    <v>       0.44020355       0.80775227       0.67341100 </v>
    <v>       0.94702524       0.29868146       0.67530151 </v>
    <v>       0.94286206       0.79799287       0.67630928 </v>
    <v>       0.30090128       0.05634646       0.67364872 </v>
    <v>       0.30126231       0.55528257       0.67454996 </v>
    <v>       0.81082245       0.04894909       0.67442157 </v>
    <v>       0.80395923       0.55412831       0.67405584 </v>
    <v>       0.08136603       0.17010287       0.64880885 </v>
    <v>       0.08869221       0.68617880       0.65130135 </v>
    <v>       0.57991791       0.17354680       0.64804386 </v>
    <v>       0.57368643       0.66554509       0.65453857 </v>
    <v>       0.17083791       0.41911587       0.65070809 </v>
    <v>       0.17377297       0.91618155       0.65044473 </v>
    <v>       0.66569636       0.41335712       0.65693950 </v>
    <v>       0.66251368       0.93270997       0.65019285 </v>
    <v>       0.05293576       0.19482571       0.67447029 </v>
    <v>       0.05023928       0.70220417       0.67656629 </v>
    <v>       0.54089472       0.19082043       0.67325282 </v>
    <v>       0.54008243       0.70245855       0.67838489 </v>
    <v>       0.19817088       0.45095062       0.67605899 </v>
    <v>       0.19934599       0.95084799       0.67563953 </v>
    <v>       0.70337370       0.44769728       0.68065805 </v>
    <v>       0.69608559       0.95709876       0.67559020 </v>
    <v>       0.42284014       0.33227416       0.64832712 </v>
    <v>       0.42342024       0.83083912       0.64669465 </v>
    <v>       0.92065315       0.32571811       0.64996618 </v>
    <v>       0.92247644       0.83404151       0.65121362 </v>
    <v>       0.32866708       0.07827770       0.64738260 </v>
    <v>       0.32775290       0.57894624       0.64862168 </v>
    <v>       0.83739094       0.07403246       0.64827364 </v>
    <v>       0.81322887       0.57790180       0.64695441 </v>
    <v>       0.00115850       0.24965344       0.63165014 </v>
    <v>       0.01428610       0.76747960       0.63377123 </v>
    <v>       0.50995654       0.26062237       0.63052882 </v>
    <v>       0.50734043       0.74218602       0.63299080 </v>
    <v>       0.25100971       0.99038884       0.63138477 </v>
    <v>       0.24667420       0.49483501       0.63183102 </v>
    <v>       0.74620568       0.00043424       0.63151858 </v>
    <v>       0.72965806       0.49313271       0.63467760 </v>
    <v>       0.44874502       0.30128397       0.76888902 </v>
    <v>       0.44874501       0.80128391       0.76888902 </v>
    <v>       0.94874497       0.30128397       0.76888902 </v>
    <v>       0.94874501       0.80128391       0.76888902 </v>
    <v>       0.30127600       0.05129450       0.76887296 </v>
    <v>       0.30127601       0.55129450       0.76887296 </v>
    <v>       0.80127594       0.05129450       0.76887296 </v>
    <v>       0.80127598       0.55129450       0.76887296 </v>
    <v>       0.07877100       0.17118050       0.74344197 </v>
    <v>       0.07877101       0.67118045       0.74344197 </v>
    <v>       0.57877100       0.17118050       0.74344197 </v>
    <v>       0.57877099       0.67118045       0.74344197 </v>
    <v>       0.17119950       0.42117448       0.74342103 </v>
    <v>       0.17119950       0.92117451       0.74342103 </v>
    <v>       0.67119951       0.42117448       0.74342103 </v>
    <v>       0.67119950       0.92117451       0.74342103 </v>
    <v>       0.05125600       0.19871499       0.76888902 </v>
    <v>       0.05125600       0.69871493       0.76888902 </v>
    <v>       0.55125603       0.19871499       0.76888902 </v>
    <v>       0.55125602       0.69871493       0.76888902 </v>
    <v>       0.19872349       0.44870397       0.76887205 </v>
    <v>       0.19872349       0.94870397       0.76887205 </v>
    <v>       0.69872352       0.44870397       0.76887205 </v>
    <v>       0.69872351       0.94870397       0.76887205 </v>
    <v>       0.42123152       0.32881747       0.74344197 </v>
    <v>       0.42123151       0.82881744       0.74344197 </v>
    <v>       0.92123147       0.32881747       0.74344197 </v>
    <v>       0.92123151       0.82881744       0.74344197 </v>
    <v>       0.32880050       0.07882500       0.74342103 </v>
    <v>       0.32880049       0.57882496       0.74342103 </v>
    <v>       0.82880048       0.07882500       0.74342103 </v>
    <v>       0.82880052       0.57882496       0.74342103 </v>
    <v>       0.00000350       0.25000148       0.72582199 </v>
    <v>       0.00000350       0.75000145       0.72582199 </v>
    <v>       0.50000351       0.25000148       0.72582199 </v>
    <v>       0.50000350       0.75000145       0.72582199 </v>
    <v>       0.25000050       0.00000000       0.72580398 </v>
    <v>       0.25000052       0.50000000       0.72580398 </v>
    <v>       0.75000050       0.00000000       0.72580398 </v>
    <v>       0.75000049       0.50000000       0.72580398 </v>
    <v>       0.77640398       0.52045636       0.52345364 </v>
    <v>       0.87084403       0.51720044       0.53531911 </v>
    <v>       0.76703553       0.62984851       0.54089383 </v>
    <v>       0.77229621       0.63610931       0.56888167 </v>
    <v>       0.68312295       0.46702435       0.56341133 </v>
    <v>       0.67536867       0.56370624       0.56916560 </v>
    <v>       0.80917320       0.43134554       0.57385831 </v>
    <v>       0.87222294       0.50670631       0.57576372 </v>
    <v>       0.85743830       0.39322195       0.54661647 </v>
    <v>       0.76039036       0.38787357       0.54096025 </v>
    <v>       0.77592749       0.39466008       0.50409649 </v>
    <v>       0.86684375       0.43329528       0.50552418 </v>
    <v>       0.89824687       0.63495689       0.53633542 </v>
    <v>       0.92035406       0.61027180       0.56322349 </v>
    <v>       0.87609254       0.69728738       0.55748211 </v>
    <v>       0.59832472       0.53970435       0.53846476 </v>
    <v>       0.66920972       0.49139149       0.52446983 </v>
    <v>       0.67150970       0.59013851       0.52703443 </v>
    <v>       0.73112577       0.48046712       0.60172863 </v>
    <v>       0.75064665       0.57292461       0.59270052 </v>
    <v>       0.81350270       0.52957463       0.61017319 </v>
    <v>       0.83867759       0.27250505       0.52139042 </v>
    <v>       0.84153078       0.29189986       0.49335014 </v>
    <v>       0.94028684       0.18592675       0.50355851 </v>
    <v>       0.96820760       0.41988096       0.51674361 </v>
    <v>       0.07629363       0.16984988       0.50595114 </v>
    <v>       0.10010207       0.40314354       0.51963982 </v>
    <v>       0.15858110       0.27689977       0.51385986 </v>
    <v>       0.99254529       0.23417291       0.55959813 </v>
    <v>       0.01837214       0.76776624       0.55651042 </v>
    <v>       0.50506434       0.25205919       0.55763393 </v>
    <v>       0.50755034       0.76687998       0.55674948 </v>
    <v>       0.25230230       0.50006969       0.55587137 </v>
    <v>       0.25827229       0.99196430       0.55681559 </v>
    <v>       0.75800572       0.99241321       0.55716906 </v>
    <v>       0.00032483       0.24897953       0.64904956 </v>
    <v>       0.00458454       0.76147228       0.65073459 </v>
    <v>       0.50108330       0.25353248       0.64741996 </v>
    <v>       0.49881567       0.74959391       0.65013730 </v>
    <v>       0.25021561       0.49979472       0.64902587 </v>
    <v>       0.25137628       0.99797710       0.64849000 </v>
    <v>       0.73892449       0.49484980       0.65190773 </v>
    <v>       0.75079265       0.00325911       0.64871551 </v>
    <v>       0.49998898       0.24999498       0.74327702 </v>
    <v>       0.49998903       0.74999496       0.74327702 </v>
    <v>       0.99998898       0.24999498       0.74327702 </v>
    <v>       0.99998903       0.74999496       0.74327702 </v>
    <v>       0.25000050       0.00000100       0.74325596 </v>
    <v>       0.25000052       0.50000100       0.74325596 </v>
    <v>       0.75000050       0.00000100       0.74325596 </v>
    <v>       0.75000049       0.50000100       0.74325596 </v>
    <v>       0.94239473       0.30487643       0.50974978 </v>
    <v>       0.97567673       0.23438548       0.50646147 </v>
    <v>       0.99073095       0.36522037       0.51297382 </v>
    <v>       0.05236732       0.22582018       0.50740053 </v>
    <v>       0.06731048       0.35484201       0.51508386 </v>
    <v>       0.09960384       0.28610663       0.51271235 </v>
    <v>       0.81333193       0.49524910       0.53612731 </v>
    <v>       0.79879082       0.61171788       0.55493204 </v>
    <v>       0.69508867       0.52368843       0.55707132 </v>
    <v>       0.81337947       0.49240030       0.57594802 </v>
    <v>       0.81248740       0.41306431       0.53573429 </v>
    <v>       0.83006528       0.38867488       0.51254844 </v>
    <v>       0.87892839       0.63792017       0.55287999 </v>
    <v>       0.65870359       0.53727138       0.53550249 </v>
    <v>       0.77432129       0.51751574       0.59652147 </v>
    <v>       0.86131856       0.31294444       0.50898443 </v>
    <v>       0.05145995       0.20605402       0.56899100 </v>
    <v>       0.05017839       0.71165005       0.56582515 </v>
    <v>       0.55057990       0.20539562       0.56741531 </v>
    <v>       0.55810434       0.72360524       0.56631987 </v>
    <v>       0.44934311       0.28612208       0.56706075 </v>
    <v>       0.44582216       0.79116233       0.56517530 </v>
    <v>       0.94161914       0.27729280       0.56833560 </v>
    <v>       0.96963594       0.81041902       0.56571502 </v>
    <v>       0.22553616       0.44755673       0.56871928 </v>
    <v>       0.19789733       0.96670433       0.56617892 </v>
    <v>       0.71011400       0.94892845       0.56664007 </v>
    <v>       0.30769394       0.03282554       0.56680587 </v>
    <v>       0.29097188       0.55617771       0.56284597 </v>
    <v>       0.78907404       0.04972651       0.56680746 </v>
    <v>       0.04867157       0.20112757       0.65799574 </v>
    <v>       0.05128039       0.71283039       0.66037317 </v>
    <v>       0.54393203       0.20185170       0.65688431 </v>
    <v>       0.53899675       0.70424585       0.66224299 </v>
    <v>       0.20402936       0.45411146       0.65943066 </v>
    <v>       0.20560575       0.95283581       0.65902048 </v>
    <v>       0.70204265       0.45123995       0.66438533 </v>
    <v>       0.70028947       0.96208469       0.65899692 </v>
    <v>       0.45222009       0.29477010       0.65689659 </v>
    <v>       0.45169003       0.79824050       0.65707906 </v>
    <v>       0.95555278       0.29139725       0.65909600 </v>
    <v>       0.95365741       0.79988187       0.66025663 </v>
    <v>       0.29559542       0.04703020       0.65722795 </v>
    <v>       0.29504455       0.54688732       0.65791138 </v>
    <v>       0.80202468       0.04307477       0.65769313 </v>
    <v>       0.78940263       0.54626124       0.65827516 </v>
    <v>       0.04586250       0.20411950       0.75272599 </v>
    <v>       0.04586250       0.70411946       0.75272599 </v>
    <v>       0.54586251       0.20411950       0.75272599 </v>
    <v>       0.54586250       0.70411946       0.75272599 </v>
    <v>       0.20411900       0.45410100       0.75270499 </v>
    <v>       0.20411899       0.95410095       0.75270499 </v>
    <v>       0.70411898       0.45410100       0.75270499 </v>
    <v>       0.70411896       0.95410095       0.75270499 </v>
    <v>       0.45414002       0.29588849       0.75272697 </v>
    <v>       0.45414001       0.79588852       0.75272697 </v>
    <v>       0.95414002       0.29588849       0.75272697 </v>
    <v>       0.95414006       0.79588852       0.75272697 </v>
    <v>       0.29588249       0.04590050       0.75270499 </v>
    <v>       0.29588248       0.54590053       0.75270499 </v>
    <v>       0.79588244       0.04590050       0.75270499 </v>
    <v>       0.79588248       0.54590053       0.75270499 </v>
    <v>       0.78162011       0.53049986       0.55617704 </v>
    <v>       0.49499639       0.00117211       0.55229418 </v>
    <v>       0.47443590       0.48140602       0.55524350 </v>
    <v>       0.99651114       0.00255211       0.55099650 </v>
    <v>       0.02239699       0.49667807       0.55800358 </v>
    <v>       0.26022909       0.24532508       0.55411242 </v>
    <v>       0.24678181       0.75888857       0.55147877 </v>
    <v>       0.73574893       0.22993463       0.55545839 </v>
    <v>       0.72654001       0.77350868       0.54686133 </v>
    <v>       0.00341986       0.00418555       0.65400715 </v>
    <v>       0.00591519       0.50078869       0.65655905 </v>
    <v>       0.50559279       0.00483568       0.65441208 </v>
    <v>       0.50164754       0.49990723       0.65561715 </v>
    <v>       0.24710830       0.24752653       0.65542479 </v>
    <v>       0.24669052       0.75242318       0.65447270 </v>
    <v>       0.74155654       0.24900608       0.65605389 </v>
    <v>       0.74769980       0.75752523       0.65347091 </v>
    <v>       0.14576082       0.10376387       0.60932402 </v>
    <v>       0.14906104       0.60569873       0.60923098 </v>
    <v>       0.64219525       0.10606037       0.60952633 </v>
    <v>       0.61988645       0.63115234       0.61385093 </v>
    <v>       0.35627517       0.38993152       0.61090081 </v>
    <v>       0.35601623       0.89193915       0.60878748 </v>
    <v>       0.88021505       0.37187716       0.61364532 </v>
    <v>       0.85552127       0.89580732       0.60811644 </v>
    <v>       0.11131945       0.35337312       0.60989732 </v>
    <v>       0.10765855       0.85718010       0.60830056 </v>
    <v>       0.61537246       0.36387464       0.60670539 </v>
    <v>       0.60804005       0.86176009       0.61018454 </v>
    <v>       0.39406092       0.14022876       0.60996172 </v>
    <v>       0.38908106       0.64499448       0.60660241 </v>
    <v>       0.89118627       0.13656588       0.60957578 </v>
    <v>       0.91040294       0.66114482       0.61325791 </v>
    <v>       0.00000000       0.00000000       0.75492797 </v>
    <v>       0.00000000       0.50000000       0.75492797 </v>
    <v>       0.50000000       0.00000000       0.75492797 </v>
    <v>       0.49999999       0.50000000       0.75492797 </v>
    <v>       0.25000050       0.25000000       0.75493902 </v>
    <v>       0.25000051       0.74999997       0.75493902 </v>
    <v>       0.75000047       0.25000000       0.75493902 </v>
    <v>       0.75000046       0.74999997       0.75493902 </v>
    <v>       0.13579050       0.11421000       0.70478299 </v>
    <v>       0.13579050       0.61420998       0.70478299 </v>
    <v>       0.63579045       0.11421000       0.70478299 </v>
    <v>       0.63579049       0.61420998       0.70478299 </v>
    <v>       0.36420952       0.38578999       0.70478299 </v>
    <v>       0.36420950       0.88578996       0.70478299 </v>
    <v>       0.86420954       0.38578999       0.70478299 </v>
    <v>       0.86420953       0.88578996       0.70478299 </v>
    <v>       0.11421799       0.36421899       0.70478098 </v>
    <v>       0.11421799       0.86421899       0.70478098 </v>
    <v>       0.61421800       0.36421899       0.70478098 </v>
    <v>       0.61421799       0.86421899       0.70478098 </v>
    <v>       0.38578201       0.13578149       0.70478202 </v>
    <v>       0.38578200       0.63578149       0.70478202 </v>
    <v>       0.88578199       0.13578149       0.70478202 </v>
    <v>       0.88578203       0.63578149       0.70478202 </v>
    <v>       0.13466700       0.11533200       0.80125603 </v>
    <v>       0.13466699       0.61533199       0.80125603 </v>
    <v>       0.63466699       0.11533200       0.80125603 </v>
    <v>       0.63466698       0.61533199       0.80125603 </v>
    <v>       0.36533300       0.38466799       0.80125603 </v>
    <v>       0.36533299       0.88466796       0.80125603 </v>
    <v>       0.86533295       0.38466799       0.80125603 </v>
    <v>       0.86533294       0.88466796       0.80125603 </v>
    <v>       0.11532850       0.36533700       0.80126500 </v>
    <v>       0.11532850       0.86533698       0.80126500 </v>
    <v>       0.61532850       0.36533700       0.80126500 </v>
    <v>       0.61532849       0.86533698       0.80126500 </v>
    <v>       0.38467151       0.13466300       0.80126500 </v>
    <v>       0.38467150       0.63466297       0.80126500 </v>
    <v>       0.88467149       0.13466300       0.80126500 </v>
    <v>       0.88467153       0.63466297       0.80126500 </v>
    <v>       0.99945001       0.00163175       0.60294933 </v>
    <v>       0.01056096       0.50246386       0.60679178 </v>
    <v>       0.49920902       0.00162710       0.60215816 </v>
    <v>       0.50006266       0.49744823       0.60352672 </v>
    <v>       0.25520995       0.24723784       0.60455189 </v>
    <v>       0.24976171       0.75516021       0.60339351 </v>
    <v>       0.74915947       0.25137638       0.60598192 </v>
    <v>       0.74961364       0.75859222       0.60468497 </v>
    <v>       0.00000050       0.00000050       0.70482896 </v>
    <v>       0.00000050       0.50000048       0.70482896 </v>
    <v>       0.50000048       0.00000050       0.70482896 </v>
    <v>       0.50000046       0.50000048       0.70482896 </v>
    <v>       0.24999999       0.24999947       0.70482499 </v>
    <v>       0.25000001       0.74999950       0.70482499 </v>
    <v>       0.74999999       0.24999947       0.70482499 </v>
    <v>       0.74999998       0.74999950       0.70482499 </v>
    <v>       0.00000000       0.00000000       0.80731797 </v>
    <v>       0.00000000       0.50000000       0.80731797 </v>
    <v>       0.50000000       0.00000000       0.80731797 </v>
    <v>       0.49999999       0.50000000       0.80731797 </v>
    <v>       0.24999999       0.25000000       0.80731797 </v>
    <v>       0.25000001       0.74999997       0.80731797 </v>
    <v>       0.74999999       0.25000000       0.80731797 </v>
    <v>       0.74999998       0.74999997       0.80731797 </v>
   </varray>
  </structure>
  <varray name="primitive_index" >
   <v type="int" >        1 </v>
   <v type="int" >        2 </v>
   <v type="int" >        3 </v>
   <v type="int" >        4 </v>
   <v type="int" >        5 </v>
   <v type="int" >        6 </v>
   <v type="int" >        7 </v>
   <v type="int" >        8 </v>
   <v type="int" >        9 </v>
   <v type="int" >       10 </v>
   <v type="int" >       11 </v>
   <v type="int" >       12 </v>
   <v type="int" >       13 </v>
   <v type="int" >       14 </v>
   <v type="int" >       15 </v>
   <v type="int" >       16 </v>
   <v type="int" >       17 </v>
   <v type="int" >       18 </v>
   <v type="int" >       19 </v>
   <v type="int" >       20 </v>
   <v type="int" >       21 </v>
   <v type="int" >       22 </v>
   <v type="int" >       23 </v>
   <v type="int" >       24 </v>
   <v type="int" >       25 </v>
   <v type="int" >       26 </v>
   <v type="int" >       27 </v>
   <v type="int" >       28 </v>
   <v type="int" >       29 </v>
   <v type="int" >       30 </v>
   <v type="int" >       31 </v>
   <v type="int" >       32 </v>
   <v type="int" >       33 </v>
   <v type="int" >       34 </v>
   <v type="int" >       35 </v>
   <v type="int" >       36 </v>
   <v type="int" >       37 </v>
   <v type="int" >       38 </v>
   <v type="int" >       39 </v>
   <v type="int" >       40 </v>
   <v type="int" >       41 </v>
   <v type="int" >       42 </v>
   <v type="int" >       43 </v>
   <v type="int" >       44 </v>
   <v type="int" >       45 </v>
   <v type="int" >       46 </v>
   <v type="int" >       47 </v>
   <v type="int" >       48 </v>
   <v type="int" >       49 </v>
   <v type="int" >       50 </v>
   <v type="int" >       51 </v>
   <v type="int" >       52 </v>
   <v type="int" >       53 </v>
   <v type="int" >       54 </v>
   <v type="int" >       55 </v>
   <v type="int" >       56 </v>
   <v type="int" >       57 </v>
   <v type="int" >       58 </v>
   <v type="int" >       59 </v>
   <v type="int" >       60 </v>
   <v type="int" >       61 </v>
   <v type="int" >       62 </v>
   <v type="int" >       63 </v>
   <v type="int" >       64 </v>
   <v type="int" >       65 </v>
   <v type="int" >       66 </v>
   <v type="int" >       67 </v>
   <v type="int" >       68 </v>
   <v type="int" >       69 </v>
   <v type="int" >       70 </v>
   <v type="int" >       71 </v>
   <v type="int" >       72 </v>
   <v type="int" >       73 </v>
   <v type="int" >       74 </v>
   <v type="int" >       75 </v>
   <v type="int" >       76 </v>
   <v type="int" >       77 </v>
   <v type="int" >       78 </v>
   <v type="int" >       79 </v>
   <v type="int" >       80 </v>
   <v type="int" >       81 </v>
   <v type="int" >       82 </v>
   <v type="int" >       83 </v>
   <v type="int" >       84 </v>
   <v type="int" >       85 </v>
   <v type="int" >       86 </v>
   <v type="int" >       87 </v>
   <v type="int" >       88 </v>
   <v type="int" >       89 </v>
   <v type="int" >       90 </v>
   <v type="int" >       91 </v>
   <v type="int" >       92 </v>
   <v type="int" >       93 </v>
   <v type="int" >       94 </v>
   <v type="int" >       95 </v>
   <v type="int" >       96 </v>
   <v type="int" >       97 </v>
   <v type="int" >       98 </v>
   <v type="int" >       99 </v>
   <v type="int" >      100 </v>
   <v type="int" >      101 </v>
   <v type="int" >      102 </v>
   <v type="int" >      103 </v>
   <v type="int" >      104 </v>
   <v type="int" >      105 </v>
   <v type="int" >      106 </v>
   <v type="int" >      107 </v>
   <v type="int" >      108 </v>
   <v type="int" >      109 </v>
   <v type="int" >      110 </v>
   <v type="int" >      111 </v>
   <v type="int" >      112 </v>
   <v type="int" >      113 </v>
   <v type="int" >      114 </v>
   <v type="int" >      115 </v>
   <v type="int" >      116 </v>
   <v type="int" >      117 </v>
   <v type="int" >      118 </v>
   <v type="int" >      119 </v>
   <v type="int" >      120 </v>
   <v type="int" >      121 </v>
   <v type="int" >      122 </v>
   <v type="int" >      123 </v>
   <v type="int" >      124 </v>
   <v type="int" >      125 </v>
   <v type="int" >      126 </v>
   <v type="int" >      127 </v>
   <v type="int" >      128 </v>
   <v type="int" >      129 </v>
   <v type="int" >      130 </v>
   <v type="int" >      131 </v>
   <v type="int" >      132 </v>
   <v type="int" >      133 </v>
   <v type="int" >      134 </v>
   <v type="int" >      135 </v>
   <v type="int" >      136 </v>
   <v type="int" >      137 </v>
   <v type="int" >      138 </v>
   <v type="int" >      139 </v>
   <v type="int" >      140 </v>
   <v type="int" >      141 </v>
   <v type="int" >      142 </v>
   <v type="int" >      143 </v>
   <v type="int" >      144 </v>
   <v type="int" >      145 </v>
   <v type="int" >      146 </v>
   <v type="int" >      147 </v>
   <v type="int" >      148 </v>
   <v type="int" >      149 </v>
   <v type="int" >      150 </v>
   <v type="int" >      151 </v>
   <v type="int" >      152 </v>
   <v type="int" >      153 </v>
   <v type="int" >      154 </v>
   <v type="int" >      155 </v>
   <v type="int" >      156 </v>
   <v type="int" >      157 </v>
   <v type="int" >      158 </v>
   <v type="int" >      159 </v>
   <v type="int" >      160 </v>
   <v type="int" >      161 </v>
   <v type="int" >      162 </v>
   <v type="int" >      163 </v>
   <v type="int" >      164 </v>
   <v type="int" >      165 </v>
   <v type="int" >      166 </v>
   <v type="int" >      167 </v>
   <v type="int" >      168 </v>
   <v type="int" >      169 </v>
   <v type="int" >      170 </v>
   <v type="int" >      171 </v>
   <v type="int" >      172 </v>
   <v type="int" >      173 </v>
   <v type="int" >      174 </v>
   <v type="int" >      175 </v>
   <v type="int" >      176 </v>
   <v type="int" >      177 </v>
   <v type="int" >      178 </v>
   <v type="int" >      179 </v>
   <v type="int" >      180 </v>
   <v type="int" >      181 </v>
   <v type="int" >      182 </v>
   <v type="int" >      183 </v>
   <v type="int" >      184 </v>
   <v type="int" >      185 </v>
   <v type="int" >      186 </v>
   <v type="int" >      187 </v>
   <v type="int" >      188 </v>
   <v type="int" >      189 </v>
   <v type="int" >      190 </v>
   <v type="int" >      191 </v>
   <v type="int" >      192 </v>
   <v type="int" >      193 </v>
   <v type="int" >      194 </v>
   <v type="int" >      195 </v>
   <v type="int" >      196 </v>
   <v type="int" >      197 </v>
   <v type="int" >      198 </v>
   <v type="int" >      199 </v>
   <v type="int" >      200 </v>
   <v type="int" >      201 </v>
   <v type="int" >      202 </v>
   <v type="int" >      203 </v>
   <v type="int" >      204 </v>
   <v type="int" >      205 </v>
   <v type="int" >      206 </v>
   <v type="int" >      207 </v>
   <v type="int" >      208 </v>
   <v type="int" >      209 </v>
   <v type="int" >      210 </v>
   <v type="int" >      211 </v>
   <v type="int" >      212 </v>
   <v type="int" >      213 </v>
   <v type="int" >      214 </v>
   <v type="int" >      215 </v>
   <v type="int" >      216 </v>
   <v type="int" >      217 </v>
   <v type="int" >      218 </v>
   <v type="int" >      219 </v>
   <v type="int" >      220 </v>
   <v type="int" >      221 </v>
   <v type="int" >      222 </v>
   <v type="int" >      223 </v>
   <v type="int" >      224 </v>
   <v type="int" >      225 </v>
   <v type="int" >      226 </v>
   <v type="int" >      227 </v>
   <v type="int" >      228 </v>
   <v type="int" >      229 </v>
   <v type="int" >      230 </v>
   <v type="int" >      231 </v>
   <v type="int" >      232 </v>
   <v type="int" >      233 </v>
   <v type="int" >      234 </v>
   <v type="int" >      235 </v>
   <v type="int" >      236 </v>
   <v type="int" >      237 </v>
   <v type="int" >      238 </v>
   <v type="int" >      239 </v>
   <v type="int" >      240 </v>
   <v type="int" >      241 </v>
   <v type="int" >      242 </v>
   <v type="int" >      243 </v>
   <v type="int" >      244 </v>
   <v type="int" >      245 </v>
   <v type="int" >      246 </v>
   <v type="int" >      247 </v>
   <v type="int" >      248 </v>
   <v type="int" >      249 </v>
   <v type="int" >      250 </v>
   <v type="int" >      251 </v>
   <v type="int" >      252 </v>
   <v type="int" >      253 </v>
   <v type="int" >      254 </v>
   <v type="int" >      255 </v>
   <v type="int" >      256 </v>
   <v type="int" >      257 </v>
   <v type="int" >      258 </v>
   <v type="int" >      259 </v>
   <v type="int" >      260 </v>
   <v type="int" >      261 </v>
   <v type="int" >      262 </v>
   <v type="int" >      263 </v>
   <v type="int" >      264 </v>
   <v type="int" >      265 </v>
   <v type="int" >      266 </v>
   <v type="int" >      267 </v>
   <v type="int" >      268 </v>
   <v type="int" >      269 </v>
   <v type="int" >      270 </v>
   <v type="int" >      271 </v>
   <v type="int" >      272 </v>
   <v type="int" >      273 </v>
   <v type="int" >      274 </v>
   <v type="int" >      275 </v>
   <v type="int" >      276 </v>
   <v type="int" >      277 </v>
   <v type="int" >      278 </v>
   <v type="int" >      279 </v>
   <v type="int" >      280 </v>
   <v type="int" >      281 </v>
   <v type="int" >      282 </v>
   <v type="int" >      283 </v>
   <v type="int" >      284 </v>
   <v type="int" >      285 </v>
   <v type="int" >      286 </v>
   <v type="int" >      287 </v>
   <v type="int" >      288 </v>
   <v type="int" >      289 </v>
   <v type="int" >      290 </v>
   <v type="int" >      291 </v>
   <v type="int" >      292 </v>
   <v type="int" >      293 </v>
   <v type="int" >      294 </v>
   <v type="int" >      295 </v>
   <v type="int" >      296 </v>
   <v type="int" >      297 </v>
   <v type="int" >      298 </v>
   <v type="int" >      299 </v>
   <v type="int" >      300 </v>
   <v type="int" >      301 </v>
   <v type="int" >      302 </v>
   <v type="int" >      303 </v>
   <v type="int" >      304 </v>
   <v type="int" >      305 </v>
   <v type="int" >      306 </v>
   <v type="int" >      307 </v>
   <v type="int" >      308 </v>
   <v type="int" >      309 </v>
   <v type="int" >      310 </v>
   <v type="int" >      311 </v>
   <v type="int" >      312 </v>
   <v type="int" >      313 </v>
   <v type="int" >      314 </v>
   <v type="int" >      315 </v>
   <v type="int" >      316 </v>
   <v type="int" >      317 </v>
   <v type="int" >      318 </v>
   <v type="int" >      319 </v>
   <v type="int" >      320 </v>
   <v type="int" >      321 </v>
   <v type="int" >      322 </v>
   <v type="int" >      323 </v>
   <v type="int" >      324 </v>
   <v type="int" >      325 </v>
  </varray>
 </primitive_cell>
 <kpoints>
  <generation param="Gamma">
   <v type="int" name="divisions">       3        3        1 </v>
   <v name="usershift">      0.00000000       0.00000000       0.00000000 </v>
   <v name="genvec1">      0.33333333       0.00000000       0.00000000 </v>
   <v name="genvec2">      0.00000000       0.33333333       0.00000000 </v>
   <v name="genvec3">      0.00000000       0.00000000       1.00000000 </v>
   <v name="shift">      0.00000000       0.00000000       0.00000000 </v>
  </generation>
  <varray name="kpointlist" >
   <v>       0.00000000       0.00000000       0.00000000 </v>
   <v>       0.33333333       0.00000000       0.00000000 </v>
   <v>       0.00000000       0.33333333       0.00000000 </v>
   <v>       0.33333333       0.33333333       0.00000000 </v>
   <v>      -0.33333333       0.33333333       0.00000000 </v>
  </varray>
  <varray name="weights" >
   <v>       0.11111111 </v>
   <v>       0.22222222 </v>
   <v>       0.22222222 </v>
   <v>       0.22222222 </v>
   <v>       0.22222222 </v>
  </varray>
 </kpoints>
 <parameters>
  <separator name="general" >
   <i type="string" name="SYSTEM">PSC</i>
   <i type="logical" name="LCOMPAT"> F  </i>
  </separator>
  <separator name="electronic" >
   <i type="string" name="PREC">normal</i>
   <i name="ENMAX">    500.00000000</i>
   <i name="ENAUG">    644.87300000</i>
   <i name="EDIFF">      0.00010000</i>
   <i type="int" name="IALGO">    38</i>
   <i type="int" name="IWAVPR">    10</i>
   <i type="int" name="NBANDS">   732</i>
   <i type="int" name="NBANDSLOW">    -1</i>
   <i type="int" name="NBANDSHIGH">    -1</i>
   <i name="NELECT">   1134.00000000</i>
   <i type="int" name="TURBO">     0</i>
   <i type="int" name="IRESTART">     0</i>
   <i type="int" name="NREBOOT">     0</i>
   <i type="int" name="NMIN">     0</i>
   <i name="EREF">      0.00000000</i>
   <separator name="electronic smearing" >
    <i type="int" name="ISMEAR">     0</i>
    <i name="SIGMA">      0.05000000</i>
    <i name="KSPACING">      0.50000000</i>
    <i type="logical" name="KGAMMA"> T  </i>
    <i type="logical" name="KBLOWUP"> T  </i>
   </separator>
   <separator name="electronic projectors" >
    <i type="logical" name="LREAL"> T  </i>
    <v name="ROPT">     -0.00050000     -0.00050000     -0.00050000     -0.00050000     -0.00050000</v>
    <i type="int" name="LMAXPAW">  -100</i>
    <i type="int" name="LMAXMIX">     2</i>
    <i type="logical" name="NLSPLINE"> F  </i>
   </separator>
   <separator name="electronic startup" >
    <i type="int" name="ISTART">     0</i>
    <i type="int" name="ICHARG">     1</i>
    <i type="int" name="INIWAV">     1</i>
   </separator>
   <separator name="electronic spin" >
    <i type="int" name="ISPIN">     1</i>
    <i type="logical" name="LNONCOLLINEAR"> F  </i>
    <v name="MAGMOM">      1.00000000      1.00000000      1.00000000      1.00000000      1.00000000      1.00000000      1.00000000      1.00000000      1.00000000      1.00000000      1.00000000      1.00000000      1.00000000      1.00000000      1.00000000      1.00000000      1.00000000      1.00000000      1.00000000      1.00000000
      1.00000000      1.00000000      1.00000000      1.00000000      1.00000000      1.00000000      1.00000000      1.00000000      1.00000000      1.00000000      1.00000000      1.00000000      1.00000000      1.00000000      1.00000000      1.00000000      1.00000000      1.00000000      1.00000000      1.00000000
      1.00000000      1.00000000      1.00000000      1.00000000      1.00000000      1.00000000      1.00000000      1.00000000      1.00000000      1.00000000      1.00000000      1.00000000      1.00000000      1.00000000      1.00000000      1.00000000      1.00000000      1.00000000      1.00000000      1.00000000
      1.00000000      1.00000000      1.00000000      1.00000000      1.00000000      1.00000000      1.00000000      1.00000000      1.00000000      1.00000000      1.00000000      1.00000000      1.00000000      1.00000000      1.00000000      1.00000000      1.00000000      1.00000000      1.00000000      1.00000000
      1.00000000      1.00000000      1.00000000      1.00000000      1.00000000      1.00000000      1.00000000      1.00000000      1.00000000      1.00000000      1.00000000      1.00000000      1.00000000      1.00000000      1.00000000      1.00000000      1.00000000      1.00000000      1.00000000      1.00000000
      1.00000000      1.00000000      1.00000000      1.00000000      1.00000000      1.00000000      1.00000000      1.00000000      1.00000000      1.00000000      1.00000000      1.00000000      1.00000000      1.00000000      1.00000000      1.00000000      1.00000000      1.00000000      1.00000000      1.00000000
      1.00000000      1.00000000      1.00000000      1.00000000      1.00000000      1.00000000      1.00000000      1.00000000      1.00000000      1.00000000      1.00000000      1.00000000      1.00000000      1.00000000      1.00000000      1.00000000      1.00000000      1.00000000      1.00000000      1.00000000
      1.00000000      1.00000000      1.00000000      1.00000000      1.00000000      1.00000000      1.00000000      1.00000000      1.00000000      1.00000000      1.00000000      1.00000000      1.00000000      1.00000000      1.00000000      1.00000000      1.00000000      1.00000000      1.00000000      1.00000000
      1.00000000      1.00000000      1.00000000      1.00000000      1.00000000      1.00000000      1.00000000      1.00000000      1.00000000      1.00000000      1.00000000      1.00000000      1.00000000      1.00000000      1.00000000      1.00000000      1.00000000      1.00000000      1.00000000      1.00000000
      1.00000000      1.00000000      1.00000000      1.00000000      1.00000000      1.00000000      1.00000000      1.00000000      1.00000000      1.00000000      1.00000000      1.00000000      1.00000000      1.00000000      1.00000000      1.00000000      1.00000000      1.00000000      1.00000000      1.00000000
      1.00000000      1.00000000      1.00000000      1.00000000      1.00000000      1.00000000      1.00000000      1.00000000      1.00000000      1.00000000      1.00000000      1.00000000      1.00000000      1.00000000      1.00000000      1.00000000      1.00000000      1.00000000      1.00000000      1.00000000
      1.00000000      1.00000000      1.00000000      1.00000000      1.00000000      1.00000000      1.00000000      1.00000000      1.00000000      1.00000000      1.00000000      1.00000000      1.00000000      1.00000000      1.00000000      1.00000000      1.00000000      1.00000000      1.00000000      1.00000000
      1.00000000      1.00000000      1.00000000      1.00000000      1.00000000      1.00000000      1.00000000      1.00000000      1.00000000      1.00000000      1.00000000      1.00000000      1.00000000      1.00000000      1.00000000      1.00000000      1.00000000      1.00000000      1.00000000      1.00000000
      1.00000000      1.00000000      1.00000000      1.00000000      1.00000000      1.00000000      1.00000000      1.00000000      1.00000000      1.00000000      1.00000000      1.00000000      1.00000000      1.00000000      1.00000000      1.00000000      1.00000000      1.00000000      1.00000000      1.00000000
      1.00000000      1.00000000      1.00000000      1.00000000      1.00000000      1.00000000      1.00000000      1.00000000      1.00000000      1.00000000      1.00000000      1.00000000      1.00000000      1.00000000      1.00000000      1.00000000      1.00000000      1.00000000      1.00000000      1.00000000
      1.00000000      1.00000000      1.00000000      1.00000000      1.00000000      1.00000000      1.00000000      1.00000000      1.00000000      1.00000000      1.00000000      1.00000000      1.00000000      1.00000000      1.00000000      1.00000000      1.00000000      1.00000000      1.00000000      1.00000000
      1.00000000      1.00000000      1.00000000      1.00000000      1.00000000</v>
    <i name="NUPDOWN">     -1.00000000</i>
    <i type="logical" name="LSORBIT"> F  </i>
    <v name="SAXIS">      0.00000000      0.00000000      1.00000000</v>
    <i type="logical" name="LSPIRAL"> F  </i>
    <v name="QSPIRAL">      0.00000000      0.00000000      0.00000000</v>
    <i type="logical" name="LZEROZ"> F  </i>
   </separator>
   <separator name="electronic exchange-correlation" >
    <i type="logical" name="LASPH"> F  </i>
    <i type="logical" name="LMETAGGA"> F  </i>
   </separator>
   <separator name="electronic convergence" >
    <i type="int" name="NELM">   600</i>
    <i type="int" name="NELMDL">     0</i>
    <i type="int" name="NELMIN">     2</i>
    <i name="ENINI">    500.00000000</i>
    <separator name="electronic convergence detail" >
     <i type="logical" name="LDIAG"> T  </i>
     <i type="logical" name="LSUBROT"> F  </i>
     <i name="WEIMIN">      0.00000000</i>
     <i name="EBREAK">      0.00000003</i>
     <i name="DEPER">      0.30000000</i>
     <i type="int" name="NRMM">     4</i>
     <i name="TIME">      0.40000000</i>
    </separator>
   </separator>
   <separator name="electronic mixer" >
    <i name="AMIX">      0.40000000</i>
    <i name="BMIX">      0.01000000</i>
    <i name="AMIN">      0.01000000</i>
    <i name="AMIX_MAG">      1.60000000</i>
    <i name="BMIX_MAG">      0.01000000</i>
    <separator name="electronic mixer details" >
     <i type="int" name="IMIX">     4</i>
     <i type="logical" name="MIXFIRST"> F  </i>
     <i type="int" name="MAXMIX">   -45</i>
     <i name="WC">    100.00000000</i>
     <i type="int" name="INIMIX">     1</i>
     <i type="int" name="MIXPRE">     1</i>
     <i type="int" name="MREMOVE">     5</i>
    </separator>
   </separator>
   <separator name="electronic dipolcorrection" >
    <i type="logical" name="LDIPOL"> T  </i>
    <i type="logical" name="LMONO"> F  </i>
    <i type="int" name="IDIPOL">     3</i>
    <i name="EPSILON">      1.00000000</i>
    <v name="DIPOL">   -100.00000000   -100.00000000   -100.00000000</v>
    <i name="EFIELD">      0.00000000</i>
   </separator>
  </separator>
  <separator name="grids" >
   <i type="int" name="NGX">   100</i>
   <i type="int" name="NGY">   100</i>
   <i type="int" name="NGZ">   350</i>
   <i type="int" name="NGXF">   200</i>
   <i type="int" name="NGYF">   200</i>
   <i type="int" name="NGZF">   700</i>
   <i type="logical" name="ADDGRID"> F  </i>
  </separator>
  <separator name="ionic" >
   <i type="int" name="NSW">     0</i>
   <i type="int" name="IBRION">    -1</i>
   <i type="int" name="MDALGO">     0</i>
   <i type="int" name="ISIF">     2</i>
   <i name="PSTRESS">      0.00000000</i>
   <i name="EDIFFG">      0.00100000</i>
   <i type="int" name="NFREE">     0</i>
   <i name="POTIM">      0.50000000</i>
   <i name="SMASS">     -3.00000000</i>
   <i name="SCALEE">      1.00000000</i>
  </separator>
  <separator name="ionic md" >
   <i name="TEBEG">      0.00010000</i>
   <i name="TEEND">      0.00010000</i>
   <i type="int" name="NBLOCK">     1</i>
   <i type="int" name="KBLOCK">     1</i>
   <i type="int" name="NPACO">   256</i>
   <i name="APACO">     16.00000000</i>
  </separator>
  <separator name="symmetry" >
   <i type="int" name="ISYM">     0</i>
   <i name="SYMPREC">      0.00001000</i>
  </separator>
  <separator name="dos" >
   <i type="int" name="LORBIT">     0</i>
   <v name="RWIGS">     -1.00000000     -1.00000000     -1.00000000     -1.00000000     -1.00000000</v>
   <i type="int" name="NEDOS">   301</i>
   <i name="EMIN">     10.00000000</i>
   <i name="EMAX">    -10.00000000</i>
   <i name="EFERMI">      0.00000000</i>
  </separator>
  <separator name="writing" >
   <i type="int" name="NWRITE">     2</i>
   <i type="logical" name="LWAVE"> F  </i>
   <i type="logical" name="LDOWNSAMPLE"> F  </i>
   <i type="logical" name="LCHARG"> T  </i>
   <i type="logical" name="LPARD"> F  </i>
   <i type="logical" name="LVTOT"> T  </i>
   <i type="logical" name="LVHAR"> F  </i>
   <i type="logical" name="LELF"> F  </i>
   <i type="logical" name="LOPTICS"> F  </i>
   <v name="STM">      0.00000000      0.00000000      0.00000000      0.00000000      0.00000000      0.00000000      0.00000000</v>
  </separator>
  <separator name="performance" >
   <i type="int" name="NPAR">     4</i>
   <i type="int" name="NSIM">     4</i>
   <i type="int" name="NBLK">    -1</i>
   <i type="logical" name="LPLANE"> T  </i>
   <i type="logical" name="LSCALAPACK"> T  </i>
   <i type="logical" name="LSCAAWARE"> F  </i>
   <i type="logical" name="LSCALU"> F  </i>
   <i type="logical" name="LASYNC"> F  </i>
   <i type="logical" name="LORBITALREAL"> F  </i>
  </separator>
  <separator name="miscellaneous" >
   <i type="int" name="IDIOT">     3</i>
   <i type="int" name="PHON_NSTRUCT">    -1</i>
   <i type="logical" name="LMUSIC"> F  </i>
   <v name="POMASS">      1.00000000     12.01100000     14.00100000    126.90400000    207.20000000</v>
   <v name="DARWINR">      0.00000000      0.00000000      0.00000000      0.00000000      0.00000000</v>
   <v name="DARWINV">      1.00000000      1.00000000      1.00000000      1.00000000      1.00000000</v>
   <i type="logical" name="LCORR"> T  </i>
  </separator>
  <i type="logical" name="GGA_COMPAT"> F  </i>
  <i type="logical" name="LBERRY"> F  </i>
  <i type="int" name="ICORELEVEL">     0</i>
  <i type="logical" name="LDAU"> F  </i>
  <i type="int" name="I_CONSTRAINED_M">     0</i>
  <separator name="electronic exchange-correlation" >
   <i type="string" name="GGA">--</i>
   <i type="int" name="VOSKOWN">     0</i>
   <i type="logical" name="LHFCALC"> F  </i>
   <i type="string" name="PRECFOCK"></i>
   <i type="logical" name="LSYMGRAD"> F  </i>
   <i type="logical" name="LHFONE"> F  </i>
   <i type="logical" name="LRHFCALC"> F  </i>
   <i type="logical" name="LTHOMAS"> F  </i>
   <i type="logical" name="LMODELHF"> F  </i>
   <i type="logical" name="LFOCKACE"> F  </i>
   <i name="ENCUT4O">     -1.00000000</i>
   <i type="int" name="EXXOEP">     0</i>
   <i type="int" name="FOURORBIT">     0</i>
   <i name="AEXX">      0.00000000</i>
   <i name="HFALPHA">      0.00000000</i>
   <i name="MCALPHA">      0.00000000</i>
   <i name="ALDAX">      1.00000000</i>
   <i name="AGGAX">      1.00000000</i>
   <i name="ALDAC">      1.00000000</i>
   <i name="AGGAC">      1.00000000</i>
   <i type="int" name="NKREDX">     1</i>
   <i type="int" name="NKREDY">     1</i>
   <i type="int" name="NKREDZ">     1</i>
   <i type="logical" name="SHIFTRED"> F  </i>
   <i type="logical" name="ODDONLY"> F  </i>
   <i type="logical" name="EVENONLY"> F  </i>
   <i type="int" name="LMAXFOCK">     0</i>
   <i type="int" name="NMAXFOCKAE">     0</i>
   <i type="logical" name="LFOCKAEDFT"> F  </i>
   <i name="HFSCREEN">      0.00000000</i>
   <i name="HFSCREENC">      0.00000000</i>
   <i type="int" name="NBANDSGWLOW">     0</i>
  </separator>
  <separator name="vdW DFT" >
   <i type="logical" name="LUSE_VDW"> F  </i>
   <i name="Zab_VDW">     -0.84910000</i>
   <i name="PARAM1">      0.12340000</i>
   <i name="PARAM2">      1.00000000</i>
   <i name="PARAM3">      0.00000000</i>
  </separator>
  <separator name="model GW" >
   <i type="int" name="MODEL_GW">     0</i>
   <i name="MODEL_EPS0">     37.63423484</i>
   <i name="MODEL_ALPHA">      1.00000000</i>
  </separator>
  <separator name="linear response parameters" >
   <i type="logical" name="LEPSILON"> F  </i>
   <i type="logical" name="LRPA"> F  </i>
   <i type="logical" name="LNABLA"> F  </i>
   <i type="logical" name="LVEL"> F  </i>
   <i type="int" name="KINTER">     0</i>
   <i name="CSHIFT">      0.10000000</i>
   <i name="OMEGAMAX">     -1.00000000</i>
   <i name="DEG_THRESHOLD">      0.00200000</i>
   <i name="RTIME">     -0.10000000</i>
   <i name="WPLASMAI">      0.00000000</i>
   <v name="DFIELD">      0.00000000      0.00000000      0.00000000</v>
   <v name="WPLASMA">      0.00000000      0.00000000      0.00000000      0.00000000      0.00000000      0.00000000      0.00000000      0.00000000      0.00000000</v>
  </separator>
  <separator name="orbital magnetization" >
   <i type="logical" name="NUCIND"> F  </i>
   <v name="MAGPOS">      0.00000000      0.00000000      0.00000000</v>
   <i type="logical" name="LNICSALL"> T  </i>
   <i type="logical" name="ORBITALMAG"> F  </i>
   <i type="logical" name="LMAGBLOCH"> F  </i>
   <i type="logical" name="LCHIMAG"> F  </i>
   <i type="logical" name="LGAUGE"> T  </i>
   <i type="int" name="MAGATOM">     0</i>
   <v name="MAGDIPOL">      0.00000000      0.00000000      0.00000000</v>
   <v name="AVECCONST">      0.00000000      0.00000000      0.00000000</v>
  </separator>
  <separator name="response functions" >
   <i type="logical" name="LFINITE_TEMPERATURE"> F  </i>
   <i type="logical" name="LADDER"> F  </i>
   <i type="logical" name="LRPAFORCE"> F  </i>
   <i type="logical" name="LFXC"> F  </i>
   <i type="logical" name="LHARTREE"> T  </i>
   <i type="int" name="IBSE">     0</i>
   <v type="int" name="KPOINT">    -1     0     0     0</v>
   <i type="logical" name="LTCTC"> F  </i>
   <i type="logical" name="LTCTE"> F  </i>
   <i type="logical" name="LTETE"> F  </i>
   <i type="logical" name="LTRIPLET"> F  </i>
   <i type="logical" name="LFXCEPS"> F  </i>
   <i type="logical" name="LFXHEG"> F  </i>
   <i type="int" name="NATURALO">     2</i>
   <i type="logical" name="LHOLEGF"> F  </i>
   <i type="logical" name="L2ORDER"> F  </i>
   <i type="logical" name="LDMP1"> F  </i>
   <i type="logical" name="LMP2LT"> F  </i>
   <i type="logical" name="LSMP2LT"> F  </i>
   <i type="logical" name="LGWLF"> F  </i>
   <i name="ENCUTGW">     -2.00000000</i>
   <i name="ENCUTGWSOFT">     -2.00000000</i>
   <i name="ENCUTLF">     -1.00000000</i>
   <i type="logical" name="LESF_SPLINES"> F  </i>
   <i type="int" name="LMAXMP2">    -1</i>
   <i name="SCISSOR">      0.00000000</i>
   <i type="int" name="NOMEGA">     0</i>
   <i type="int" name="NOMEGAR">     0</i>
   <i type="int" name="NBANDSGW">    -1</i>
   <i type="int" name="NBANDSO">    -1</i>
   <i type="int" name="NBANDSV">    -1</i>
   <i type="int" name="NELM">   600</i>
   <i type="int" name="NELMHF">     1</i>
   <i type="int" name="DIM">     3</i>
   <i type="int" name="IESPILON">     4</i>
   <i type="int" name="ANTIRES">     0</i>
   <i name="OMEGAMAX">    -30.00000000</i>
   <i name="OMEGAMIN">    -30.00000000</i>
   <i name="OMEGATL">   -200.00000000</i>
   <i type="int" name="OMEGAGRID">     0</i>
   <i name="CSHIFT">     -0.10000000</i>
   <i type="logical" name="LSELFENERGY"> F  </i>
   <i type="logical" name="LSPECTRAL"> F  </i>
   <i type="logical" name="LSPECTRALGW"> F  </i>
   <i type="logical" name="LSINGLES"> F  </i>
   <i type="logical" name="LFERMIGW"> F  </i>
   <i type="logical" name="ODDONLYGW"> F  </i>
   <i type="logical" name="EVENONLYGW"> F  </i>
   <i type="int" name="NKREDLFX">     1</i>
   <i type="int" name="NKREDLFY">     1</i>
   <i type="int" name="NKREDLFZ">     1</i>
   <i type="int" name="MAXMEM">  2800</i>
   <i type="int" name="TELESCOPE">     0</i>
   <i type="int" name="NTAUPAR">    -1</i>
   <i type="int" name="NOMEGAPAR">    -1</i>
   <i name="DAMP_NEWTON">      0.80000001</i>
   <i name="LAMBDA">      1.00000000</i>
  </separator>
  <separator name="External order field" >
   <i name="OFIELD_KAPPA">      0.00000000</i>
   <v name="OFIELD_K">      0.00000000      0.00000000      0.00000000</v>
   <i name="OFIELD_Q6_NEAR">      0.00000000</i>
   <i name="OFIELD_Q6_FAR">      0.00000000</i>
   <i name="OFIELD_A">      0.00000000</i>
  </separator>
 </parameters>
 <atominfo>
  <atoms>     325 </atoms>
  <types>       5 </types>
  <array name="atoms" >
   <dimension dim="1">ion</dimension>
   <field type="string">element</field>
   <field type="int">atomtype</field>
   <set>
    <rc><c>H </c><c>   1</c></rc>
    <rc><c>H </c><c>   1</c></rc>
    <rc><c>H </c><c>   1</c></rc>
    <rc><c>H </c><c>   1</c></rc>
    <rc><c>H </c><c>   1</c></rc>
    <rc><c>H </c><c>   1</c></rc>
    <rc><c>H </c><c>   1</c></rc>
    <rc><c>H </c><c>   1</c></rc>
    <rc><c>H </c><c>   1</c></rc>
    <rc><c>H </c><c>   1</c></rc>
    <rc><c>H </c><c>   1</c></rc>
    <rc><c>H </c><c>   1</c></rc>
    <rc><c>H </c><c>   1</c></rc>
    <rc><c>H </c><c>   1</c></rc>
    <rc><c>H </c><c>   1</c></rc>
    <rc><c>H </c><c>   1</c></rc>
    <rc><c>H </c><c>   1</c></rc>
    <rc><c>H </c><c>   1</c></rc>
    <rc><c>H </c><c>   1</c></rc>
    <rc><c>H </c><c>   1</c></rc>
    <rc><c>H </c><c>   1</c></rc>
    <rc><c>H </c><c>   1</c></rc>
    <rc><c>H </c><c>   1</c></rc>
    <rc><c>H </c><c>   1</c></rc>
    <rc><c>H </c><c>   1</c></rc>
    <rc><c>H </c><c>   1</c></rc>
    <rc><c>H </c><c>   1</c></rc>
    <rc><c>H </c><c>   1</c></rc>
    <rc><c>H </c><c>   1</c></rc>
    <rc><c>H </c><c>   1</c></rc>
    <rc><c>H </c><c>   1</c></rc>
    <rc><c>H </c><c>   1</c></rc>
    <rc><c>H </c><c>   1</c></rc>
    <rc><c>H </c><c>   1</c></rc>
    <rc><c>H </c><c>   1</c></rc>
    <rc><c>H </c><c>   1</c></rc>
    <rc><c>H </c><c>   1</c></rc>
    <rc><c>H </c><c>   1</c></rc>
    <rc><c>H </c><c>   1</c></rc>
    <rc><c>H </c><c>   1</c></rc>
    <rc><c>H </c><c>   1</c></rc>
    <rc><c>H </c><c>   1</c></rc>
    <rc><c>H </c><c>   1</c></rc>
    <rc><c>H </c><c>   1</c></rc>
    <rc><c>H </c><c>   1</c></rc>
    <rc><c>H </c><c>   1</c></rc>
    <rc><c>H </c><c>   1</c></rc>
    <rc><c>H </c><c>   1</c></rc>
    <rc><c>H </c><c>   1</c></rc>
    <rc><c>H </c><c>   1</c></rc>
    <rc><c>H </c><c>   1</c></rc>
    <rc><c>H </c><c>   1</c></rc>
    <rc><c>H </c><c>   1</c></rc>
    <rc><c>H </c><c>   1</c></rc>
    <rc><c>H </c><c>   1</c></rc>
    <rc><c>H </c><c>   1</c></rc>
    <rc><c>H </c><c>   1</c></rc>
    <rc><c>H </c><c>   1</c></rc>
    <rc><c>H </c><c>   1</c></rc>
    <rc><c>H </c><c>   1</c></rc>
    <rc><c>H </c><c>   1</c></rc>
    <rc><c>H </c><c>   1</c></rc>
    <rc><c>H </c><c>   1</c></rc>
    <rc><c>H </c><c>   1</c></rc>
    <rc><c>H </c><c>   1</c></rc>
    <rc><c>H </c><c>   1</c></rc>
    <rc><c>H </c><c>   1</c></rc>
    <rc><c>H </c><c>   1</c></rc>
    <rc><c>H </c><c>   1</c></rc>
    <rc><c>H </c><c>   1</c></rc>
    <rc><c>H </c><c>   1</c></rc>
    <rc><c>H </c><c>   1</c></rc>
    <rc><c>H </c><c>   1</c></rc>
    <rc><c>H </c><c>   1</c></rc>
    <rc><c>H </c><c>   1</c></rc>
    <rc><c>H </c><c>   1</c></rc>
    <rc><c>H </c><c>   1</c></rc>
    <rc><c>H </c><c>   1</c></rc>
    <rc><c>H </c><c>   1</c></rc>
    <rc><c>H </c><c>   1</c></rc>
    <rc><c>H </c><c>   1</c></rc>
    <rc><c>H </c><c>   1</c></rc>
    <rc><c>H </c><c>   1</c></rc>
    <rc><c>H </c><c>   1</c></rc>
    <rc><c>H </c><c>   1</c></rc>
    <rc><c>H </c><c>   1</c></rc>
    <rc><c>H </c><c>   1</c></rc>
    <rc><c>H </c><c>   1</c></rc>
    <rc><c>H </c><c>   1</c></rc>
    <rc><c>H </c><c>   1</c></rc>
    <rc><c>H </c><c>   1</c></rc>
    <rc><c>H </c><c>   1</c></rc>
    <rc><c>H </c><c>   1</c></rc>
    <rc><c>H </c><c>   1</c></rc>
    <rc><c>H </c><c>   1</c></rc>
    <rc><c>H </c><c>   1</c></rc>
    <rc><c>H </c><c>   1</c></rc>
    <rc><c>H </c><c>   1</c></rc>
    <rc><c>H </c><c>   1</c></rc>
    <rc><c>H </c><c>   1</c></rc>
    <rc><c>H </c><c>   1</c></rc>
    <rc><c>H </c><c>   1</c></rc>
    <rc><c>H </c><c>   1</c></rc>
    <rc><c>H </c><c>   1</c></rc>
    <rc><c>H </c><c>   1</c></rc>
    <rc><c>H </c><c>   1</c></rc>
    <rc><c>H </c><c>   1</c></rc>
    <rc><c>H </c><c>   1</c></rc>
    <rc><c>H </c><c>   1</c></rc>
    <rc><c>H </c><c>   1</c></rc>
    <rc><c>H </c><c>   1</c></rc>
    <rc><c>H </c><c>   1</c></rc>
    <rc><c>H </c><c>   1</c></rc>
    <rc><c>H </c><c>   1</c></rc>
    <rc><c>H </c><c>   1</c></rc>
    <rc><c>H </c><c>   1</c></rc>
    <rc><c>H </c><c>   1</c></rc>
    <rc><c>H </c><c>   1</c></rc>
    <rc><c>H </c><c>   1</c></rc>
    <rc><c>H </c><c>   1</c></rc>
    <rc><c>H </c><c>   1</c></rc>
    <rc><c>H </c><c>   1</c></rc>
    <rc><c>H </c><c>   1</c></rc>
    <rc><c>H </c><c>   1</c></rc>
    <rc><c>H </c><c>   1</c></rc>
    <rc><c>H </c><c>   1</c></rc>
    <rc><c>H </c><c>   1</c></rc>
    <rc><c>H </c><c>   1</c></rc>
    <rc><c>H </c><c>   1</c></rc>
    <rc><c>H </c><c>   1</c></rc>
    <rc><c>H </c><c>   1</c></rc>
    <rc><c>H </c><c>   1</c></rc>
    <rc><c>H </c><c>   1</c></rc>
    <rc><c>H </c><c>   1</c></rc>
    <rc><c>H </c><c>   1</c></rc>
    <rc><c>H </c><c>   1</c></rc>
    <rc><c>H </c><c>   1</c></rc>
    <rc><c>H </c><c>   1</c></rc>
    <rc><c>H </c><c>   1</c></rc>
    <rc><c>H </c><c>   1</c></rc>
    <rc><c>H </c><c>   1</c></rc>
    <rc><c>H </c><c>   1</c></rc>
    <rc><c>H </c><c>   1</c></rc>
    <rc><c>C </c><c>   2</c></rc>
    <rc><c>C </c><c>   2</c></rc>
    <rc><c>C </c><c>   2</c></rc>
    <rc><c>C </c><c>   2</c></rc>
    <rc><c>C </c><c>   2</c></rc>
    <rc><c>C </c><c>   2</c></rc>
    <rc><c>C </c><c>   2</c></rc>
    <rc><c>C </c><c>   2</c></rc>
    <rc><c>C </c><c>   2</c></rc>
    <rc><c>C </c><c>   2</c></rc>
    <rc><c>C </c><c>   2</c></rc>
    <rc><c>C </c><c>   2</c></rc>
    <rc><c>C </c><c>   2</c></rc>
    <rc><c>C </c><c>   2</c></rc>
    <rc><c>C </c><c>   2</c></rc>
    <rc><c>C </c><c>   2</c></rc>
    <rc><c>C </c><c>   2</c></rc>
    <rc><c>C </c><c>   2</c></rc>
    <rc><c>C </c><c>   2</c></rc>
    <rc><c>C </c><c>   2</c></rc>
    <rc><c>C </c><c>   2</c></rc>
    <rc><c>C </c><c>   2</c></rc>
    <rc><c>C </c><c>   2</c></rc>
    <rc><c>C </c><c>   2</c></rc>
    <rc><c>C </c><c>   2</c></rc>
    <rc><c>C </c><c>   2</c></rc>
    <rc><c>C </c><c>   2</c></rc>
    <rc><c>C </c><c>   2</c></rc>
    <rc><c>C </c><c>   2</c></rc>
    <rc><c>C </c><c>   2</c></rc>
    <rc><c>C </c><c>   2</c></rc>
    <rc><c>C </c><c>   2</c></rc>
    <rc><c>C </c><c>   2</c></rc>
    <rc><c>C </c><c>   2</c></rc>
    <rc><c>C </c><c>   2</c></rc>
    <rc><c>C </c><c>   2</c></rc>
    <rc><c>C </c><c>   2</c></rc>
    <rc><c>C </c><c>   2</c></rc>
    <rc><c>C </c><c>   2</c></rc>
    <rc><c>N </c><c>   3</c></rc>
    <rc><c>N </c><c>   3</c></rc>
    <rc><c>N </c><c>   3</c></rc>
    <rc><c>N </c><c>   3</c></rc>
    <rc><c>N </c><c>   3</c></rc>
    <rc><c>N </c><c>   3</c></rc>
    <rc><c>N </c><c>   3</c></rc>
    <rc><c>N </c><c>   3</c></rc>
    <rc><c>N </c><c>   3</c></rc>
    <rc><c>N </c><c>   3</c></rc>
    <rc><c>N </c><c>   3</c></rc>
    <rc><c>N </c><c>   3</c></rc>
    <rc><c>N </c><c>   3</c></rc>
    <rc><c>N </c><c>   3</c></rc>
    <rc><c>N </c><c>   3</c></rc>
    <rc><c>N </c><c>   3</c></rc>
    <rc><c>N </c><c>   3</c></rc>
    <rc><c>N </c><c>   3</c></rc>
    <rc><c>N </c><c>   3</c></rc>
    <rc><c>N </c><c>   3</c></rc>
    <rc><c>N </c><c>   3</c></rc>
    <rc><c>N </c><c>   3</c></rc>
    <rc><c>N </c><c>   3</c></rc>
    <rc><c>N </c><c>   3</c></rc>
    <rc><c>N </c><c>   3</c></rc>
    <rc><c>N </c><c>   3</c></rc>
    <rc><c>N </c><c>   3</c></rc>
    <rc><c>N </c><c>   3</c></rc>
    <rc><c>N </c><c>   3</c></rc>
    <rc><c>N </c><c>   3</c></rc>
    <rc><c>N </c><c>   3</c></rc>
    <rc><c>N </c><c>   3</c></rc>
    <rc><c>N </c><c>   3</c></rc>
    <rc><c>N </c><c>   3</c></rc>
    <rc><c>N </c><c>   3</c></rc>
    <rc><c>N </c><c>   3</c></rc>
    <rc><c>N </c><c>   3</c></rc>
    <rc><c>N </c><c>   3</c></rc>
    <rc><c>N </c><c>   3</c></rc>
    <rc><c>N </c><c>   3</c></rc>
    <rc><c>N </c><c>   3</c></rc>
    <rc><c>N </c><c>   3</c></rc>
    <rc><c>N </c><c>   3</c></rc>
    <rc><c>N </c><c>   3</c></rc>
    <rc><c>N </c><c>   3</c></rc>
    <rc><c>N </c><c>   3</c></rc>
    <rc><c>N </c><c>   3</c></rc>
    <rc><c>I </c><c>   4</c></rc>
    <rc><c>I </c><c>   4</c></rc>
    <rc><c>I </c><c>   4</c></rc>
    <rc><c>I </c><c>   4</c></rc>
    <rc><c>I </c><c>   4</c></rc>
    <rc><c>I </c><c>   4</c></rc>
    <rc><c>I </c><c>   4</c></rc>
    <rc><c>I </c><c>   4</c></rc>
    <rc><c>I </c><c>   4</c></rc>
    <rc><c>I </c><c>   4</c></rc>
    <rc><c>I </c><c>   4</c></rc>
    <rc><c>I </c><c>   4</c></rc>
    <rc><c>I </c><c>   4</c></rc>
    <rc><c>I </c><c>   4</c></rc>
    <rc><c>I </c><c>   4</c></rc>
    <rc><c>I </c><c>   4</c></rc>
    <rc><c>I </c><c>   4</c></rc>
    <rc><c>I </c><c>   4</c></rc>
    <rc><c>I </c><c>   4</c></rc>
    <rc><c>I </c><c>   4</c></rc>
    <rc><c>I </c><c>   4</c></rc>
    <rc><c>I </c><c>   4</c></rc>
    <rc><c>I </c><c>   4</c></rc>
    <rc><c>I </c><c>   4</c></rc>
    <rc><c>I </c><c>   4</c></rc>
    <rc><c>I </c><c>   4</c></rc>
    <rc><c>I </c><c>   4</c></rc>
    <rc><c>I </c><c>   4</c></rc>
    <rc><c>I </c><c>   4</c></rc>
    <rc><c>I </c><c>   4</c></rc>
    <rc><c>I </c><c>   4</c></rc>
    <rc><c>I </c><c>   4</c></rc>
    <rc><c>I </c><c>   4</c></rc>
    <rc><c>I </c><c>   4</c></rc>
    <rc><c>I </c><c>   4</c></rc>
    <rc><c>I </c><c>   4</c></rc>
    <rc><c>I </c><c>   4</c></rc>
    <rc><c>I </c><c>   4</c></rc>
    <rc><c>I </c><c>   4</c></rc>
    <rc><c>I </c><c>   4</c></rc>
    <rc><c>I </c><c>   4</c></rc>
    <rc><c>I </c><c>   4</c></rc>
    <rc><c>I </c><c>   4</c></rc>
    <rc><c>I </c><c>   4</c></rc>
    <rc><c>I </c><c>   4</c></rc>
    <rc><c>I </c><c>   4</c></rc>
    <rc><c>I </c><c>   4</c></rc>
    <rc><c>I </c><c>   4</c></rc>
    <rc><c>I </c><c>   4</c></rc>
    <rc><c>I </c><c>   4</c></rc>
    <rc><c>I </c><c>   4</c></rc>
    <rc><c>I </c><c>   4</c></rc>
    <rc><c>I </c><c>   4</c></rc>
    <rc><c>I </c><c>   4</c></rc>
    <rc><c>I </c><c>   4</c></rc>
    <rc><c>I </c><c>   4</c></rc>
    <rc><c>I </c><c>   4</c></rc>
    <rc><c>I </c><c>   4</c></rc>
    <rc><c>I </c><c>   4</c></rc>
    <rc><c>I </c><c>   4</c></rc>
    <rc><c>I </c><c>   4</c></rc>
    <rc><c>I </c><c>   4</c></rc>
    <rc><c>I </c><c>   4</c></rc>
    <rc><c>I </c><c>   4</c></rc>
    <rc><c>I </c><c>   4</c></rc>
    <rc><c>I </c><c>   4</c></rc>
    <rc><c>I </c><c>   4</c></rc>
    <rc><c>I </c><c>   4</c></rc>
    <rc><c>I </c><c>   4</c></rc>
    <rc><c>I </c><c>   4</c></rc>
    <rc><c>I </c><c>   4</c></rc>
    <rc><c>I </c><c>   4</c></rc>
    <rc><c>Pb</c><c>   5</c></rc>
    <rc><c>Pb</c><c>   5</c></rc>
    <rc><c>Pb</c><c>   5</c></rc>
    <rc><c>Pb</c><c>   5</c></rc>
    <rc><c>Pb</c><c>   5</c></rc>
    <rc><c>Pb</c><c>   5</c></rc>
    <rc><c>Pb</c><c>   5</c></rc>
    <rc><c>Pb</c><c>   5</c></rc>
    <rc><c>Pb</c><c>   5</c></rc>
    <rc><c>Pb</c><c>   5</c></rc>
    <rc><c>Pb</c><c>   5</c></rc>
    <rc><c>Pb</c><c>   5</c></rc>
    <rc><c>Pb</c><c>   5</c></rc>
    <rc><c>Pb</c><c>   5</c></rc>
    <rc><c>Pb</c><c>   5</c></rc>
    <rc><c>Pb</c><c>   5</c></rc>
    <rc><c>Pb</c><c>   5</c></rc>
    <rc><c>Pb</c><c>   5</c></rc>
    <rc><c>Pb</c><c>   5</c></rc>
    <rc><c>Pb</c><c>   5</c></rc>
    <rc><c>Pb</c><c>   5</c></rc>
    <rc><c>Pb</c><c>   5</c></rc>
    <rc><c>Pb</c><c>   5</c></rc>
    <rc><c>Pb</c><c>   5</c></rc>
   </set>
  </array>
  <array name="atomtypes" >
   <dimension dim="1">type</dimension>
   <field type="int">atomspertype</field>
   <field type="string">element</field>
   <field>mass</field>
   <field>valence</field>
   <field type="string">pseudopotential</field>
   <set>
    <rc><c> 143</c><c>H </c><c>      1.00000000</c><c>      1.00000000</c><c>  PAW_PBE H 15Jun2001                   </c></rc>
    <rc><c>  39</c><c>C </c><c>     12.01100000</c><c>      4.00000000</c><c>  PAW_PBE C 08Apr2002                   </c></rc>
    <rc><c>  47</c><c>N </c><c>     14.00100000</c><c>      5.00000000</c><c>  PAW_PBE N 08Apr2002                   </c></rc>
    <rc><c>  72</c><c>I </c><c>    126.90400000</c><c>      7.00000000</c><c>  PAW_PBE I 08Apr2002                   </c></rc>
    <rc><c>  24</c><c>Pb</c><c>    207.20000000</c><c>      4.00000000</c><c>  PAW_PBE Pb 08Apr2002                  </c></rc>
   </set>
  </array>
 </atominfo>
 <structure name="initialpos" >
  <crystal>
   <varray name="basis" >
    <v>      18.06080055       0.00000000       0.00000000 </v>
    <v>      -0.00491865      18.06279945       0.00000000 </v>
    <v>       0.00000000       0.00000000      62.48749924 </v>
   </varray>
   <i name="volume">  20385.21054034 </i>
   <varray name="rec_basis" >
    <v>       0.05536853       0.00001508      -0.00000000 </v>
    <v>       0.00000000       0.05536240       0.00000000 </v>
    <v>       0.00000000      -0.00000000       0.01600320 </v>
   </varray>
  </crystal>
  <varray name="positions" >
   <v>       0.43575872       0.28169816       0.58386550 </v>
   <v>       0.43048450       0.77932794       0.58108711 </v>
   <v>       0.94199173       0.29514584       0.58409430 </v>
   <v>       0.95116016       0.80562462       0.58159496 </v>
   <v>       0.30430912       0.05007362       0.58210746 </v>
   <v>       0.30658652       0.56615130       0.57818718 </v>
   <v>       0.77861094       0.06609573       0.58191192 </v>
   <v>       0.08874726       0.17460039       0.55967255 </v>
   <v>       0.08831806       0.67941784       0.55795376 </v>
   <v>       0.59666377       0.18502700       0.55889969 </v>
   <v>       0.60662073       0.71049467       0.55847608 </v>
   <v>       0.35608024       0.04982006       0.55809686 </v>
   <v>       0.30996783       0.59574795       0.55135289 </v>
   <v>       0.82725393       0.08258320       0.55794002 </v>
   <v>       0.06384941       0.21637978       0.58473170 </v>
   <v>       0.03974214       0.69365611       0.58146640 </v>
   <v>       0.54679904       0.19117350       0.58341436 </v>
   <v>       0.55199635       0.70772844       0.58192743 </v>
   <v>       0.23353180       0.44629544       0.58461888 </v>
   <v>       0.18328660       0.97703969       0.58143966 </v>
   <v>       0.69160674       0.95439446       0.58175442 </v>
   <v>       0.41496702       0.32039827       0.55878523 </v>
   <v>       0.41082805       0.82436992       0.55704147 </v>
   <v>       0.90017729       0.29575903       0.55832597 </v>
   <v>       0.94568107       0.85417042       0.55763943 </v>
   <v>       0.19457946       0.40347970       0.56189754 </v>
   <v>       0.16078184       0.93371087       0.55692688 </v>
   <v>       0.68945038       0.90195778       0.55775578 </v>
   <v>       0.51472488       0.26068900       0.54058975 </v>
   <v>       0.52088973       0.78296089       0.54031779 </v>
   <v>       0.98335622       0.21677231       0.54245072 </v>
   <v>       0.03707840       0.78277974       0.54046668 </v>
   <v>       0.24065248       0.49566568       0.53861457 </v>
   <v>       0.26956803       0.97648648       0.54015149 </v>
   <v>       0.77452219       0.97957497       0.54066728 </v>
   <v>       0.43844889       0.29492147       0.67338621 </v>
   <v>       0.44020355       0.80775227       0.67341100 </v>
   <v>       0.94702524       0.29868146       0.67530151 </v>
   <v>       0.94286206       0.79799287       0.67630928 </v>
   <v>       0.30090128       0.05634646       0.67364872 </v>
   <v>       0.30126231       0.55528257       0.67454996 </v>
   <v>       0.81082245       0.04894909       0.67442157 </v>
   <v>       0.80395923       0.55412831       0.67405584 </v>
   <v>       0.08136603       0.17010287       0.64880885 </v>
   <v>       0.08869221       0.68617880       0.65130135 </v>
   <v>       0.57991791       0.17354680       0.64804386 </v>
   <v>       0.57368643       0.66554509       0.65453857 </v>
   <v>       0.17083791       0.41911587       0.65070809 </v>
   <v>       0.17377297       0.91618155       0.65044473 </v>
   <v>       0.66569636       0.41335712       0.65693950 </v>
   <v>       0.66251368       0.93270997       0.65019285 </v>
   <v>       0.05293576       0.19482571       0.67447029 </v>
   <v>       0.05023928       0.70220417       0.67656629 </v>
   <v>       0.54089472       0.19082043       0.67325282 </v>
   <v>       0.54008243       0.70245855       0.67838489 </v>
   <v>       0.19817088       0.45095062       0.67605899 </v>
   <v>       0.19934599       0.95084799       0.67563953 </v>
   <v>       0.70337370       0.44769728       0.68065805 </v>
   <v>       0.69608559       0.95709876       0.67559020 </v>
   <v>       0.42284014       0.33227416       0.64832712 </v>
   <v>       0.42342024       0.83083912       0.64669465 </v>
   <v>       0.92065315       0.32571811       0.64996618 </v>
   <v>       0.92247644       0.83404151       0.65121362 </v>
   <v>       0.32866708       0.07827770       0.64738260 </v>
   <v>       0.32775290       0.57894624       0.64862168 </v>
   <v>       0.83739094       0.07403246       0.64827364 </v>
   <v>       0.81322887       0.57790180       0.64695441 </v>
   <v>       0.00115850       0.24965344       0.63165014 </v>
   <v>       0.01428610       0.76747960       0.63377123 </v>
   <v>       0.50995654       0.26062237       0.63052882 </v>
   <v>       0.50734043       0.74218602       0.63299080 </v>
   <v>       0.25100971       0.99038884       0.63138477 </v>
   <v>       0.24667420       0.49483501       0.63183102 </v>
   <v>       0.74620568       0.00043424       0.63151858 </v>
   <v>       0.72965806       0.49313271       0.63467760 </v>
   <v>       0.44874502       0.30128397       0.76888902 </v>
   <v>       0.44874501       0.80128391       0.76888902 </v>
   <v>       0.94874497       0.30128397       0.76888902 </v>
   <v>       0.94874501       0.80128391       0.76888902 </v>
   <v>       0.30127600       0.05129450       0.76887296 </v>
   <v>       0.30127601       0.55129450       0.76887296 </v>
   <v>       0.80127594       0.05129450       0.76887296 </v>
   <v>       0.80127598       0.55129450       0.76887296 </v>
   <v>       0.07877100       0.17118050       0.74344197 </v>
   <v>       0.07877101       0.67118045       0.74344197 </v>
   <v>       0.57877100       0.17118050       0.74344197 </v>
   <v>       0.57877099       0.67118045       0.74344197 </v>
   <v>       0.17119950       0.42117448       0.74342103 </v>
   <v>       0.17119950       0.92117451       0.74342103 </v>
   <v>       0.67119951       0.42117448       0.74342103 </v>
   <v>       0.67119950       0.92117451       0.74342103 </v>
   <v>       0.05125600       0.19871499       0.76888902 </v>
   <v>       0.05125600       0.69871493       0.76888902 </v>
   <v>       0.55125603       0.19871499       0.76888902 </v>
   <v>       0.55125602       0.69871493       0.76888902 </v>
   <v>       0.19872349       0.44870397       0.76887205 </v>
   <v>       0.19872349       0.94870397       0.76887205 </v>
   <v>       0.69872352       0.44870397       0.76887205 </v>
   <v>       0.69872351       0.94870397       0.76887205 </v>
   <v>       0.42123152       0.32881747       0.74344197 </v>
   <v>       0.42123151       0.82881744       0.74344197 </v>
   <v>       0.92123147       0.32881747       0.74344197 </v>
   <v>       0.92123151       0.82881744       0.74344197 </v>
   <v>       0.32880050       0.07882500       0.74342103 </v>
   <v>       0.32880049       0.57882496       0.74342103 </v>
   <v>       0.82880048       0.07882500       0.74342103 </v>
   <v>       0.82880052       0.57882496       0.74342103 </v>
   <v>       0.00000350       0.25000148       0.72582199 </v>
   <v>       0.00000350       0.75000145       0.72582199 </v>
   <v>       0.50000351       0.25000148       0.72582199 </v>
   <v>       0.50000350       0.75000145       0.72582199 </v>
   <v>       0.25000050       0.00000000       0.72580398 </v>
   <v>       0.25000052       0.50000000       0.72580398 </v>
   <v>       0.75000050       0.00000000       0.72580398 </v>
   <v>       0.75000049       0.50000000       0.72580398 </v>
   <v>       0.77640398       0.52045636       0.52345364 </v>
   <v>       0.87084403       0.51720044       0.53531911 </v>
   <v>       0.76703553       0.62984851       0.54089383 </v>
   <v>       0.77229621       0.63610931       0.56888167 </v>
   <v>       0.68312295       0.46702435       0.56341133 </v>
   <v>       0.67536867       0.56370624       0.56916560 </v>
   <v>       0.80917320       0.43134554       0.57385831 </v>
   <v>       0.87222294       0.50670631       0.57576372 </v>
   <v>       0.85743830       0.39322195       0.54661647 </v>
   <v>       0.76039036       0.38787357       0.54096025 </v>
   <v>       0.77592749       0.39466008       0.50409649 </v>
   <v>       0.86684375       0.43329528       0.50552418 </v>
   <v>       0.89824687       0.63495689       0.53633542 </v>
   <v>       0.92035406       0.61027180       0.56322349 </v>
   <v>       0.87609254       0.69728738       0.55748211 </v>
   <v>       0.59832472       0.53970435       0.53846476 </v>
   <v>       0.66920972       0.49139149       0.52446983 </v>
   <v>       0.67150970       0.59013851       0.52703443 </v>
   <v>       0.73112577       0.48046712       0.60172863 </v>
   <v>       0.75064665       0.57292461       0.59270052 </v>
   <v>       0.81350270       0.52957463       0.61017319 </v>
   <v>       0.83867759       0.27250505       0.52139042 </v>
   <v>       0.84153078       0.29189986       0.49335014 </v>
   <v>       0.94028684       0.18592675       0.50355851 </v>
   <v>       0.96820760       0.41988096       0.51674361 </v>
   <v>       0.07629363       0.16984988       0.50595114 </v>
   <v>       0.10010207       0.40314354       0.51963982 </v>
   <v>       0.15858110       0.27689977       0.51385986 </v>
   <v>       0.99254529       0.23417291       0.55959813 </v>
   <v>       0.01837214       0.76776624       0.55651042 </v>
   <v>       0.50506434       0.25205919       0.55763393 </v>
   <v>       0.50755034       0.76687998       0.55674948 </v>
   <v>       0.25230230       0.50006969       0.55587137 </v>
   <v>       0.25827229       0.99196430       0.55681559 </v>
   <v>       0.75800572       0.99241321       0.55716906 </v>
   <v>       0.00032483       0.24897953       0.64904956 </v>
   <v>       0.00458454       0.76147228       0.65073459 </v>
   <v>       0.50108330       0.25353248       0.64741996 </v>
   <v>       0.49881567       0.74959391       0.65013730 </v>
   <v>       0.25021561       0.49979472       0.64902587 </v>
   <v>       0.25137628       0.99797710       0.64849000 </v>
   <v>       0.73892449       0.49484980       0.65190773 </v>
   <v>       0.75079265       0.00325911       0.64871551 </v>
   <v>       0.49998898       0.24999498       0.74327702 </v>
   <v>       0.49998903       0.74999496       0.74327702 </v>
   <v>       0.99998898       0.24999498       0.74327702 </v>
   <v>       0.99998903       0.74999496       0.74327702 </v>
   <v>       0.25000050       0.00000100       0.74325596 </v>
   <v>       0.25000052       0.50000100       0.74325596 </v>
   <v>       0.75000050       0.00000100       0.74325596 </v>
   <v>       0.75000049       0.50000100       0.74325596 </v>
   <v>       0.94239473       0.30487643       0.50974978 </v>
   <v>       0.97567673       0.23438548       0.50646147 </v>
   <v>       0.99073095       0.36522037       0.51297382 </v>
   <v>       0.05236732       0.22582018       0.50740053 </v>
   <v>       0.06731048       0.35484201       0.51508386 </v>
   <v>       0.09960384       0.28610663       0.51271235 </v>
   <v>       0.81333193       0.49524910       0.53612731 </v>
   <v>       0.79879082       0.61171788       0.55493204 </v>
   <v>       0.69508867       0.52368843       0.55707132 </v>
   <v>       0.81337947       0.49240030       0.57594802 </v>
   <v>       0.81248740       0.41306431       0.53573429 </v>
   <v>       0.83006528       0.38867488       0.51254844 </v>
   <v>       0.87892839       0.63792017       0.55287999 </v>
   <v>       0.65870359       0.53727138       0.53550249 </v>
   <v>       0.77432129       0.51751574       0.59652147 </v>
   <v>       0.86131856       0.31294444       0.50898443 </v>
   <v>       0.05145995       0.20605402       0.56899100 </v>
   <v>       0.05017839       0.71165005       0.56582515 </v>
   <v>       0.55057990       0.20539562       0.56741531 </v>
   <v>       0.55810434       0.72360524       0.56631987 </v>
   <v>       0.44934311       0.28612208       0.56706075 </v>
   <v>       0.44582216       0.79116233       0.56517530 </v>
   <v>       0.94161914       0.27729280       0.56833560 </v>
   <v>       0.96963594       0.81041902       0.56571502 </v>
   <v>       0.22553616       0.44755673       0.56871928 </v>
   <v>       0.19789733       0.96670433       0.56617892 </v>
   <v>       0.71011400       0.94892845       0.56664007 </v>
   <v>       0.30769394       0.03282554       0.56680587 </v>
   <v>       0.29097188       0.55617771       0.56284597 </v>
   <v>       0.78907404       0.04972651       0.56680746 </v>
   <v>       0.04867157       0.20112757       0.65799574 </v>
   <v>       0.05128039       0.71283039       0.66037317 </v>
   <v>       0.54393203       0.20185170       0.65688431 </v>
   <v>       0.53899675       0.70424585       0.66224299 </v>
   <v>       0.20402936       0.45411146       0.65943066 </v>
   <v>       0.20560575       0.95283581       0.65902048 </v>
   <v>       0.70204265       0.45123995       0.66438533 </v>
   <v>       0.70028947       0.96208469       0.65899692 </v>
   <v>       0.45222009       0.29477010       0.65689659 </v>
   <v>       0.45169003       0.79824050       0.65707906 </v>
   <v>       0.95555278       0.29139725       0.65909600 </v>
   <v>       0.95365741       0.79988187       0.66025663 </v>
   <v>       0.29559542       0.04703020       0.65722795 </v>
   <v>       0.29504455       0.54688732       0.65791138 </v>
   <v>       0.80202468       0.04307477       0.65769313 </v>
   <v>       0.78940263       0.54626124       0.65827516 </v>
   <v>       0.04586250       0.20411950       0.75272599 </v>
   <v>       0.04586250       0.70411946       0.75272599 </v>
   <v>       0.54586251       0.20411950       0.75272599 </v>
   <v>       0.54586250       0.70411946       0.75272599 </v>
   <v>       0.20411900       0.45410100       0.75270499 </v>
   <v>       0.20411899       0.95410095       0.75270499 </v>
   <v>       0.70411898       0.45410100       0.75270499 </v>
   <v>       0.70411896       0.95410095       0.75270499 </v>
   <v>       0.45414002       0.29588849       0.75272697 </v>
   <v>       0.45414001       0.79588852       0.75272697 </v>
   <v>       0.95414002       0.29588849       0.75272697 </v>
[...]
   <v>       0.59666377       0.18502700       0.55889969 </v>
   <v>       0.60662073       0.71049467       0.55847608 </v>
   <v>       0.35608024       0.04982006       0.55809686 </v>
   <v>       0.30996783       0.59574795       0.55135289 </v>
   <v>       0.82725393       0.08258320       0.55794002 </v>
   <v>       0.06384941       0.21637978       0.58473170 </v>
   <v>       0.03974214       0.69365611       0.58146640 </v>
   <v>       0.54679904       0.19117350       0.58341436 </v>
   <v>       0.55199635       0.70772844       0.58192743 </v>
   <v>       0.23353180       0.44629544       0.58461888 </v>
   <v>       0.18328660       0.97703969       0.58143966 </v>
   <v>       0.69160674       0.95439446       0.58175442 </v>
   <v>       0.41496702       0.32039827       0.55878523 </v>
   <v>       0.41082805       0.82436992       0.55704147 </v>
   <v>       0.90017729       0.29575903       0.55832597 </v>
   <v>       0.94568107       0.85417042       0.55763943 </v>
   <v>       0.19457946       0.40347970       0.56189754 </v>
   <v>       0.16078184       0.93371087       0.55692688 </v>
   <v>       0.68945038       0.90195778       0.55775578 </v>
   <v>       0.51472488       0.26068900       0.54058975 </v>
   <v>       0.52088973       0.78296089       0.54031779 </v>
   <v>       0.98335622       0.21677231       0.54245072 </v>
   <v>       0.03707840       0.78277974       0.54046668 </v>
   <v>       0.24065248       0.49566568       0.53861457 </v>
   <v>       0.26956803       0.97648648       0.54015149 </v>
   <v>       0.77452219       0.97957497       0.54066728 </v>
   <v>       0.43844889       0.29492147       0.67338621 </v>
   <v>       0.44020355       0.80775227       0.67341100 </v>
   <v>       0.94702524       0.29868146       0.67530151 </v>
   <v>       0.94286206       0.79799287       0.67630928 </v>
   <v>       0.30090128       0.05634646       0.67364872 </v>
   <v>       0.30126231       0.55528257       0.67454996 </v>
   <v>       0.81082245       0.04894909       0.67442157 </v>
   <v>       0.80395923       0.55412831       0.67405584 </v>
   <v>       0.08136603       0.17010287       0.64880885 </v>
   <v>       0.08869221       0.68617880       0.65130135 </v>
   <v>       0.57991791       0.17354680       0.64804386 </v>
   <v>       0.57368643       0.66554509       0.65453857 </v>
   <v>       0.17083791       0.41911587       0.65070809 </v>
   <v>       0.17377297       0.91618155       0.65044473 </v>
   <v>       0.66569636       0.41335712       0.65693950 </v>
   <v>       0.66251368       0.93270997       0.65019285 </v>
   <v>       0.05293576       0.19482571       0.67447029 </v>
   <v>       0.05023928       0.70220417       0.67656629 </v>
   <v>       0.54089472       0.19082043       0.67325282 </v>
   <v>       0.54008243       0.70245855       0.67838489 </v>
   <v>       0.19817088       0.45095062       0.67605899 </v>
   <v>       0.19934599       0.95084799       0.67563953 </v>
   <v>       0.70337370       0.44769728       0.68065805 </v>
   <v>       0.69608559       0.95709876       0.67559020 </v>
   <v>       0.42284014       0.33227416       0.64832712 </v>
   <v>       0.42342024       0.83083912       0.64669465 </v>
   <v>       0.92065315       0.32571811       0.64996618 </v>
   <v>       0.92247644       0.83404151       0.65121362 </v>
   <v>       0.32866708       0.07827770       0.64738260 </v>
   <v>       0.32775290       0.57894624       0.64862168 </v>
   <v>       0.83739094       0.07403246       0.64827364 </v>
   <v>       0.81322887       0.57790180       0.64695441 </v>
   <v>       0.00115850       0.24965344       0.63165014 </v>
   <v>       0.01428610       0.76747960       0.63377123 </v>
   <v>       0.50995654       0.26062237       0.63052882 </v>
   <v>       0.50734043       0.74218602       0.63299080 </v>
   <v>       0.25100971       0.99038884       0.63138477 </v>
   <v>       0.24667420       0.49483501       0.63183102 </v>
   <v>       0.74620568       0.00043424       0.63151858 </v>
   <v>       0.72965806       0.49313271       0.63467760 </v>
   <v>       0.44874502       0.30128397       0.76888902 </v>
   <v>       0.44874501       0.80128391       0.76888902 </v>
   <v>       0.94874497       0.30128397       0.76888902 </v>
   <v>       0.94874501       0.80128391       0.76888902 </v>
   <v>       0.30127600       0.05129450       0.76887296 </v>
   <v>       0.30127601       0.55129450       0.76887296 </v>
   <v>       0.80127594       0.05129450       0.76887296 </v>
   <v>       0.80127598       0.55129450       0.76887296 </v>
   <v>       0.07877100       0.17118050       0.74344197 </v>
   <v>       0.07877101       0.67118045       0.74344197 </v>
   <v>       0.57877100       0.17118050       0.74344197 </v>
   <v>       0.57877099       0.67118045       0.74344197 </v>
   <v>       0.17119950       0.42117448       0.74342103 </v>
   <v>       0.17119950       0.92117451       0.74342103 </v>
   <v>       0.67119951       0.42117448       0.74342103 </v>
   <v>       0.67119950       0.92117451       0.74342103 </v>
   <v>       0.05125600       0.19871499       0.76888902 </v>
   <v>       0.05125600       0.69871493       0.76888902 </v>
   <v>       0.55125603       0.19871499       0.76888902 </v>
   <v>       0.55125602       0.69871493       0.76888902 </v>
   <v>       0.19872349       0.44870397       0.76887205 </v>
   <v>       0.19872349       0.94870397       0.76887205 </v>
   <v>       0.69872352       0.44870397       0.76887205 </v>
   <v>       0.69872351       0.94870397       0.76887205 </v>
   <v>       0.42123152       0.32881747       0.74344197 </v>
   <v>       0.42123151       0.82881744       0.74344197 </v>
   <v>       0.92123147       0.32881747       0.74344197 </v>
   <v>       0.92123151       0.82881744       0.74344197 </v>
   <v>       0.32880050       0.07882500       0.74342103 </v>
   <v>       0.32880049       0.57882496       0.74342103 </v>
   <v>       0.82880048       0.07882500       0.74342103 </v>
   <v>       0.82880052       0.57882496       0.74342103 </v>
   <v>       0.00000350       0.25000148       0.72582199 </v>
   <v>       0.00000350       0.75000145       0.72582199 </v>
   <v>       0.50000351       0.25000148       0.72582199 </v>
   <v>       0.50000350       0.75000145       0.72582199 </v>
   <v>       0.25000050       0.00000000       0.72580398 </v>
   <v>       0.25000052       0.50000000       0.72580398 </v>
   <v>       0.75000050       0.00000000       0.72580398 </v>
   <v>       0.75000049       0.50000000       0.72580398 </v>
   <v>       0.77640398       0.52045636       0.52345364 </v>
   <v>       0.87084403       0.51720044       0.53531911 </v>
   <v>       0.76703553       0.62984851       0.54089383 </v>
   <v>       0.77229621       0.63610931       0.56888167 </v>
   <v>       0.68312295       0.46702435       0.56341133 </v>
   <v>       0.67536867       0.56370624       0.56916560 </v>
   <v>       0.80917320       0.43134554       0.57385831 </v>
   <v>       0.87222294       0.50670631       0.57576372 </v>
   <v>       0.85743830       0.39322195       0.54661647 </v>
   <v>       0.76039036       0.38787357       0.54096025 </v>
   <v>       0.77592749       0.39466008       0.50409649 </v>
   <v>       0.86684375       0.43329528       0.50552418 </v>
   <v>       0.89824687       0.63495689       0.53633542 </v>
   <v>       0.92035406       0.61027180       0.56322349 </v>
   <v>       0.87609254       0.69728738       0.55748211 </v>
   <v>       0.59832472       0.53970435       0.53846476 </v>
   <v>       0.66920972       0.49139149       0.52446983 </v>
   <v>       0.67150970       0.59013851       0.52703443 </v>
   <v>       0.73112577       0.48046712       0.60172863 </v>
   <v>       0.75064665       0.57292461       0.59270052 </v>
   <v>       0.81350270       0.52957463       0.61017319 </v>
   <v>       0.83867759       0.27250505       0.52139042 </v>
   <v>       0.84153078       0.29189986       0.49335014 </v>
   <v>       0.94028684       0.18592675       0.50355851 </v>
   <v>       0.96820760       0.41988096       0.51674361 </v>
   <v>       0.07629363       0.16984988       0.50595114 </v>
   <v>       0.10010207       0.40314354       0.51963982 </v>
   <v>       0.15858110       0.27689977       0.51385986 </v>
   <v>       0.99254529       0.23417291       0.55959813 </v>
   <v>       0.01837214       0.76776624       0.55651042 </v>
   <v>       0.50506434       0.25205919       0.55763393 </v>
   <v>       0.50755034       0.76687998       0.55674948 </v>
   <v>       0.25230230       0.50006969       0.55587137 </v>
   <v>       0.25827229       0.99196430       0.55681559 </v>
   <v>       0.75800572       0.99241321       0.55716906 </v>
   <v>       0.00032483       0.24897953       0.64904956 </v>
   <v>       0.00458454       0.76147228       0.65073459 </v>
   <v>       0.50108330       0.25353248       0.64741996 </v>
   <v>       0.49881567       0.74959391       0.65013730 </v>
   <v>       0.25021561       0.49979472       0.64902587 </v>
   <v>       0.25137628       0.99797710       0.64849000 </v>
   <v>       0.73892449       0.49484980       0.65190773 </v>
   <v>       0.75079265       0.00325911       0.64871551 </v>
   <v>       0.49998898       0.24999498       0.74327702 </v>
   <v>       0.49998903       0.74999496       0.74327702 </v>
   <v>       0.99998898       0.24999498       0.74327702 </v>
   <v>       0.99998903       0.74999496       0.74327702 </v>
   <v>       0.25000050       0.00000100       0.74325596 </v>
   <v>       0.25000052       0.50000100       0.74325596 </v>
   <v>       0.75000050       0.00000100       0.74325596 </v>
   <v>       0.75000049       0.50000100       0.74325596 </v>
   <v>       0.94239473       0.30487643       0.50974978 </v>
   <v>       0.97567673       0.23438548       0.50646147 </v>
   <v>       0.99073095       0.36522037       0.51297382 </v>
   <v>       0.05236732       0.22582018       0.50740053 </v>
   <v>       0.06731048       0.35484201       0.51508386 </v>
   <v>       0.09960384       0.28610663       0.51271235 </v>
   <v>       0.81333193       0.49524910       0.53612731 </v>
   <v>       0.79879082       0.61171788       0.55493204 </v>
   <v>       0.69508867       0.52368843       0.55707132 </v>
   <v>       0.81337947       0.49240030       0.57594802 </v>
   <v>       0.81248740       0.41306431       0.53573429 </v>
   <v>       0.83006528       0.38867488       0.51254844 </v>
   <v>       0.87892839       0.63792017       0.55287999 </v>
   <v>       0.65870359       0.53727138       0.53550249 </v>
   <v>       0.77432129       0.51751574       0.59652147 </v>
   <v>       0.86131856       0.31294444       0.50898443 </v>
   <v>       0.05145995       0.20605402       0.56899100 </v>
   <v>       0.05017839       0.71165005       0.56582515 </v>
   <v>       0.55057990       0.20539562       0.56741531 </v>
   <v>       0.55810434       0.72360524       0.56631987 </v>
   <v>       0.44934311       0.28612208       0.56706075 </v>
   <v>       0.44582216       0.79116233       0.56517530 </v>
   <v>       0.94161914       0.27729280       0.56833560 </v>
   <v>       0.96963594       0.81041902       0.56571502 </v>
   <v>       0.22553616       0.44755673       0.56871928 </v>
   <v>       0.19789733       0.96670433       0.56617892 </v>
   <v>       0.71011400       0.94892845       0.56664007 </v>
   <v>       0.30769394       0.03282554       0.56680587 </v>
   <v>       0.29097188       0.55617771       0.56284597 </v>
   <v>       0.78907404       0.04972651       0.56680746 </v>
   <v>       0.04867157       0.20112757       0.65799574 </v>
   <v>       0.05128039       0.71283039       0.66037317 </v>
   <v>       0.54393203       0.20185170       0.65688431 </v>
   <v>       0.53899675       0.70424585       0.66224299 </v>
   <v>       0.20402936       0.45411146       0.65943066 </v>
   <v>       0.20560575       0.95283581       0.65902048 </v>
   <v>       0.70204265       0.45123995       0.66438533 </v>
   <v>       0.70028947       0.96208469       0.65899692 </v>
   <v>       0.45222009       0.29477010       0.65689659 </v>
   <v>       0.45169003       0.79824050       0.65707906 </v>
   <v>       0.95555278       0.29139725       0.65909600 </v>
   <v>       0.95365741       0.79988187       0.66025663 </v>
   <v>       0.29559542       0.04703020       0.65722795 </v>
   <v>       0.29504455       0.54688732       0.65791138 </v>
   <v>       0.80202468       0.04307477       0.65769313 </v>
   <v>       0.78940263       0.54626124       0.65827516 </v>
   <v>       0.04586250       0.20411950       0.75272599 </v>
   <v>       0.04586250       0.70411946       0.75272599 </v>
   <v>       0.54586251       0.20411950       0.75272599 </v>
   <v>       0.54586250       0.70411946       0.75272599 </v>
   <v>       0.20411900       0.45410100       0.75270499 </v>
   <v>       0.20411899       0.95410095       0.75270499 </v>
   <v>       0.70411898       0.45410100       0.75270499 </v>
   <v>       0.70411896       0.95410095       0.75270499 </v>
   <v>       0.45414002       0.29588849       0.75272697 </v>
   <v>       0.45414001       0.79588852       0.75272697 </v>
   <v>       0.95414002       0.29588849       0.75272697 </v>
   <v>       0.95414006       0.79588852       0.75272697 </v>
   <v>       0.29588249       0.04590050       0.75270499 </v>
   <v>       0.29588248       0.54590053       0.75270499 </v>
   <v>       0.79588244       0.04590050       0.75270499 </v>
   <v>       0.79588248       0.54590053       0.75270499 </v>
   <v>       0.78162011       0.53049986       0.55617704 </v>
   <v>       0.49499639       0.00117211       0.55229418 </v>
   <v>       0.47443590       0.48140602       0.55524350 </v>
   <v>       0.99651114       0.00255211       0.55099650 </v>
   <v>       0.02239699       0.49667807       0.55800358 </v>
   <v>       0.26022909       0.24532508       0.55411242 </v>
   <v>       0.24678181       0.75888857       0.55147877 </v>
   <v>       0.73574893       0.22993463       0.55545839 </v>
   <v>       0.72654001       0.77350868       0.54686133 </v>
   <v>       0.00341986       0.00418555       0.65400715 </v>
   <v>       0.00591519       0.50078869       0.65655905 </v>
   <v>       0.50559279       0.00483568       0.65441208 </v>
   <v>       0.50164754       0.49990723       0.65561715 </v>
   <v>       0.24710830       0.24752653       0.65542479 </v>
   <v>       0.24669052       0.75242318       0.65447270 </v>
   <v>       0.74155654       0.24900608       0.65605389 </v>
   <v>       0.74769980       0.75752523       0.65347091 </v>
   <v>       0.14576082       0.10376387       0.60932402 </v>
   <v>       0.14906104       0.60569873       0.60923098 </v>
   <v>       0.64219525       0.10606037       0.60952633 </v>
   <v>       0.61988645       0.63115234       0.61385093 </v>
   <v>       0.35627517       0.38993152       0.61090081 </v>
   <v>       0.35601623       0.89193915       0.60878748 </v>
   <v>       0.88021505       0.37187716       0.61364532 </v>
   <v>       0.85552127       0.89580732       0.60811644 </v>
   <v>       0.11131945       0.35337312       0.60989732 </v>
   <v>       0.10765855       0.85718010       0.60830056 </v>
   <v>       0.61537246       0.36387464       0.60670539 </v>
   <v>       0.60804005       0.86176009       0.61018454 </v>
   <v>       0.39406092       0.14022876       0.60996172 </v>
   <v>       0.38908106       0.64499448       0.60660241 </v>
   <v>       0.89118627       0.13656588       0.60957578 </v>
   <v>       0.91040294       0.66114482       0.61325791 </v>
   <v>       0.00000000       0.00000000       0.75492797 </v>
   <v>       0.00000000       0.50000000       0.75492797 </v>
   <v>       0.50000000       0.00000000       0.75492797 </v>
   <v>       0.49999999       0.50000000       0.75492797 </v>
   <v>       0.25000050       0.25000000       0.75493902 </v>
   <v>       0.25000051       0.74999997       0.75493902 </v>
   <v>       0.75000047       0.25000000       0.75493902 </v>
   <v>       0.75000046       0.74999997       0.75493902 </v>
   <v>       0.13579050       0.11421000       0.70478299 </v>
   <v>       0.13579050       0.61420998       0.70478299 </v>
   <v>       0.63579045       0.11421000       0.70478299 </v>
   <v>       0.63579049       0.61420998       0.70478299 </v>
   <v>       0.36420952       0.38578999       0.70478299 </v>
   <v>       0.36420950       0.88578996       0.70478299 </v>
   <v>       0.86420954       0.38578999       0.70478299 </v>
   <v>       0.86420953       0.88578996       0.70478299 </v>
   <v>       0.11421799       0.36421899       0.70478098 </v>
   <v>       0.11421799       0.86421899       0.70478098 </v>
   <v>       0.61421800       0.36421899       0.70478098 </v>
   <v>       0.61421799       0.86421899       0.70478098 </v>
   <v>       0.38578201       0.13578149       0.70478202 </v>
   <v>       0.38578200       0.63578149       0.70478202 </v>
   <v>       0.88578199       0.13578149       0.70478202 </v>
   <v>       0.88578203       0.63578149       0.70478202 </v>
   <v>       0.13466700       0.11533200       0.80125603 </v>
   <v>       0.13466699       0.61533199       0.80125603 </v>
   <v>       0.63466699       0.11533200       0.80125603 </v>
   <v>       0.63466698       0.61533199       0.80125603 </v>
   <v>       0.36533300       0.38466799       0.80125603 </v>
   <v>       0.36533299       0.88466796       0.80125603 </v>
   <v>       0.86533295       0.38466799       0.80125603 </v>
   <v>       0.86533294       0.88466796       0.80125603 </v>
   <v>       0.11532850       0.36533700       0.80126500 </v>
   <v>       0.11532850       0.86533698       0.80126500 </v>
   <v>       0.61532850       0.36533700       0.80126500 </v>
   <v>       0.61532849       0.86533698       0.80126500 </v>
   <v>       0.38467151       0.13466300       0.80126500 </v>
   <v>       0.38467150       0.63466297       0.80126500 </v>
   <v>       0.88467149       0.13466300       0.80126500 </v>
   <v>       0.88467153       0.63466297       0.80126500 </v>
   <v>       0.99945001       0.00163175       0.60294933 </v>
   <v>       0.01056096       0.50246386       0.60679178 </v>
   <v>       0.49920902       0.00162710       0.60215816 </v>
   <v>       0.50006266       0.49744823       0.60352672 </v>
   <v>       0.25520995       0.24723784       0.60455189 </v>
   <v>       0.24976171       0.75516021       0.60339351 </v>
   <v>       0.74915947       0.25137638       0.60598192 </v>
   <v>       0.74961364       0.75859222       0.60468497 </v>
   <v>       0.00000050       0.00000050       0.70482896 </v>
   <v>       0.00000050       0.50000048       0.70482896 </v>
   <v>       0.50000048       0.00000050       0.70482896 </v>
   <v>       0.50000046       0.50000048       0.70482896 </v>
   <v>       0.24999999       0.24999947       0.70482499 </v>
   <v>       0.25000001       0.74999950       0.70482499 </v>
   <v>       0.74999999       0.24999947       0.70482499 </v>
   <v>       0.74999998       0.74999950       0.70482499 </v>
   <v>       0.00000000       0.00000000       0.80731797 </v>
   <v>       0.00000000       0.50000000       0.80731797 </v>
   <v>       0.50000000       0.00000000       0.80731797 </v>
   <v>       0.49999999       0.50000000       0.80731797 </v>
   <v>       0.24999999       0.25000000       0.80731797 </v>
   <v>       0.25000001       0.74999997       0.80731797 </v>
   <v>       0.74999999       0.25000000       0.80731797 </v>
   <v>       0.74999998       0.74999997       0.80731797 </v>
  </varray>
 </structure>
</modeling>
