 280 280   0   0
  0.7280432E+02  0.1806080E-08  0.1806280E-08  0.6248750E-08  0.3000000E-15
   1.0000000000000000E-004
  CAR 
 PSC                                     
      3.48738895    -25.32954596  301     -3.45320877      1.00000000
    -25.330  0.0000E+00  0.0000E+00
    -25.233  0.0000E+00  0.0000E+00
    -25.137  0.0000E+00  0.0000E+00
    -25.041  0.0000E+00  0.0000E+00
    -24.945  0.0000E+00  0.0000E+00
    -24.849  0.0000E+00  0.0000E+00
    -24.753  0.0000E+00  0.0000E+00
    -24.657  0.0000E+00  0.0000E+00
    -24.561  0.0000E+00  0.0000E+00
    -24.465  0.0000E+00  0.0000E+00
    -24.369  0.0000E+00  0.0000E+00
    -24.273  0.4115E-14  0.3952E-15
    -24.177  0.4558E-07  0.4378E-08
    -24.081  0.4517E-03  0.4340E-04
    -23.985  0.2036E-01  0.1999E-02
    -23.889  0.4913E-01  0.6718E-02
    -23.793  0.2937E-02  0.7000E-02
    -23.697  0.7050E-06  0.7000E-02
    -23.601  0.3050E-05  0.7000E-02
    -23.504  0.6154E-02  0.7591E-02
    -23.408  0.6438E-01  0.1378E-01
    -23.312  0.1403E-01  0.1512E-01
    -23.216  0.5786E-01  0.2068E-01
    -23.120  0.2410E-01  0.2300E-01
    -23.024  0.4580E-04  0.2300E-01
    -22.928  0.9707E-10  0.2300E-01
    -22.832  0.0000E+00  0.2300E-01
    -22.736  0.0000E+00  0.2300E-01
    -22.640  0.0000E+00  0.2300E-01
    -22.544  0.0000E+00  0.2300E-01
    -22.448  0.0000E+00  0.2300E-01
    -22.352  0.0000E+00  0.2300E-01
    -22.256  0.0000E+00  0.2300E-01
    -22.160  0.0000E+00  0.2300E-01
    -22.064  0.4334E-16  0.2300E-01
    -21.968  0.2353E-08  0.2300E-01
    -21.872  0.1125E-03  0.2301E-01
    -21.775  0.1588E-01  0.2454E-01
    -21.679  0.5010E-01  0.2935E-01
    -21.583  0.6776E-02  0.3000E-01
    -21.487  0.9144E-05  0.3000E-01
    -21.391  0.3363E-03  0.3003E-01
    -21.295  0.3473E-01  0.3337E-01
    -21.199  0.4736E-01  0.3792E-01
    -21.103  0.2378E-01  0.4020E-01
    -21.007  0.5893E-01  0.4586E-01
    -20.911  0.1435E-02  0.4600E-01
    -20.815  0.5815E-07  0.4600E-01
    -20.719  0.2022E-14  0.4600E-01
    -20.623  0.0000E+00  0.4600E-01
    -20.527  0.0000E+00  0.4600E-01
    -20.431  0.0000E+00  0.4600E-01
    -20.335  0.0000E+00  0.4600E-01
    -20.239  0.0000E+00  0.4600E-01
    -20.142  0.0000E+00  0.4600E-01
    -20.046  0.0000E+00  0.4600E-01
    -19.950  0.0000E+00  0.4600E-01
    -19.854  0.0000E+00  0.4600E-01
    -19.758  0.0000E+00  0.4600E-01
    -19.662  0.0000E+00  0.4600E-01
    -19.566  0.0000E+00  0.4600E-01
    -19.470  0.0000E+00  0.4600E-01
    -19.374  0.0000E+00  0.4600E-01
    -19.278  0.0000E+00  0.4600E-01
    -19.182  0.0000E+00  0.4600E-01
    -19.086  0.0000E+00  0.4600E-01
    -18.990  0.0000E+00  0.4600E-01
    -18.894  0.0000E+00  0.4600E-01
    -18.798  0.0000E+00  0.4600E-01
    -18.702  0.0000E+00  0.4600E-01
    -18.606  0.0000E+00  0.4600E-01
    -18.510  0.0000E+00  0.4600E-01
    -18.413  0.0000E+00  0.4600E-01
    -18.317  0.0000E+00  0.4600E-01
    -18.221  0.0000E+00  0.4600E-01
    -18.125  0.0000E+00  0.4600E-01
    -18.029  0.0000E+00  0.4600E-01
    -17.933  0.0000E+00  0.4600E-01
    -17.837  0.0000E+00  0.4600E-01
    -17.741  0.0000E+00  0.4600E-01
    -17.645  0.0000E+00  0.4600E-01
    -17.549  0.0000E+00  0.4600E-01
    -17.453  0.0000E+00  0.4600E-01
    -17.357  0.0000E+00  0.4600E-01
    -17.261  0.0000E+00  0.4600E-01
    -17.165  0.0000E+00  0.4600E-01
    -17.069  0.0000E+00  0.4600E-01
    -16.973  0.0000E+00  0.4600E-01
    -16.877  0.0000E+00  0.4600E-01
    -16.781  0.0000E+00  0.4600E-01
    -16.684  0.0000E+00  0.4600E-01
    -16.588  0.0000E+00  0.4600E-01
    -16.492  0.0000E+00  0.4600E-01
    -16.396  0.0000E+00  0.4600E-01
    -16.300  0.0000E+00  0.4600E-01
    -16.204  0.0000E+00  0.4600E-01
    -16.108  0.2722E-14  0.4600E-01
    -16.012  0.3510E-07  0.4600E-01
    -15.916  0.4250E-03  0.4604E-01
    -15.820  0.2337E-01  0.4829E-01
    -15.724  0.4581E-01  0.5269E-01
    -15.628  0.3266E-02  0.5300E-01
    -15.532  0.1466E-05  0.5300E-01
    -15.436  0.5257E-03  0.5305E-01
    -15.340  0.2374E-01  0.5533E-01
    -15.244  0.5392E-01  0.6051E-01
    -15.148  0.1050E-01  0.6152E-01
    -15.052  0.8958E-01  0.7012E-01
    -14.955  0.9141E-01  0.7890E-01
    -14.859  0.5949E-01  0.8462E-01
    -14.763  0.7461E-01  0.9179E-01
    -14.667  0.7726E-01  0.9921E-01
    -14.571  0.6888E-01  0.1058E+00
    -14.475  0.3228E-01  0.1089E+00
    -14.379  0.6018E-01  0.1147E+00
    -14.283  0.1871E+00  0.1327E+00
    -14.187  0.8260E-01  0.1406E+00
    -14.091  0.4014E-02  0.1410E+00
    -13.995  0.3631E-05  0.1410E+00
    -13.899  0.8777E-03  0.1411E+00
    -13.803  0.2447E-01  0.1434E+00
    -13.707  0.4407E-01  0.1477E+00
    -13.611  0.3457E-02  0.1480E+00
    -13.515  0.1743E-05  0.1480E+00
    -13.419  0.4503E-05  0.1480E+00
    -13.322  0.6796E-02  0.1487E+00
    -13.226  0.6358E-01  0.1548E+00
    -13.130  0.4903E-01  0.1595E+00
    -13.034  0.9505E-01  0.1686E+00
    -12.938  0.2491E-01  0.1710E+00
    -12.842  0.9502E-04  0.1710E+00
    -12.746  0.1592E-01  0.1725E+00
    -12.650  0.6306E-01  0.1786E+00
    -12.554  0.7546E-02  0.1793E+00
    -12.458  0.6580E-01  0.1856E+00
    -12.362  0.1420E-01  0.1870E+00
    -12.266  0.1046E-04  0.1870E+00
    -12.170  0.7919E-11  0.1870E+00
    -12.074  0.0000E+00  0.1870E+00
    -11.978  0.0000E+00  0.1870E+00
    -11.882  0.0000E+00  0.1870E+00
    -11.786  0.0000E+00  0.1870E+00
    -11.690  0.2484E-13  0.1870E+00
    -11.593  0.1437E-06  0.1870E+00
    -11.497  0.8821E-03  0.1871E+00
    -11.401  0.3076E-01  0.1900E+00
    -11.305  0.4306E-01  0.1942E+00
    -11.209  0.8383E-02  0.1950E+00
    -11.113  0.1155E-01  0.1961E+00
    -11.017  0.1605E-01  0.1976E+00
    -10.921  0.7083E-01  0.2044E+00
    -10.825  0.6601E-01  0.2108E+00
    -10.729  0.6649E-01  0.2172E+00
    -10.633  0.7866E-01  0.2247E+00
    -10.537  0.2886E-01  0.2275E+00
    -10.441  0.2794E-01  0.2302E+00
    -10.345  0.1724E-01  0.2318E+00
    -10.249  0.1193E-01  0.2330E+00
    -10.153  0.6192E-02  0.2336E+00
    -10.057  0.6552E-02  0.2342E+00
     -9.961  0.3534E-01  0.2376E+00
     -9.864  0.3499E-01  0.2410E+00
     -9.768  0.4539E-03  0.2410E+00
     -9.672  0.1275E-07  0.2410E+00
     -9.576  0.2889E-05  0.2410E+00
     -9.480  0.5438E-02  0.2415E+00
     -9.384  0.7507E-01  0.2487E+00
     -9.288  0.7003E-01  0.2555E+00
     -9.192  0.5185E-01  0.2604E+00
     -9.096  0.3686E-01  0.2640E+00
     -9.000  0.2236E-03  0.2640E+00
     -8.904  0.1424E-01  0.2654E+00
     -8.808  0.6352E-01  0.2715E+00
     -8.712  0.1878E-01  0.2733E+00
     -8.616  0.6599E-01  0.2796E+00
     -8.520  0.3999E-02  0.2800E+00
     -8.424  0.6251E-06  0.2800E+00
     -8.328  0.1064E-12  0.2800E+00
     -8.231  0.0000E+00  0.2800E+00
     -8.135  0.0000E+00  0.2800E+00
     -8.039  0.0000E+00  0.2800E+00
     -7.943  0.0000E+00  0.2800E+00
     -7.847  0.0000E+00  0.2800E+00
     -7.751  0.0000E+00  0.2800E+00
     -7.655  0.0000E+00  0.2800E+00
     -7.559  0.0000E+00  0.2800E+00
     -7.463  0.0000E+00  0.2800E+00
     -7.367  0.0000E+00  0.2800E+00
     -7.271  0.0000E+00  0.2800E+00
     -7.175  0.0000E+00  0.2800E+00
     -7.079  0.0000E+00  0.2800E+00
     -6.983  0.0000E+00  0.2800E+00
     -6.887  0.0000E+00  0.2800E+00
     -6.791  0.0000E+00  0.2800E+00
     -6.695  0.1381E-11  0.2800E+00
     -6.599  0.1154E-05  0.2800E+00
     -6.502  0.1759E-02  0.2802E+00
     -6.406  0.2055E-01  0.2821E+00
     -6.310  0.4109E-01  0.2861E+00
     -6.214  0.3044E-01  0.2890E+00
     -6.118  0.3514E-01  0.2924E+00
     -6.022  0.7310E-01  0.2994E+00
     -5.926  0.7844E-01  0.3069E+00
     -5.830  0.5505E-01  0.3122E+00
     -5.734  0.4006E-01  0.3161E+00
     -5.638  0.8338E-01  0.3241E+00
     -5.542  0.3724E-01  0.3277E+00
     -5.446  0.6076E-01  0.3335E+00
     -5.350  0.5484E-01  0.3388E+00
     -5.254  0.6588E-01  0.3451E+00
     -5.158  0.7006E-01  0.3518E+00
     -5.062  0.5160E-01  0.3568E+00
     -4.966  0.5112E-01  0.3617E+00
     -4.870  0.6339E-01  0.3678E+00
     -4.773  0.9458E-01  0.3769E+00
     -4.677  0.1104E+00  0.3875E+00
     -4.581  0.1152E+00  0.3985E+00
     -4.485  0.1090E+00  0.4090E+00
     -4.389  0.1118E+00  0.4197E+00
     -4.293  0.9730E-01  0.4291E+00
     -4.197  0.8544E-01  0.4373E+00
     -4.101  0.1344E+00  0.4502E+00
     -4.005  0.1343E+00  0.4631E+00
     -3.909  0.1224E+00  0.4749E+00
     -3.813  0.1559E+00  0.4898E+00
     -3.717  0.1097E+00  0.5004E+00
     -3.621  0.9777E-01  0.5098E+00
     -3.525  0.7515E-01  0.5170E+00
     -3.429  0.1792E-01  0.5187E+00
     -3.333  0.2028E-02  0.5189E+00
     -3.237  0.9253E-03  0.5190E+00
     -3.141  0.4885E-04  0.5190E+00
     -3.044  0.5151E-08  0.5190E+00
     -2.948  0.4698E-15  0.5190E+00
     -2.852  0.0000E+00  0.5190E+00
     -2.756  0.0000E+00  0.5190E+00
     -2.660  0.0000E+00  0.5190E+00
     -2.564  0.0000E+00  0.5190E+00
     -2.468  0.0000E+00  0.5190E+00
     -2.372  0.0000E+00  0.5190E+00
     -2.276  0.0000E+00  0.5190E+00
     -2.180  0.0000E+00  0.5190E+00
     -2.084  0.0000E+00  0.5190E+00
     -1.988  0.0000E+00  0.5190E+00
     -1.892  0.0000E+00  0.5190E+00
     -1.796  0.3981E-17  0.5190E+00
     -1.700  0.2909E-09  0.5190E+00
     -1.604  0.1699E-04  0.5190E+00
     -1.508  0.1430E-02  0.5191E+00
     -1.411  0.5780E-02  0.5197E+00
     -1.315  0.1351E-01  0.5210E+00
     -1.219  0.2643E-01  0.5235E+00
     -1.123  0.3628E-01  0.5270E+00
     -1.027  0.3850E-01  0.5307E+00
     -0.931  0.2821E-01  0.5334E+00
     -0.835  0.2474E-01  0.5358E+00
     -0.739  0.2106E-01  0.5378E+00
     -0.643  0.1986E-01  0.5397E+00
     -0.547  0.3769E-01  0.5434E+00
     -0.451  0.4187E-01  0.5474E+00
     -0.355  0.2451E-01  0.5497E+00
     -0.259  0.1979E-01  0.5516E+00
     -0.163  0.1873E-01  0.5534E+00
     -0.067  0.3695E-01  0.5570E+00
      0.029  0.6090E-01  0.5628E+00
      0.125  0.5667E-01  0.5683E+00
      0.221  0.7487E-01  0.5755E+00
      0.318  0.5042E-01  0.5803E+00
      0.414  0.2471E-01  0.5827E+00
      0.510  0.2433E-01  0.5850E+00
      0.606  0.1928E-01  0.5869E+00
      0.702  0.1495E-01  0.5883E+00
      0.798  0.2149E-01  0.5904E+00
      0.894  0.2790E-01  0.5930E+00
      0.990  0.3474E-01  0.5964E+00
      1.086  0.3807E-01  0.6000E+00
      1.182  0.3494E-01  0.6034E+00
      1.278  0.4104E-01  0.6073E+00
      1.374  0.5519E-01  0.6126E+00
      1.470  0.5371E-01  0.6178E+00
      1.566  0.4894E-01  0.6225E+00
      1.662  0.4745E-01  0.6271E+00
      1.758  0.6747E-01  0.6335E+00
      1.854  0.8200E-01  0.6414E+00
      1.950  0.5482E-01  0.6467E+00
      2.047  0.5553E-01  0.6520E+00
      2.143  0.5695E-01  0.6575E+00
      2.239  0.2575E-01  0.6600E+00
      2.335  0.3788E-03  0.6600E+00
      2.431  0.1780E-07  0.6600E+00
      2.527  0.9553E-15  0.6600E+00
      2.623  0.0000E+00  0.6600E+00
      2.719  0.0000E+00  0.6600E+00
      2.815  0.0000E+00  0.6600E+00
      2.911  0.0000E+00  0.6600E+00
      3.007  0.0000E+00  0.6600E+00
      3.103  0.0000E+00  0.6600E+00
      3.199  0.0000E+00  0.6600E+00
      3.295  0.0000E+00  0.6600E+00
      3.391  0.0000E+00  0.6600E+00
      3.487  0.0000E+00  0.6600E+00
