       N       E                     dE             d eps       ncg     rms          rms(c)
DAV:   1     0.902492287096E+04    0.90249E+04   -0.30456E+05  7152   0.105E+03
DAV:   2     0.106533792556E+04   -0.79596E+04   -0.76846E+04  9696   0.211E+02
DAV:   3    -0.120342881695E+04   -0.22688E+04   -0.22583E+04  7936   0.117E+02
DAV:   4    -0.135921042531E+04   -0.15578E+03   -0.15500E+03  7928   0.397E+01
DAV:   5    -0.136351682702E+04   -0.43064E+01   -0.42940E+01  8888   0.673E+00    0.518E+01
DAV:   6    -0.128440211304E+04    0.79115E+02   -0.27091E+02  7520   0.166E+01    0.207E+01
DAV:   7    -0.128334888866E+04    0.10532E+01   -0.34790E+01  7752   0.653E+00    0.119E+01
DAV:   8    -0.134971348971E+04   -0.66365E+02   -0.26108E+01  8740   0.155E+01    0.303E+01
DAV:   9    -0.128260335657E+04    0.67110E+02   -0.56410E+01  8380   0.115E+01    0.277E+00
DAV:  10    -0.128356635152E+04   -0.96299E+00   -0.17923E+01  7720   0.480E+00    0.202E+00
DAV:  11    -0.128346314634E+04    0.10321E+00   -0.51892E+00  7576   0.278E+00    0.152E+00
DAV:  12    -0.128329082588E+04    0.17232E+00   -0.89832E-01  7672   0.965E-01    0.135E+00
DAV:  13    -0.128328044631E+04    0.10380E-01   -0.25020E-01  7672   0.587E-01    0.118E+00
DAV:  14    -0.128307450150E+04    0.20594E+00   -0.17021E-01  7840   0.642E-01    0.101E+00
DAV:  15    -0.128286938661E+04    0.20511E+00   -0.67168E-02  8000   0.524E-01    0.900E-01
DAV:  16    -0.128283596711E+04    0.33419E-01   -0.95563E-02  7368   0.232E-01    0.821E-01
DAV:  17    -0.128280297669E+04    0.32990E-01   -0.59228E-03  7816   0.112E-01    0.810E-01
DAV:  18    -0.128280734013E+04   -0.43634E-02   -0.41146E-03  6688   0.491E-02    0.807E-01
DAV:  19    -0.128278647924E+04    0.20861E-01   -0.40288E-04  5768   0.577E-02    0.795E-01
DAV:  20    -0.128251900914E+04    0.26747E+00   -0.49466E-02  9440   0.847E-01    0.600E-01
DAV:  21    -0.128251794901E+04    0.10601E-02   -0.72435E-02  7320   0.167E-01    0.557E-01
DAV:  22    -0.128251541404E+04    0.25350E-02   -0.24391E-03  7264   0.433E-02    0.551E-01
DAV:  23    -0.128251510504E+04    0.30900E-03   -0.29035E-04  6048   0.130E-02    0.550E-01
DAV:  24    -0.128251436828E+04    0.73676E-03   -0.23325E-05  4192   0.654E-03    0.551E-01
DAV:  25    -0.128245750017E+04    0.56868E-01   -0.90768E-02  8888   0.361E-01    0.504E-01
DAV:  26    -0.128243628795E+04    0.21212E-01   -0.33369E-02  7704   0.192E-01    0.423E-01
DAV:  27    -0.128243512037E+04    0.11676E-02   -0.14765E-02  7056   0.810E-02    0.411E-01
DAV:  28    -0.128243370628E+04    0.14141E-02   -0.50893E-04  6640   0.224E-02    0.398E-01
DAV:  29    -0.128242822273E+04    0.54835E-02   -0.80723E-03  7512   0.107E-01    0.311E-01
DAV:  30    -0.128242106735E+04    0.71554E-02   -0.86297E-03  7224   0.100E-01    0.232E-01
DAV:  31    -0.128242117729E+04   -0.10994E-03   -0.32058E-03  7024   0.402E-02    0.220E-01
DAV:  32    -0.128242122011E+04   -0.42814E-04   -0.49801E-05  4456   0.762E-03
   1 F= -.13144841E+04 E0= -.13144700E+04  d E =-.131448E+04
       N       E                     dE             d eps       ncg     rms          rms(c)
DAV:   1    -0.128231468552E+04    0.10649E+00   -0.18301E+01  7032   0.281E+00    0.871E-01
DAV:   2    -0.128237535717E+04   -0.60672E-01   -0.73912E-01  7816   0.946E-01    0.774E-01
DAV:   3    -0.128254662110E+04   -0.17126E+00   -0.17023E+00  8784   0.180E+00    0.839E-01
DAV:   4    -0.128238861815E+04    0.15800E+00   -0.49024E-01  8992   0.175E+00    0.505E-01
DAV:   5    -0.128235496213E+04    0.33656E-01   -0.56626E-02  7632   0.459E-01    0.302E-01
DAV:   6    -0.128234248729E+04    0.12475E-01   -0.28182E-02  7512   0.261E-01    0.192E-01
DAV:   7    -0.128233715963E+04    0.53277E-02   -0.17005E-02  7600   0.175E-01    0.108E-01
DAV:   8    -0.128233687659E+04    0.28305E-03   -0.10430E-02  7216   0.925E-02    0.555E-02
DAV:   9    -0.128233671422E+04    0.16237E-03   -0.16341E-03  7160   0.541E-02    0.369E-02
DAV:  10    -0.128233703785E+04   -0.32363E-03   -0.31443E-03  6968   0.694E-02    0.452E-02
DAV:  11    -0.128233669034E+04    0.34751E-03   -0.17709E-03  5520   0.526E-02    0.113E-02
DAV:  12    -0.128233669144E+04   -0.10995E-05   -0.25764E-04  4832   0.192E-02
   2 F= -.13144038E+04 E0= -.13143901E+04  d E =0.802730E-01
       N       E                     dE             d eps       ncg     rms          rms(c)
DAV:   1    -0.128244775372E+04   -0.11106E+00   -0.74554E+00  6932   0.184E+00    0.547E-01
DAV:   2    -0.128246653223E+04   -0.18779E-01   -0.25472E-01  7456   0.454E-01    0.477E-01
DAV:   3    -0.128257636189E+04   -0.10983E+00   -0.11959E+00  8944   0.108E+00    0.663E-01
DAV:   4    -0.128247238525E+04    0.10398E+00   -0.26320E-01  8968   0.108E+00    0.311E-01
DAV:   5    -0.128245883974E+04    0.13546E-01   -0.26436E-02  7888   0.348E-01    0.148E-01
DAV:   6    -0.128246160936E+04   -0.27696E-02   -0.14306E-02  7384   0.173E-01    0.132E-01
DAV:   7    -0.128245776233E+04    0.38470E-02   -0.11961E-02  7532   0.145E-01    0.567E-02
DAV:   8    -0.128245784914E+04   -0.86802E-04   -0.16111E-03  6744   0.385E-02    0.514E-02
DAV:   9    -0.128245770119E+04    0.14794E-03   -0.63852E-04  6200   0.297E-02    0.331E-02
DAV:  10    -0.128245766524E+04    0.35950E-04   -0.32318E-04  4960   0.266E-02
   3 F= -.13145221E+04 E0= -.13145085E+04  d E =-.379775E-01
       N       E                     dE             d eps       ncg     rms          rms(c)
DAV:   1    -0.128250224411E+04   -0.44543E-01   -0.97160E-01  6756   0.833E-01    0.179E-01
DAV:   2    -0.128252033024E+04   -0.18086E-01   -0.14160E-01  7800   0.413E-01    0.305E-01
DAV:   3    -0.128252004109E+04    0.28915E-03   -0.31204E-01  7992   0.641E-01    0.202E-01
DAV:   4    -0.128250403935E+04    0.16002E-01   -0.61772E-02  8044   0.384E-01    0.642E-02
DAV:   5    -0.128250460650E+04   -0.56716E-03   -0.98872E-03  7056   0.113E-01    0.517E-02
DAV:   6    -0.128250457646E+04    0.30037E-04   -0.48032E-03  7088   0.845E-02    0.380E-02
DAV:   7    -0.128250452274E+04    0.53729E-04   -0.64329E-04  6872   0.385E-02
   4 F= -.13145731E+04 E0= -.13145592E+04  d E =-.510117E-01
       N       E                     dE             d eps       ncg     rms          rms(c)
DAV:   1    -0.128254448888E+04   -0.39912E-01   -0.87569E+00  6776   0.251E+00    0.536E-01
DAV:   2    -0.128267785241E+04   -0.13336E+00   -0.14345E+00  7864   0.142E+00    0.585E-01
DAV:   3    -0.128266122055E+04    0.16632E-01   -0.48574E-01  8192   0.188E+00    0.448E-01
DAV:   4    -0.128256181092E+04    0.99410E-01   -0.25539E-01  8044   0.125E+00    0.224E-01
DAV:   5    -0.128256470506E+04   -0.28941E-02   -0.13573E-01  7544   0.462E-01    0.184E-01
DAV:   6    -0.128256464547E+04    0.59599E-04   -0.80614E-02  7360   0.317E-01    0.135E-01
DAV:   7    -0.128256398221E+04    0.66326E-03   -0.29455E-02  7300   0.207E-01    0.686E-02
DAV:   8    -0.128256404245E+04   -0.60242E-04   -0.13219E-02  7584   0.126E-01    0.666E-02
DAV:   9    -0.128256363199E+04    0.41045E-03   -0.43145E-03  6884   0.757E-02    0.288E-02
DAV:  10    -0.128256360573E+04    0.26260E-04   -0.69585E-04  6272   0.265E-02
   5 F= -.13146444E+04 E0= -.13146308E+04  d E =-.122395E+00
       N       E                     dE             d eps       ncg     rms          rms(c)
DAV:   1    -0.128258067932E+04   -0.17047E-01   -0.16924E+00  6840   0.116E+00    0.268E-01
DAV:   2    -0.128261232824E+04   -0.31649E-01   -0.25862E-01  7984   0.615E-01    0.367E-01
DAV:   3    -0.128261334041E+04   -0.10122E-02   -0.48785E-01  8544   0.903E-01    0.308E-01
DAV:   4    -0.128258366810E+04    0.29672E-01   -0.14169E-01  8172   0.541E-01    0.140E-01
DAV:   5    -0.128258493228E+04   -0.12642E-02   -0.31036E-02  7728   0.258E-01    0.106E-01
DAV:   6    -0.128258345439E+04    0.14779E-02   -0.18585E-02  7584   0.180E-01    0.465E-02
DAV:   7    -0.128258359796E+04   -0.14357E-03   -0.25727E-03  7048   0.584E-02    0.338E-02
DAV:   8    -0.128258351357E+04    0.84387E-04   -0.67659E-04  6400   0.309E-02
   6 F= -.13146670E+04 E0= -.13146533E+04  d E =-.225983E-01
       N       E                     dE             d eps       ncg     rms          rms(c)
DAV:   1    -0.128258348256E+04    0.11540E-03   -0.78179E-04  6488   0.266E-02    0.110E-02
DAV:   2    -0.128258360119E+04   -0.11863E-03   -0.68565E-04  4496   0.309E-02    0.237E-02
DAV:   3    -0.128258354115E+04    0.60046E-04   -0.14506E-03  4488   0.443E-02    0.178E-02
DAV:   4    -0.128258348305E+04    0.58097E-04   -0.18686E-04  4116   0.174E-02
   7 F= -.13146671E+04 E0= -.13146533E+04  d E =-.226162E-01
       N       E                     dE             d eps       ncg     rms          rms(c)
DAV:   1    -0.128259578473E+04   -0.12244E-01   -0.42133E-01  6712   0.570E-01    0.115E-01
DAV:   2    -0.128259917876E+04   -0.33940E-02   -0.28183E-02  7672   0.201E-01    0.128E-01
DAV:   3    -0.128260707286E+04   -0.78941E-02   -0.13104E-01  8344   0.384E-01    0.186E-01
DAV:   4    -0.128259664686E+04    0.10426E-01   -0.53276E-02  8372   0.272E-01    0.401E-02
DAV:   5    -0.128259679473E+04   -0.14787E-03   -0.23708E-03  6992   0.501E-02    0.242E-02
DAV:   6    -0.128259685727E+04   -0.62539E-04   -0.77178E-04  6728   0.332E-02
   8 F= -.13146819E+04 E0= -.13146681E+04  d E =-.148632E-01
       N       E                     dE             d eps       ncg     rms          rms(c)
DAV:   1    -0.128260293153E+04   -0.61368E-02   -0.17097E+00  6704   0.115E+00    0.236E-01
DAV:   2    -0.128262315664E+04   -0.20225E-01   -0.16791E-01  7840   0.504E-01    0.278E-01
DAV:   3    -0.128263394911E+04   -0.10792E-01   -0.41670E-01  8280   0.782E-01    0.276E-01
DAV:   4    -0.128260631184E+04    0.27637E-01   -0.14058E-01  8304   0.496E-01    0.873E-02
DAV:   5    -0.128260723288E+04   -0.92104E-03   -0.19240E-02  7544   0.187E-01    0.687E-02
DAV:   6    -0.128260677686E+04    0.45602E-03   -0.11825E-02  7400   0.140E-01    0.376E-02
DAV:   7    -0.128260675646E+04    0.20403E-04   -0.15239E-03  6628   0.529E-02    0.230E-02
DAV:   8    -0.128260675942E+04   -0.29671E-05   -0.62799E-04  6208   0.276E-02
   9 F= -.13146948E+04 E0= -.13146812E+04  d E =-.277421E-01
       N       E                     dE             d eps       ncg     rms          rms(c)
DAV:   1    -0.128261688904E+04   -0.10133E-01   -0.70430E-01  6656   0.717E-01    0.161E-01
DAV:   2    -0.128262340687E+04   -0.65178E-02   -0.54046E-02  7856   0.293E-01    0.179E-01
DAV:   3    -0.128263496313E+04   -0.11556E-01   -0.22333E-01  8368   0.530E-01    0.229E-01
DAV:   4    -0.128261806487E+04    0.16898E-01   -0.95454E-02  8488   0.373E-01    0.630E-02
DAV:   5    -0.128261835359E+04   -0.28872E-03   -0.65363E-03  7312   0.114E-01    0.384E-02
DAV:   6    -0.128261827222E+04    0.81370E-04   -0.40091E-03  7224   0.893E-02    0.245E-02
DAV:   7    -0.128261822782E+04    0.44405E-04   -0.65029E-04  6512   0.368E-02
  10 F= -.13147085E+04 E0= -.13146947E+04  d E =-.136641E-01
       N       E                     dE             d eps       ncg     rms          rms(c)
DAV:   1    -0.128261861962E+04   -0.34739E-03   -0.25838E-01  6688   0.436E-01    0.981E-02
DAV:   2    -0.128262151887E+04   -0.28993E-02   -0.22198E-02  7840   0.192E-01    0.118E-01
DAV:   3    -0.128262485155E+04   -0.33327E-02   -0.89255E-02  8440   0.321E-01    0.152E-01
DAV:   4    -0.128261902350E+04    0.58280E-02   -0.35155E-02  8088   0.205E-01    0.366E-02
DAV:   5    -0.128261913392E+04   -0.11041E-03   -0.16469E-03  6728   0.469E-02    0.197E-02
DAV:   6    -0.128261915796E+04   -0.24040E-04   -0.79492E-04  6584   0.342E-02
  11 F= -.13147107E+04 E0= -.13146970E+04  d E =-.159228E-01
       N       E                     dE             d eps       ncg     rms          rms(c)
DAV:   1    -0.128262297318E+04   -0.38393E-02   -0.29301E-01  6844   0.477E-01    0.120E-01
DAV:   2    -0.128262471073E+04   -0.17376E-02   -0.16477E-02  7672   0.153E-01    0.104E-01
DAV:   3    -0.128263638523E+04   -0.11675E-01   -0.11621E-01  8688   0.367E-01    0.205E-01
DAV:   4    -0.128262369117E+04    0.12694E-01   -0.72451E-02  8488   0.305E-01    0.471E-02
DAV:   5    -0.128262382498E+04   -0.13381E-03   -0.18135E-03  7296   0.675E-02    0.277E-02
DAV:   6    -0.128262379490E+04    0.30077E-04   -0.11992E-03  7280   0.598E-02    0.170E-02
DAV:   7    -0.128262374399E+04    0.50916E-04   -0.27580E-04  4608   0.270E-02
  12 F= -.13147167E+04 E0= -.13147031E+04  d E =-.597791E-02
       N       E                     dE             d eps       ncg     rms          rms(c)
DAV:   1    -0.128262361322E+04    0.18168E-03   -0.21765E-02  6904   0.131E-01    0.324E-02
DAV:   2    -0.128262375911E+04   -0.14589E-03   -0.13533E-03  7296   0.457E-02    0.293E-02
DAV:   3    -0.128262460913E+04   -0.85002E-03   -0.92722E-03  7528   0.102E-01    0.636E-02
DAV:   4    -0.128262366469E+04    0.94444E-03   -0.56364E-03  5752   0.757E-02    0.126E-02
DAV:   5    -0.128262369657E+04   -0.31884E-04   -0.20803E-04  5040   0.200E-02
  13 F= -.13147170E+04 E0= -.13147034E+04  d E =-.630687E-02
       N       E                     dE             d eps       ncg     rms          rms(c)
DAV:   1    -0.128262794764E+04   -0.42829E-02   -0.19019E-01  6648   0.380E-01    0.743E-02
DAV:   2    -0.128262854248E+04   -0.59484E-03   -0.75162E-03  7432   0.825E-02    0.499E-02
DAV:   3    -0.128262910196E+04   -0.55948E-03   -0.45341E-03  7680   0.764E-02    0.560E-02
DAV:   4    -0.128262965415E+04   -0.55219E-03   -0.16371E-02  7624   0.142E-01    0.727E-02
DAV:   5    -0.128262856114E+04    0.10930E-02   -0.27077E-03  5848   0.671E-02    0.170E-02
DAV:   6    -0.128262852376E+04    0.37377E-04   -0.57524E-04  5048   0.339E-02
  14 F= -.13147227E+04 E0= -.13147090E+04  d E =-.561713E-02
       N       E                     dE             d eps       ncg     rms          rms(c)
DAV:   1    -0.128262744623E+04    0.11149E-02   -0.17015E+00  6672   0.113E+00    0.225E-01
DAV:   2    -0.128263306951E+04   -0.56233E-02   -0.66718E-02  7464   0.262E-01    0.156E-01
DAV:   3    -0.128265814270E+04   -0.25073E-01   -0.19915E-01  8448   0.500E-01    0.263E-01
DAV:   4    -0.128263400552E+04    0.24137E-01   -0.21040E-01  8772   0.533E-01    0.110E-01
DAV:   5    -0.128263243679E+04    0.15687E-02   -0.74077E-03  7404   0.137E-01    0.502E-02
DAV:   6    -0.128263246472E+04   -0.27929E-04   -0.31325E-03  7000   0.747E-02    0.324E-02
DAV:   7    -0.128263237227E+04    0.92444E-04   -0.10324E-03  6548   0.510E-02    0.207E-02
DAV:   8    -0.128263237099E+04    0.12775E-05   -0.51009E-04  6280   0.225E-02
  15 F= -.13147289E+04 E0= -.13147152E+04  d E =-.118349E-01
       N       E                     dE             d eps       ncg     rms          rms(c)
DAV:   1    -0.128263445973E+04   -0.20875E-02   -0.96716E-02  6736   0.272E-01    0.500E-02
DAV:   2    -0.128263478195E+04   -0.32222E-03   -0.40372E-03  7432   0.599E-02    0.335E-02
DAV:   3    -0.128263483348E+04   -0.51529E-04   -0.61635E-04  6500   0.314E-02
  16 F= -.13147321E+04 E0= -.13147186E+04  d E =-.322001E-02
       N       E                     dE             d eps       ncg     rms          rms(c)
DAV:   1    -0.128263431029E+04    0.47166E-03   -0.86801E-01  6872   0.824E-01    0.166E-01
DAV:   2    -0.128268226660E+04   -0.47956E-01   -0.33317E-01  8496   0.702E-01    0.323E-01
DAV:   3    -0.128263692205E+04    0.45345E-01   -0.30991E-01  8428   0.701E-01    0.114E-01
DAV:   4    -0.128263618691E+04    0.73514E-03   -0.16787E-02  7288   0.158E-01    0.672E-02
DAV:   5    -0.128263658865E+04   -0.40175E-03   -0.52401E-03  6960   0.592E-02    0.452E-02
DAV:   6    -0.128263661201E+04   -0.23355E-04   -0.99036E-04  6088   0.411E-02
  17 F= -.13147361E+04 E0= -.13147227E+04  d E =-.727304E-02
       N       E                     dE             d eps       ncg     rms          rms(c)
DAV:   1    -0.128263944450E+04   -0.28559E-02   -0.10754E-01  6848   0.308E-01    0.641E-02
DAV:   2    -0.128264089750E+04   -0.14530E-02   -0.10707E-02  7640   0.129E-01    0.782E-02
DAV:   3    -0.128264291531E+04   -0.20178E-02   -0.34284E-02  7992   0.217E-01    0.114E-01
DAV:   4    -0.128263966701E+04    0.32483E-02   -0.12930E-02  7424   0.161E-01    0.250E-02
DAV:   5    -0.128263970523E+04   -0.38215E-04   -0.66360E-04  6000   0.435E-02
  18 F= -.13147403E+04 E0= -.13147268E+04  d E =-.418501E-02
       N       E                     dE             d eps       ncg     rms          rms(c)
DAV:   1    -0.128263968079E+04   -0.13779E-04   -0.76316E-01  6712   0.794E-01    0.151E-01
DAV:   2    -0.128264503837E+04   -0.53576E-02   -0.43712E-02  7720   0.253E-01    0.145E-01
DAV:   3    -0.128265913737E+04   -0.14099E-01   -0.18981E-01  8488   0.474E-01    0.234E-01
DAV:   4    -0.128264210860E+04    0.17029E-01   -0.10913E-01  8568   0.376E-01    0.608E-02
DAV:   5    -0.128264224927E+04   -0.14067E-03   -0.46923E-03  7664   0.127E-01    0.418E-02
DAV:   6    -0.128264206037E+04    0.18890E-03   -0.31044E-03  6960   0.859E-02    0.221E-02
DAV:   7    -0.128264208686E+04   -0.26496E-04   -0.63390E-04  6372   0.270E-02
  19 F= -.13147456E+04 E0= -.13147320E+04  d E =-.946275E-02
       N       E                     dE             d eps       ncg     rms          rms(c)
DAV:   1    -0.128264419179E+04   -0.21314E-02   -0.13329E-01  6656   0.332E-01    0.716E-02
DAV:   2    -0.128264479372E+04   -0.60192E-03   -0.59461E-03  7424   0.857E-02    0.541E-02
DAV:   3    -0.128264960507E+04   -0.48114E-02   -0.33730E-02  8584   0.225E-01    0.139E-01
DAV:   4    -0.128264454175E+04    0.50633E-02   -0.16302E-02  7784   0.171E-01    0.248E-02
DAV:   5    -0.128264479156E+04   -0.24981E-03   -0.16612E-03  7024   0.601E-02    0.288E-02
DAV:   6    -0.128264457090E+04    0.22066E-03   -0.13032E-03  6536   0.534E-02    0.867E-03
DAV:   7    -0.128264457382E+04   -0.29213E-05   -0.12485E-04  4648   0.129E-02
  20 F= -.13147494E+04 E0= -.13147359E+04  d E =-.381378E-02
       N       E                     dE             d eps       ncg     rms          rms(c)
DAV:   1    -0.128264311792E+04    0.14530E-02   -0.62930E-01  6640   0.722E-01    0.157E-01
DAV:   2    -0.128264499903E+04   -0.18811E-02   -0.24560E-02  7456   0.147E-01    0.997E-02
DAV:   3    -0.128264501533E+04   -0.16298E-04   -0.27955E-03  7440   0.741E-02    0.611E-02
DAV:   4    -0.128265535526E+04   -0.10340E-01   -0.69880E-02  8488   0.295E-01    0.186E-01
DAV:   5    -0.128264498248E+04    0.10373E-01   -0.69799E-02  8476   0.278E-01    0.328E-02
DAV:   6    -0.128264490847E+04    0.74005E-04   -0.10590E-03  6984   0.547E-02    0.173E-02
DAV:   7    -0.128264489136E+04    0.17112E-04   -0.43147E-04  5976   0.285E-02
  21 F= -.13147526E+04 E0= -.13147391E+04  d E =-.702240E-02
       N       E                     dE             d eps       ncg     rms          rms(c)
DAV:   1    -0.128264534669E+04   -0.43822E-03   -0.14485E-01  6688   0.352E-01    0.756E-02
DAV:   2    -0.128264584803E+04   -0.50134E-03   -0.63808E-03  7424   0.831E-02    0.508E-02
DAV:   3    -0.128264839307E+04   -0.25450E-02   -0.16702E-02  8360   0.161E-01    0.104E-01
DAV:   4    -0.128264582919E+04    0.25639E-02   -0.12511E-02  7640   0.146E-01    0.347E-02
DAV:   5    -0.128264590513E+04   -0.75940E-04   -0.48469E-04  6536   0.369E-02
  22 F= -.13147553E+04 E0= -.13147418E+04  d E =-.264608E-02
       N       E                     dE             d eps       ncg     rms          rms(c)
DAV:   1    -0.128264421457E+04    0.16146E-02   -0.18294E-01  6720   0.401E-01    0.866E-02
DAV:   2    -0.128264487596E+04   -0.66140E-03   -0.90241E-03  7464   0.101E-01    0.566E-02
DAV:   3    -0.128264487538E+04    0.58312E-06   -0.14417E-03  7512   0.604E-02    0.397E-02
DAV:   4    -0.128264656947E+04   -0.16941E-02   -0.10896E-02  7568   0.131E-01    0.827E-02
DAV:   5    -0.128264510731E+04    0.14622E-02   -0.15134E-02  7380   0.140E-01    0.407E-02
DAV:   6    -0.128264482443E+04    0.28288E-03   -0.75606E-04  6120   0.423E-02    0.115E-02
DAV:   7    -0.128264481551E+04    0.89210E-05   -0.12517E-04  4344   0.162E-02
  23 F= -.13147560E+04 E0= -.13147425E+04  d E =-.340335E-02
       N       E                     dE             d eps       ncg     rms          rms(c)
DAV:   1    -0.128264524518E+04   -0.42075E-03   -0.15620E-01  6592   0.340E-01    0.631E-02
DAV:   2    -0.128264584155E+04   -0.59637E-03   -0.68044E-03  7240   0.682E-02    0.359E-02
DAV:   3    -0.128264608875E+04   -0.24720E-03   -0.19553E-03  6784   0.566E-02    0.394E-02
DAV:   4    -0.128264629603E+04   -0.20728E-03   -0.57399E-03  6528   0.957E-02    0.488E-02
DAV:   5    -0.128264584132E+04    0.45470E-03   -0.12750E-03  5464   0.455E-02    0.125E-02
DAV:   6    -0.128264581887E+04    0.22448E-04   -0.18774E-04  4632   0.255E-02
  24 F= -.13147594E+04 E0= -.13147459E+04  d E =-.333917E-02
       N       E                     dE             d eps       ncg     rms          rms(c)
DAV:   1    -0.128264100572E+04    0.48356E-02   -0.13975E+00  6608   0.102E+00    0.189E-01
DAV:   2    -0.128264627734E+04   -0.52716E-02   -0.60474E-02  7256   0.201E-01    0.106E-01
DAV:   3    -0.128264618447E+04    0.92871E-04   -0.37909E-03  7328   0.755E-02    0.706E-02
DAV:   4    -0.128265628713E+04   -0.10103E-01   -0.69348E-02  8536   0.289E-01    0.186E-01
DAV:   5    -0.128264619144E+04    0.10096E-01   -0.72436E-02  8332   0.283E-01    0.395E-02
DAV:   6    -0.128264614898E+04    0.42458E-04   -0.14305E-03  7168   0.592E-02    0.227E-02
DAV:   7    -0.128264608941E+04    0.59565E-04   -0.60486E-04  6360   0.362E-02
  25 F= -.13147667E+04 E0= -.13147531E+04  d E =-.106272E-01
       N       E                     dE             d eps       ncg     rms          rms(c)
DAV:   1    -0.128261256502E+04    0.33584E-01   -0.56150E+00  6608   0.204E+00    0.379E-01
DAV:   2    -0.128263390611E+04   -0.21341E-01   -0.24299E-01  7296   0.408E-01    0.214E-01
DAV:   3    -0.128264909128E+04   -0.15185E-01   -0.12819E-01  7936   0.430E-01    0.264E-01
DAV:   4    -0.128264092921E+04    0.81621E-02   -0.17433E-01  8328   0.531E-01    0.205E-01
DAV:   5    -0.128263263867E+04    0.82905E-02   -0.53568E-02  7756   0.260E-01    0.518E-02
DAV:   6    -0.128263356159E+04   -0.92292E-03   -0.87671E-03  6984   0.108E-01    0.598E-02
DAV:   7    -0.128263291417E+04    0.64742E-03   -0.47029E-03  6848   0.846E-02    0.254E-02
DAV:   8    -0.128263291283E+04    0.13441E-05   -0.98898E-04  6520   0.427E-02
  26 F= -.13147676E+04 E0= -.13147541E+04  d E =-.115281E-01
       N       E                     dE             d eps       ncg     rms          rms(c)
DAV:   1    -0.128263700947E+04   -0.40953E-02   -0.13442E+00  6600   0.100E+00    0.184E-01
DAV:   2    -0.128264204066E+04   -0.50312E-02   -0.58104E-02  7236   0.196E-01    0.104E-01
DAV:   3    -0.128264194278E+04    0.97876E-04   -0.32290E-03  7336   0.672E-02    0.690E-02
DAV:   4    -0.128265270834E+04   -0.10766E-01   -0.64641E-02  8584   0.304E-01    0.195E-01
DAV:   5    -0.128264185183E+04    0.10857E-01   -0.33259E-02  8328   0.249E-01    0.297E-02
DAV:   6    -0.128264193821E+04   -0.86378E-04   -0.19784E-03  7096   0.726E-02    0.256E-02
DAV:   7    -0.128264182821E+04    0.11001E-03   -0.12495E-03  6608   0.480E-02    0.140E-02
DAV:   8    -0.128264183845E+04   -0.10241E-04   -0.15528E-04  4720   0.123E-02
  27 F= -.13147696E+04 E0= -.13147561E+04  d E =-.135410E-01
       N       E                     dE             d eps       ncg     rms          rms(c)
DAV:   1    -0.128264248801E+04   -0.65980E-03   -0.11239E-01  6624   0.298E-01    0.505E-02
DAV:   2    -0.128264287036E+04   -0.38236E-03   -0.42979E-03  7264   0.580E-02    0.326E-02
DAV:   3    -0.128264313090E+04   -0.26054E-03   -0.15995E-03  5984   0.510E-02    0.394E-02
DAV:   4    -0.128264313723E+04   -0.63290E-05   -0.48373E-03  6200   0.837E-02    0.397E-02
DAV:   5    -0.128264285694E+04    0.28029E-03   -0.99427E-04  4776   0.428E-02    0.103E-02
DAV:   6    -0.128264285265E+04    0.42963E-05   -0.12134E-04  4288   0.184E-02
  28 F= -.13147724E+04 E0= -.13147589E+04  d E =-.287704E-02
       N       E                     dE             d eps       ncg     rms          rms(c)
DAV:   1    -0.128263975930E+04    0.30976E-02   -0.10139E+00  6600   0.894E-01    0.160E-01
DAV:   2    -0.128264333614E+04   -0.35768E-02   -0.41289E-02  7360   0.176E-01    0.977E-02
DAV:   3    -0.128264438381E+04   -0.10477E-02   -0.78072E-03  7816   0.116E-01    0.917E-02
DAV:   4    -0.128264893110E+04   -0.45473E-02   -0.54753E-02  8304   0.276E-01    0.157E-01
DAV:   5    -0.128264325709E+04    0.56740E-02   -0.14847E-02  7648   0.165E-01    0.316E-02
DAV:   6    -0.128264316136E+04    0.95728E-04   -0.15105E-03  7504   0.498E-02    0.156E-02
DAV:   7    -0.128264317945E+04   -0.18085E-04   -0.37001E-04  6096   0.213E-02
  29 F= -.13147784E+04 E0= -.13147649E+04  d E =-.879879E-02
       N       E                     dE             d eps       ncg     rms          rms(c)
DAV:   1    -0.128261849043E+04    0.24671E-01   -0.40730E+00  6600   0.179E+00    0.320E-01
DAV:   2    -0.128263275933E+04   -0.14269E-01   -0.16490E-01  7336   0.350E-01    0.194E-01
DAV:   3    -0.128263288635E+04   -0.12702E-03   -0.11447E-02  7448   0.142E-01    0.133E-01
DAV:   4    -0.128266590326E+04   -0.33017E-01   -0.21443E-01  8840   0.535E-01    0.332E-01
DAV:   5    -0.128263193556E+04    0.33968E-01   -0.49411E-02  8640   0.451E-01    0.493E-02
DAV:   6    -0.128263212805E+04   -0.19250E-03   -0.38405E-03  7360   0.866E-02    0.281E-02
DAV:   7    -0.128263232586E+04   -0.19781E-03   -0.26199E-03  7264   0.664E-02    0.344E-02
DAV:   8    -0.128263211153E+04    0.21433E-03   -0.16445E-03  6032   0.521E-02    0.161E-02
DAV:   9    -0.128263210720E+04    0.43320E-05   -0.23558E-04  4128   0.199E-02
  30 F= -.13147785E+04 E0= -.13147651E+04  d E =-.894412E-02
       N       E                     dE             d eps       ncg     rms          rms(c)
DAV:   1    -0.128263629653E+04   -0.41850E-02   -0.10266E+00  6620   0.899E-01    0.160E-01
DAV:   2    -0.128263983051E+04   -0.35340E-02   -0.41078E-02  7328   0.175E-01    0.973E-02
DAV:   3    -0.128263969748E+04    0.13304E-03   -0.23034E-03  7336   0.606E-02    0.619E-02
DAV:   4    -0.128264031028E+04   -0.61281E-03   -0.25189E-03  7696   0.767E-02    0.571E-02
DAV:   5    -0.128264313913E+04   -0.28288E-02   -0.27294E-02  7984   0.193E-01    0.117E-01
DAV:   6    -0.128263968215E+04    0.34570E-02   -0.15022E-02  7760   0.161E-01    0.158E-02
DAV:   7    -0.128263965558E+04    0.26577E-04   -0.40052E-04  5464   0.302E-02
  31 F= -.13147804E+04 E0= -.13147669E+04  d E =-.108288E-01
       N       E                     dE             d eps       ncg     rms          rms(c)
DAV:   1    -0.128263985933E+04   -0.17718E-03   -0.17772E-01  6664   0.373E-01    0.671E-02
DAV:   2    -0.128264111969E+04   -0.12604E-02   -0.98744E-03  7568   0.113E-01    0.688E-02
DAV:   3    -0.128264433688E+04   -0.32172E-02   -0.41812E-02  8224   0.220E-01    0.126E-01
DAV:   4    -0.128264040230E+04    0.39346E-02   -0.24016E-02  7432   0.164E-01    0.247E-02
DAV:   5    -0.128264045825E+04   -0.55950E-04   -0.62605E-04  6616   0.403E-02
  32 F= -.13147834E+04 E0= -.13147698E+04  d E =-.300895E-02
       N       E                     dE             d eps       ncg     rms          rms(c)
DAV:   1    -0.128263206977E+04    0.83325E-02   -0.15730E+00  6608   0.112E+00    0.209E-01
DAV:   2    -0.128263874206E+04   -0.66723E-02   -0.69238E-02  7416   0.258E-01    0.147E-01
DAV:   3    -0.128267143773E+04   -0.32696E-01   -0.27732E-01  8568   0.610E-01    0.326E-01
DAV:   4    -0.128263746985E+04    0.33968E-01   -0.36110E-02  8544   0.422E-01    0.856E-02
DAV:   5    -0.128264004009E+04   -0.25702E-02   -0.23984E-02  8112   0.223E-01    0.107E-01
DAV:   6    -0.128263731512E+04    0.27250E-02   -0.14677E-02  7864   0.160E-01    0.288E-02
DAV:   7    -0.128263739406E+04   -0.78938E-04   -0.18567E-03  6776   0.403E-02    0.208E-02
DAV:   8    -0.128263739298E+04    0.10793E-05   -0.28594E-04  5992   0.148E-02
  33 F= -.13147870E+04 E0= -.13147735E+04  d E =-.657124E-02
       N       E                     dE             d eps       ncg     rms          rms(c)
DAV:   1    -0.128263629647E+04    0.10976E-02   -0.34692E-01  6600   0.530E-01    0.100E-01
DAV:   2    -0.128263798234E+04   -0.16859E-02   -0.16144E-02  7592   0.131E-01    0.751E-02
DAV:   3    -0.128264854025E+04   -0.10558E-01   -0.83950E-02  8592   0.332E-01    0.205E-01
DAV:   4    -0.128263746157E+04    0.11079E-01   -0.30195E-02  8160   0.233E-01    0.405E-02
DAV:   5    -0.128263798956E+04   -0.52799E-03   -0.56950E-03  7472   0.102E-01    0.469E-02
DAV:   6    -0.128263746066E+04    0.52890E-03   -0.27893E-03  7168   0.745E-02    0.160E-02
DAV:   7    -0.128263745710E+04    0.35585E-05   -0.38394E-04  6296   0.212E-02
  34 F= -.13147902E+04 E0= -.13147767E+04  d E =-.325025E-02
       N       E                     dE             d eps       ncg     rms          rms(c)
DAV:   1    -0.128263285309E+04    0.46076E-02   -0.58633E-01  6616   0.689E-01    0.130E-01
DAV:   2    -0.128263492364E+04   -0.20706E-02   -0.24005E-02  7464   0.135E-01    0.808E-02
DAV:   3    -0.128263677067E+04   -0.18470E-02   -0.12075E-02  8240   0.132E-01    0.100E-01
DAV:   4    -0.128263671944E+04    0.51231E-04   -0.36149E-02  8120   0.217E-01    0.101E-01
DAV:   5    -0.128263501243E+04    0.17070E-02   -0.38088E-03  6960   0.799E-02    0.332E-02
DAV:   6    -0.128263479500E+04    0.21743E-03   -0.11545E-03  6160   0.424E-02    0.113E-02
DAV:   7    -0.128263481725E+04   -0.22252E-04   -0.34304E-04  5920   0.182E-02
  35 F= -.13147917E+04 E0= -.13147783E+04  d E =-.475308E-02
       N       E                     dE             d eps       ncg     rms          rms(c)
DAV:   1    -0.128263324935E+04    0.15456E-02   -0.42068E-01  6600   0.598E-01    0.118E-01
DAV:   2    -0.128263475722E+04   -0.15079E-02   -0.17068E-02  7480   0.127E-01    0.793E-02
DAV:   3    -0.128264316974E+04   -0.84125E-02   -0.65292E-02  8680   0.268E-01    0.174E-01
DAV:   4    -0.128263475322E+04    0.84165E-02   -0.66941E-02  8360   0.278E-01    0.542E-02
DAV:   5    -0.128263468923E+04    0.63986E-04   -0.13450E-03  6896   0.509E-02    0.340E-02
DAV:   6    -0.128263459744E+04    0.91792E-04   -0.73870E-04  6680   0.436E-02
  36 F= -.13147949E+04 E0= -.13147814E+04  d E =-.317315E-02
