PSC                                     
            1
    18.060801    0.000000    0.000000
    -0.004919   18.062799    0.000000
     0.000000    0.000000   62.487499
   H    C    N    I    Pb
   115    23    46    72    24
Direct configuration=     1
   0.44985750  0.29980251  0.58186901
   0.44985750  0.79980254  0.58186901
   0.94985747  0.29980251  0.58186901
   0.94985747  0.79980254  0.58186901
   0.30122301  0.05125000  0.58186901
   0.30122301  0.55124998  0.58186901
   0.80122304  0.05125000  0.58186901
   0.07963900  0.17118999  0.55695301
   0.07963900  0.67119002  0.55695301
   0.57963902  0.17118999  0.55695301
   0.57963902  0.67119002  0.55695301
   0.32886750  0.07890100  0.55695301
   0.32886750  0.57890099  0.55695301
   0.82886750  0.07890100  0.55695301
   0.05014550  0.20019799  0.58186698
   0.05014550  0.70019799  0.58186698
   0.55014551  0.20019799  0.58186698
   0.55014551  0.70019799  0.58186698
   0.19877601  0.44874796  0.58186698
   0.19877601  0.94874805  0.58186698
   0.69877601  0.94874805  0.58186698
   0.42035100  0.32881650  0.55695200
   0.42035100  0.82881653  0.55695200
   0.92035103  0.32881650  0.55695200
   0.92035109  0.82881653  0.55695200
   0.17113250  0.42109901  0.55695200
   0.17113250  0.92109907  0.55695200
   0.67113250  0.92109907  0.55695200
   0.49999750  0.25000301  0.53849697
   0.49999747  0.75000298  0.53849697
   0.99999756  0.25000301  0.53849697
   0.99999750  0.75000298  0.53849697
   0.24999999  0.50000000  0.53849697
   0.25000000  0.00000000  0.53849697
   0.75000000  0.00000000  0.53849697
   0.44879299  0.30124351  0.67418498
   0.44879299  0.80124354  0.67418498
   0.94879299  0.30124351  0.67418498
   0.94879293  0.80124354  0.67418498
   0.30122301  0.05125000  0.67416698
   0.30122301  0.55124998  0.67416698
   0.80122304  0.05125000  0.67416698
   0.80122304  0.55124998  0.67416698
   0.07882550  0.17109650  0.64885497
   0.07882550  0.67109650  0.64885497
   0.57882547  0.17109650  0.64885497
   0.57882547  0.67109650  0.64885497
   0.17113250  0.42109901  0.64883500
   0.17113250  0.92109907  0.64883500
   0.67113250  0.42109901  0.64883500
   0.67113250  0.92109907  0.64883500
   0.05120650  0.19875650  0.67418599
   0.05120650  0.69875652  0.67418599
   0.55120647  0.19875650  0.67418599
   0.55120647  0.69875652  0.67418599
   0.19877601  0.44874796  0.67416602
   0.19877601  0.94874805  0.67416602
   0.69877601  0.44874796  0.67416602
   0.69877601  0.94874805  0.67416602
   0.42117649  0.32890201  0.64885497
   0.42117649  0.82890201  0.64885497
   0.92117649  0.32890201  0.64885497
   0.92117649  0.82890201  0.64885497
   0.32886750  0.07890100  0.64883602
   0.32886750  0.57890099  0.64883602
   0.82886750  0.07890100  0.64883602
   0.82886750  0.57890099  0.64883602
   0.00000000  0.25000101  0.63108701
   1.00000000  0.75000101  0.63108701
   0.50000000  0.25000101  0.63108701
   0.50000000  0.75000101  0.63108701
   0.25000000  0.00000150  0.63106900
   0.24999999  0.50000149  0.63106900
   0.75000000  0.00000150  0.63106900
   0.75000000  0.50000149  0.63106900
   0.44874501  0.30128399  0.76888901
   0.44874501  0.80128396  0.76888901
   0.94874495  0.30128399  0.76888901
   0.94874501  0.80128396  0.76888901
   0.30127600  0.05129450  0.76887298
   0.30127600  0.55129451  0.76887298
   0.80127597  0.05129450  0.76887298
   0.80127597  0.55129451  0.76887298
   0.07877100  0.17118050  0.74344200
   0.07877100  0.67118049  0.74344200
   0.57877100  0.17118050  0.74344200
   0.57877100  0.67118049  0.74344200
   0.17119950  0.42117450  0.74342102
   0.17119950  0.92117453  0.74342102
   0.67119950  0.42117450  0.74342102
   0.67119950  0.92117453  0.74342102
   0.05125600  0.19871500  0.76888901
   0.05125600  0.69871497  0.76888901
   0.55125600  0.19871500  0.76888901
   0.55125600  0.69871497  0.76888901
   0.19872349  0.44870397  0.76887202
   0.19872350  0.94870400  0.76887202
   0.69872349  0.44870397  0.76887202
   0.69872350  0.94870400  0.76887202
   0.42123151  0.32881749  0.74344200
   0.42123151  0.82881749  0.74344200
   0.92123145  0.32881749  0.74344200
   0.92123151  0.82881749  0.74344200
   0.32880050  0.07882500  0.74342102
   0.32880050  0.57882500  0.74342102
   0.82880050  0.07882500  0.74342102
   0.82880050  0.57882500  0.74342102
   0.00000350  0.25000149  0.72582197
   0.00000350  0.75000149  0.72582197
   0.50000352  0.25000149  0.72582197
   0.50000352  0.75000149  0.72582197
   0.25000051  0.00000000  0.72580397
   0.25000051  0.50000000  0.72580397
   0.75000048  0.00000000  0.72580397
   0.75000048  0.50000000  0.72580397
   0.00001250  0.24997598  0.55595303
   0.00001250  0.74997598  0.55595303
   0.50001252  0.24997598  0.55595303
   0.50001252  0.74997598  0.55595303
   0.24999999  0.50000000  0.55595303
   0.25000000  0.00000000  0.55595303
   0.75000000  0.00000000  0.55595303
   0.00000900  0.24999101  0.64852703
   0.00000900  0.74999100  0.64852703
   0.50000900  0.24999101  0.64852703
   0.50000900  0.74999100  0.64852703
   0.24999949  0.49999949  0.64850700
   0.24999951  0.99999952  0.64850700
   0.74999952  0.49999949  0.64850700
   0.74999952  0.99999952  0.64850700
   0.49998897  0.24999499  0.74327701
   0.49998903  0.74999499  0.74327701
   0.99998897  0.24999499  0.74327701
   0.99998903  0.74999499  0.74327701
   0.25000051  0.00000100  0.74325597
   0.25000051  0.50000101  0.74325597
   0.75000048  0.00000100  0.74325597
   0.75000048  0.50000101  0.74325597
   0.04578050  0.20460950  0.56560701
   0.04578050  0.70460951  0.56560701
   0.54578048  0.20460950  0.56560701
   0.54578048  0.70460951  0.56560701
   0.45421049  0.29540500  0.56561202
   0.45421046  0.79540503  0.56561202
   0.95421052  0.29540500  0.56561202
   0.95421046  0.79540503  0.56561202
   0.20414101  0.45413998  0.56560701
   0.20414101  0.95414007  0.56560701
   0.70414102  0.95414007  0.56560701
   0.29585901  0.04586050  0.56561202
   0.29585901  0.54586053  0.56561202
   0.79585898  0.04586050  0.56561202
   0.04581600  0.20412999  0.65799499
   0.04581600  0.70412999  0.65799499
   0.54581600  0.20412999  0.65799499
   0.54581600  0.70412999  0.65799499
   0.20414101  0.45413998  0.65797698
   0.20414101  0.95414007  0.65797698
   0.70414102  0.45413998  0.65797698
   0.70414102  0.95414007  0.65797698
   0.45417100  0.29588401  0.65799701
   0.45417100  0.79588401  0.65799701
   0.95417094  0.29588401  0.65799701
   0.95417100  0.79588401  0.65799701
   0.29585901  0.04586050  0.65797698
   0.29585901  0.54586053  0.65797698
   0.79585898  0.04586050  0.65797698
   0.79585898  0.54586053  0.65797698
   0.04586250  0.20411950  0.75272602
   0.04586250  0.70411950  0.75272602
   0.54586250  0.20411950  0.75272602
   0.54586250  0.70411950  0.75272602
   0.20411900  0.45410103  0.75270498
   0.20411900  0.95410097  0.75270498
   0.70411897  0.45410103  0.75270498
   0.70411897  0.95410097  0.75270498
   0.45414001  0.29588851  0.75272697
   0.45414001  0.79588854  0.75272697
   0.95414001  0.29588851  0.75272697
   0.95414007  0.79588854  0.75272697
   0.29588249  0.04590050  0.75270498
   0.29588249  0.54590052  0.75270498
   0.79588246  0.04590050  0.75270498
   0.79588246  0.54590052  0.75270498
   0.50000000  0.00000000  0.55190402
   0.50000000  0.50000000  0.55190402
   0.00000000  0.00000000  0.55190402
   0.00000000  0.50000000  0.55190402
   0.25000101  0.25000000  0.55192202
   0.25000101  0.75000000  0.55192202
   0.75000101  0.25000000  0.55192202
   0.75000101  0.75000000  0.55192202
   0.00000000  0.00000000  0.65389597
   0.00000000  0.50000000  0.65389597
   0.50000000  0.00000000  0.65389597
   0.50000000  0.50000000  0.65389597
   0.25000000  0.25000000  0.65390903
   0.25000000  0.75000000  0.65390903
   0.75000000  0.25000000  0.65390903
   0.75000000  0.75000000  0.65390903
   0.14315900  0.10685950  0.60741800
   0.14315900  0.60685951  0.60741800
   0.64315903  0.10685950  0.60741800
   0.64315903  0.60685951  0.60741800
   0.35684049  0.39314151  0.60741800
   0.35684049  0.89314151  0.60741800
   0.85684049  0.39314151  0.60741800
   0.85684049  0.89314151  0.60741800
   0.10689500  0.35690001  0.60745299
   0.10689500  0.85689998  0.60745299
   0.60689497  0.35690001  0.60745299
   0.60689497  0.85689998  0.60745299
   0.39310500  0.14310101  0.60745299
   0.39310500  0.64310098  0.60745299
   0.89310503  0.14310101  0.60745299
   0.89310509  0.64310098  0.60745299
   0.00000000  0.00000000  0.75492799
   0.00000000  0.50000000  0.75492799
   0.50000000  0.00000000  0.75492799
   0.50000000  0.50000000  0.75492799
   0.25000051  0.25000000  0.75493902
   0.25000051  0.75000000  0.75493902
   0.75000048  0.25000000  0.75493902
   0.75000048  0.75000000  0.75493902
   0.13579050  0.11421000  0.70478302
   0.13579050  0.61421001  0.70478302
   0.63579047  0.11421000  0.70478302
   0.63579047  0.61421001  0.70478302
   0.36420950  0.38578999  0.70478302
   0.36420950  0.88578999  0.70478302
   0.86420953  0.38578999  0.70478302
   0.86420953  0.88578999  0.70478302
   0.11421799  0.36421901  0.70478100
   0.11421799  0.86421901  0.70478100
   0.61421800  0.36421901  0.70478100
   0.61421800  0.86421901  0.70478100
   0.38578200  0.13578150  0.70478201
   0.38578200  0.63578153  0.70478201
   0.88578200  0.13578150  0.70478201
   0.88578200  0.63578153  0.70478201
   0.13466699  0.11533201  0.80125600
   0.13466699  0.61533201  0.80125600
   0.63466698  0.11533201  0.80125600
   0.63466698  0.61533201  0.80125600
   0.36533299  0.38466799  0.80125600
   0.36533299  0.88466799  0.80125600
   0.86533296  0.38466799  0.80125600
   0.86533296  0.88466799  0.80125600
   0.11532851  0.36533701  0.80126500
   0.11532851  0.86533701  0.80126500
   0.61532849  0.36533701  0.80126500
   0.61532849  0.86533701  0.80126500
   0.38467151  0.13466300  0.80126500
   0.38467151  0.63466299  0.80126500
   0.88467151  0.13466300  0.80126500
   0.88467151  0.63466299  0.80126500
   0.00000050  0.00000100  0.60220701
   0.00000050  0.50000101  0.60220701
   0.50000048  0.00000100  0.60220701
   0.50000048  0.50000101  0.60220701
   0.25000000  0.24999948  0.60221499
   0.25000000  0.74999952  0.60221499
   0.75000000  0.24999948  0.60221499
   0.75000000  0.74999952  0.60221499
   0.00000050  0.00000050  0.70482898
   0.00000050  0.50000048  0.70482898
   0.50000048  0.00000050  0.70482898
   0.50000048  0.50000048  0.70482898
   0.25000000  0.24999948  0.70482498
   0.25000000  0.74999952  0.70482498
   0.75000000  0.24999948  0.70482498
   0.75000000  0.74999952  0.70482498
   0.00000000  0.00000000  0.80731797
   0.00000000  0.50000000  0.80731797
   0.50000000  0.00000000  0.80731797
   0.50000000  0.50000000  0.80731797
   0.25000000  0.25000000  0.80731797
   0.25000000  0.75000000  0.80731797
   0.75000000  0.25000000  0.80731797
   0.75000000  0.75000000  0.80731797
Direct configuration=     2
   0.44991650  0.29982117  0.58185935
   0.44986802  0.79978967  0.58185543
   0.94981558  0.29984241  0.58187735
   0.94983660  0.79974079  0.58185948
   0.30106989  0.05109610  0.58182295
   0.30106868  0.55108407  0.58181775
   0.80105793  0.05109489  0.58181771
   0.07962644  0.17120457  0.55695826
   0.07959791  0.67116354  0.55695343
   0.57966800  0.17123308  0.55695333
   0.57970250  0.67112809  0.55694909
   0.32943243  0.07946504  0.55678503
   0.32947400  0.57943136  0.55678344
   0.82939845  0.07950620  0.55678354
   0.05013205  0.20021351  0.58185036
   0.05008354  0.70018197  0.58185426
   0.55016341  0.20026241  0.58185436
   0.55018461  0.70016060  0.58187234
   0.19893073  0.44891447  0.58181247
   0.19892951  0.94890255  0.58181768
   0.69894145  0.94890375  0.58181247
   0.42039894  0.32883549  0.55695422
   0.42037045  0.82879450  0.55695905
   0.92029450  0.32887084  0.55694989
   0.92032879  0.82876602  0.55695409
   0.17052066  0.42056362  0.55678028
   0.17056223  0.92053001  0.55678187
   0.67059605  0.92048877  0.55678035
   0.50001811  0.25001937  0.53850219
   0.50000266  0.74999576  0.53849975
   0.99999468  0.25000393  0.53849975
   0.99997923  0.74998028  0.53850219
   0.25000097  0.50000116  0.53850464
   0.25000099  0.00000116  0.53850378
   0.75000099  0.00000116  0.53850464
   0.44880773  0.30124474  0.67417785
   0.44879962  0.80123748  0.67417855
   0.94880673  0.30123017  0.67418131
   0.94879212  0.80122933  0.67417788
   0.30121820  0.05124448  0.67416205
   0.30121875  0.55124038  0.67416069
   0.80121407  0.05124501  0.67416064
   0.80120458  0.55123090  0.67415236
   0.07881113  0.17111017  0.64885653
   0.07880387  0.67109945  0.64885202
   0.57882211  0.17111729  0.64885198
   0.57886207  0.67105946  0.64882676
   0.17112871  0.42110448  0.64883140
   0.17113471  0.92110231  0.64883306
   0.67112244  0.42108985  0.64881498
   0.67113708  0.92109626  0.64883142
   0.05119639  0.19876565  0.67417594
   0.05118825  0.69875839  0.67417523
   0.55120379  0.19877381  0.67417531
   0.55118924  0.69877297  0.67417869
   0.19877980  0.44875735  0.67416073
   0.19878033  0.94875334  0.67416211
   0.69879396  0.44876685  0.67415240
   0.69878448  0.94875278  0.67416071
   0.42118898  0.32890781  0.64884989
   0.42118176  0.82889703  0.64885440
   0.92113078  0.32894777  0.64882465
   0.92117081  0.82888978  0.64884988
   0.32886630  0.07889912  0.64883357
   0.32887234  0.57889692  0.64883190
   0.82886390  0.07890513  0.64883194
   0.82887854  0.57891154  0.64881549
  -0.00001254  0.25001324  0.63108628
   0.99996972  0.74996893  0.63108584
   0.50003176  0.25003102  0.63108583
   0.50001405  0.74998670  0.63108628
   0.24999968  0.00000116  0.63106699
   0.24999966  0.50000114  0.63106632
   0.74999968  0.00000115  0.63106636
   0.74999967  0.50000116  0.63104565
   0.44874501  0.30128399  0.76888901
   0.44874501  0.80128396  0.76888901
   0.94874495  0.30128399  0.76888901
   0.94874501  0.80128396  0.76888901
   0.30127600  0.05129450  0.76887298
   0.30127600  0.55129451  0.76887298
   0.80127597  0.05129450  0.76887298
   0.80127597  0.55129451  0.76887298
   0.07877100  0.17118050  0.74344200
   0.07877100  0.67118049  0.74344200
   0.57877100  0.17118050  0.74344200
   0.57877100  0.67118049  0.74344200
   0.17119950  0.42117450  0.74342102
   0.17119950  0.92117453  0.74342102
   0.67119950  0.42117450  0.74342102
   0.67119950  0.92117453  0.74342102
   0.05125600  0.19871500  0.76888901
   0.05125600  0.69871497  0.76888901
   0.55125600  0.19871500  0.76888901
   0.55125600  0.69871497  0.76888901
   0.19872349  0.44870397  0.76887202
   0.19872350  0.94870400  0.76887202
   0.69872349  0.44870397  0.76887202
   0.69872350  0.94870400  0.76887202
   0.42123151  0.32881749  0.74344200
   0.42123151  0.82881749  0.74344200
   0.92123145  0.32881749  0.74344200
   0.92123151  0.82881749  0.74344200
   0.32880050  0.07882500  0.74342102
   0.32880050  0.57882500  0.74342102
   0.82880050  0.07882500  0.74342102
   0.82880050  0.57882500  0.74342102
   0.00000350  0.25000149  0.72582197
   0.00000350  0.75000149  0.72582197
   0.50000352  0.25000149  0.72582197
   0.50000352  0.75000149  0.72582197
   0.25000051  0.00000000  0.72580397
   0.25000051  0.50000000  0.72580397
   0.75000048  0.00000000  0.72580397
   0.75000048  0.50000000  0.72580397
  -0.00019950  0.25019073  0.55595852
  -0.00008612  0.75000553  0.55595702
   0.49998884  0.25007633  0.55595704
   0.50010235  0.74989103  0.55595853
   0.25000482  0.50000501  0.55615512
   0.25000491  0.00000510  0.55615222
   0.75000479  0.00000499  0.55615509
  -0.00008521  0.25008533  0.64851705
  -0.00003031  0.75002982  0.64850094
   0.49997087  0.25002979  0.64850092
   0.50002585  0.74997420  0.64851705
   0.25000103  0.50000142  0.64849360
   0.25000097  0.00000139  0.64849723
   0.75000095  0.50000133  0.64846058
   0.75000090  0.00000130  0.64849363
   0.49998897  0.24999499  0.74327701
   0.49998903  0.74999499  0.74327701
   0.99998897  0.24999499  0.74327701
   0.99998903  0.74999499  0.74327701
   0.25000051  0.00000100  0.74325597
   0.25000051  0.50000101  0.74325597
   0.75000048  0.00000100  0.74325597
   0.75000048  0.50000101  0.74325597
   0.04586766  0.20451819  0.56562808
   0.04583345  0.70464206  0.56561550
   0.54574188  0.20455246  0.56561524
   0.54568041  0.70470486  0.56558901
   0.45421427  0.29531196  0.56560382
   0.45418021  0.79543589  0.56561640
   0.95436724  0.29524944  0.56557739
   0.95430617  0.79540176  0.56560354
   0.20497785  0.45491972  0.56572312
   0.20494957  0.95494660  0.56571977
   0.70492283  0.95497469  0.56572288
   0.29504781  0.04505173  0.56571674
   0.29501957  0.54507864  0.56572011
   0.79507481  0.04502378  0.56571987
   0.04587969  0.20406815  0.65801308
   0.04586594  0.70410581  0.65801691
   0.54584155  0.20408231  0.65801684
   0.54580339  0.70414430  0.65801302
   0.20413578  0.45412374  0.65798534
   0.20413348  0.95413045  0.65798250
   0.70412188  0.45411888  0.65800996
   0.70412691  0.95413292  0.65798530
   0.45417158  0.29585694  0.65801032
   0.45415786  0.79589465  0.65800649
   0.95423420  0.29581838  0.65800643
   0.95419606  0.79588052  0.65801024
   0.29586331  0.04586716  0.65798394
   0.29586091  0.54587372  0.65798675
   0.79586996  0.04586479  0.65798677
   0.79587495  0.54587866  0.65801138
   0.04586250  0.20411950  0.75272602
   0.04586250  0.70411950  0.75272602
   0.54586250  0.20411950  0.75272602
   0.54586250  0.70411950  0.75272602
   0.20411900  0.45410103  0.75270498
   0.20411900  0.95410097  0.75270498
   0.70411897  0.45410103  0.75270498
   0.70411897  0.95410097  0.75270498
   0.45414001  0.29588851  0.75272697
   0.45414001  0.79588854  0.75272697
   0.95414001  0.29588851  0.75272697
   0.95414007  0.79588854  0.75272697
   0.29588249  0.04590050  0.75270498
   0.29588249  0.54590052  0.75270498
   0.79588246  0.04590050  0.75270498
   0.79588246  0.54590052  0.75270498
   0.49997699 -0.00000201  0.55194934
   0.49980461  0.50007263  0.55201775
   0.00002305  0.00000326  0.55194929
   0.00019541  0.49992865  0.55201774
   0.24999750  0.24997669  0.55196592
   0.25000293  0.75002298  0.55196591
   0.75007178  0.24980465  0.55203388
   0.74992871  0.75019497  0.55203391
   0.00001200  0.00000087  0.65396715
   0.00003715  0.49999513  0.65400028
   0.49998788 -0.00000008  0.65396715
   0.49996271  0.50000557  0.65400027
   0.24999895  0.24998789  0.65398032
   0.24999989  0.75001185  0.65398031
   0.75000467  0.24996276  0.65401357
   0.74999422  0.75003696  0.65401356
   0.14316543  0.10685257  0.60741551
   0.14324621  0.60692762  0.60741987
   0.64309013  0.10677149  0.60741986
   0.64297954  0.60703808  0.60743219
   0.35675212  0.39307402  0.60741997
   0.35683288  0.89314904  0.60741560
   0.85701890  0.39296363  0.60743230
   0.85690833  0.89323019  0.60741996
   0.10699740  0.35682591  0.60745286
   0.10692197  0.85692677  0.60744861
   0.60683797  0.35684329  0.60744850
   0.60682073  0.85700255  0.60745284
   0.39307801  0.14307419  0.60744867
   0.39300253  0.64317504  0.60745291
   0.89317932  0.14299844  0.60745288
   0.89316203  0.64315739  0.60744850
   0.00000000  0.00000000  0.75492799
   0.00000000  0.50000000  0.75492799
   0.50000000  0.00000000  0.75492799
   0.50000000  0.50000000  0.75492799
   0.25000051  0.25000000  0.75493902
   0.25000051  0.75000000  0.75493902
   0.75000048  0.25000000  0.75493902
   0.75000048  0.75000000  0.75493902
   0.13579050  0.11421000  0.70478302
   0.13579050  0.61421001  0.70478302
   0.63579047  0.11421000  0.70478302
   0.63579047  0.61421001  0.70478302
   0.36420950  0.38578999  0.70478302
   0.36420950  0.88578999  0.70478302
   0.86420953  0.38578999  0.70478302
   0.86420953  0.88578999  0.70478302
   0.11421799  0.36421901  0.70478100
   0.11421799  0.86421901  0.70478100
   0.61421800  0.36421901  0.70478100
   0.61421800  0.86421901  0.70478100
   0.38578200  0.13578150  0.70478201
   0.38578200  0.63578153  0.70478201
   0.88578200  0.13578150  0.70478201
   0.88578200  0.63578153  0.70478201
   0.13466699  0.11533201  0.80125600
   0.13466699  0.61533201  0.80125600
   0.63466698  0.11533201  0.80125600
   0.63466698  0.61533201  0.80125600
   0.36533299  0.38466799  0.80125600
   0.36533299  0.88466799  0.80125600
   0.86533296  0.38466799  0.80125600
   0.86533296  0.88466799  0.80125600
   0.11532851  0.36533701  0.80126500
   0.11532851  0.86533701  0.80126500
   0.61532849  0.36533701  0.80126500
   0.61532849  0.86533701  0.80126500
   0.38467151  0.13466300  0.80126500
   0.38467151  0.63466299  0.80126500
   0.88467151  0.13466300  0.80126500
   0.88467151  0.63466299  0.80126500
  -0.00009667  0.00000947  0.60217732
  -0.00044606  0.50008971  0.60208676
   0.50009629 -0.00000842  0.60217725
   0.50044573  0.49991148  0.60208675
   0.24999143  0.25009607  0.60218813
   0.25000929  0.74990382  0.60218815
   0.74991124  0.25044547  0.60209799
   0.75008921  0.74955433  0.60209801
   0.00000050  0.00000050  0.70482898
   0.00000050  0.50000048  0.70482898
   0.50000048  0.00000050  0.70482898
   0.50000048  0.50000048  0.70482898
   0.25000000  0.24999948  0.70482498
   0.25000000  0.74999952  0.70482498
   0.75000000  0.24999948  0.70482498
   0.75000000  0.74999952  0.70482498
   0.00000000  0.00000000  0.80731797
   0.00000000  0.50000000  0.80731797
   0.50000000  0.00000000  0.80731797
   0.50000000  0.50000000  0.80731797
   0.25000000  0.25000000  0.80731797
   0.25000000  0.75000000  0.80731797
   0.75000000  0.25000000  0.80731797
   0.75000000  0.75000000  0.80731797
Direct configuration=     3
   0.44987880  0.29980925  0.58186552
   0.44986130  0.79979790  0.58186411
   0.94984235  0.29981691  0.58187202
   0.94984994  0.79978026  0.58186557
   0.30116775  0.05119446  0.58185238
   0.30116731  0.55119011  0.58185051
   0.80116345  0.05119402  0.58185049
   0.07963447  0.17119525  0.55695491
   0.07962417  0.67118047  0.55695316
   0.57964948  0.17120554  0.55695313
   0.57966193  0.67116767  0.55695160
   0.32907137  0.07910456  0.55689239
   0.32908638  0.57909240  0.55689182
   0.82905911  0.07911941  0.55689185
   0.05014064  0.20020359  0.58186098
   0.05012314  0.70019221  0.58186239
   0.55015197  0.20022124  0.58186242
   0.55015962  0.70018450  0.58186891
   0.19883185  0.44880805  0.58184731
   0.19883140  0.94880381  0.58184919
   0.69883571  0.94880424  0.58184731
   0.42036830  0.32882336  0.55695280
   0.42035802  0.82880858  0.55695454
   0.92033063  0.32883611  0.55695124
   0.92034304  0.82879830  0.55695275
   0.17091170  0.42090579  0.55689003
   0.17092670  0.92089370  0.55689060
   0.67093891  0.92087882  0.55689005
   0.50000494  0.25000892  0.53849885
   0.49999934  0.75000037  0.53849797
   0.99999652  0.25000334  0.53849797
   0.99999090  0.74999479  0.53849886
   0.25000034  0.50000042  0.53849974
   0.25000036  0.00000042  0.53849943
   0.75000036  0.00000042  0.53849974
   0.44879831  0.30124396  0.67418241
   0.44879538  0.80124136  0.67418266
   0.94879795  0.30123870  0.67418366
   0.94879264  0.80123841  0.67418241
   0.30122127  0.05124801  0.67416520
   0.30122147  0.55124652  0.67416471
   0.80121980  0.05124820  0.67416469
   0.80121638  0.55124309  0.67416170
   0.07882032  0.17110143  0.64885553
   0.07881770  0.67109757  0.64885391
   0.57882426  0.17110401  0.64885389
   0.57883868  0.67108313  0.64884479
   0.17113114  0.42110098  0.64883370
   0.17113330  0.92110024  0.64883430
   0.67112887  0.42109570  0.64882778
   0.67113416  0.92109805  0.64883371
   0.05120285  0.19875980  0.67418237
   0.05119991  0.69875719  0.67418211
   0.55120550  0.19876275  0.67418214
   0.55120025  0.69876245  0.67418335
   0.19877737  0.44875135  0.67416411
   0.19877757  0.94874996  0.67416461
   0.69878249  0.44875478  0.67416111
   0.69877907  0.94874976  0.67416411
   0.42118100  0.32890410  0.64885314
   0.42117839  0.82890021  0.64885477
   0.92116000  0.32891852  0.64884403
   0.92117444  0.82889759  0.64885313
   0.32886706  0.07890032  0.64883513
   0.32886924  0.57889952  0.64883453
   0.82886620  0.07890249  0.64883454
   0.82887148  0.57890480  0.64882861
  -0.00000453  0.25000543  0.63108675
   0.99998907  0.74998943  0.63108658
   0.50001146  0.25001184  0.63108658
   0.50000507  0.74999585  0.63108674
   0.24999988  0.00000138  0.63106828
   0.24999987  0.50000136  0.63106804
   0.74999989  0.00000137  0.63106805
   0.74999988  0.50000137  0.63106058
   0.44874501  0.30128399  0.76888901
   0.44874501  0.80128396  0.76888901
   0.94874495  0.30128399  0.76888901
   0.94874501  0.80128396  0.76888901
   0.30127600  0.05129450  0.76887298
   0.30127600  0.55129451  0.76887298
   0.80127597  0.05129450  0.76887298
   0.80127597  0.55129451  0.76887298
   0.07877100  0.17118050  0.74344200
   0.07877100  0.67118049  0.74344200
   0.57877100  0.17118050  0.74344200
   0.57877100  0.67118049  0.74344200
   0.17119950  0.42117450  0.74342102
   0.17119950  0.92117453  0.74342102
   0.67119950  0.42117450  0.74342102
   0.67119950  0.92117453  0.74342102
   0.05125600  0.19871500  0.76888901
   0.05125600  0.69871497  0.76888901
   0.55125600  0.19871500  0.76888901
   0.55125600  0.69871497  0.76888901
   0.19872349  0.44870397  0.76887202
   0.19872350  0.94870400  0.76887202
   0.69872349  0.44870397  0.76887202
   0.69872350  0.94870400  0.76887202
   0.42123151  0.32881749  0.74344200
   0.42123151  0.82881749  0.74344200
   0.92123145  0.32881749  0.74344200
   0.92123151  0.82881749  0.74344200
   0.32880050  0.07882500  0.74342102
   0.32880050  0.57882500  0.74342102
   0.82880050  0.07882500  0.74342102
   0.82880050  0.57882500  0.74342102
   0.00000350  0.25000149  0.72582197
   0.00000350  0.75000149  0.72582197
   0.50000352  0.25000149  0.72582197
   0.50000352  0.75000149  0.72582197
   0.25000051  0.00000000  0.72580397
   0.25000051  0.50000000  0.72580397
   0.75000048  0.00000000  0.72580397
   0.75000048  0.50000000  0.72580397
  -0.00006401  0.25005348  0.55595501
  -0.00002309  0.74998664  0.55595447
   0.50000397  0.25001220  0.55595447
   0.50004494  0.74994532  0.55595501
   0.25000173  0.50000181  0.55602596
   0.25000177  0.00000184  0.55602491
   0.75000173  0.00000180  0.55602595
  -0.00002500  0.25002505  0.64852343
  -0.00000519  0.75000501  0.64851761
   0.49999524  0.25000501  0.64851760
   0.50001508  0.74998494  0.64852343
   0.25000005  0.50000019  0.64850216
   0.25000003  0.00000020  0.64850347
   0.75000004  0.50000016  0.64849025
   0.75000002  0.00000016  0.64850218
   0.49998897  0.24999499  0.74327701
   0.49998903  0.74999499  0.74327701
   0.99998897  0.24999499  0.74327701
   0.99998903  0.74999499  0.74327701
   0.25000051  0.00000100  0.74325597
   0.25000051  0.50000101  0.74325597
   0.75000048  0.00000100  0.74325597
   0.75000048  0.50000101  0.74325597
   0.04581196  0.20457655  0.56561461
   0.04579961  0.70462126  0.56561008
   0.54576655  0.20458891  0.56560998
   0.54574437  0.70464392  0.56560052
   0.45421185  0.29537142  0.56560906
   0.45419954  0.79541617  0.56561360
   0.95426708  0.29534886  0.56559952
   0.95424500  0.79540385  0.56560896
   0.20444301  0.45442138  0.56564891
   0.20443281  0.95443114  0.56564771
   0.70442317  0.95444128  0.56564883
   0.29556626  0.04556862  0.56564981
   0.29555607  0.54557835  0.56565103
   0.79557598  0.04555854  0.56565094
   0.04583899  0.20410768  0.65800151
   0.04583402  0.70412127  0.65800290
   0.54582522  0.20411278  0.65800287
   0.54581145  0.70413516  0.65800149
   0.20413912  0.45413412  0.65798000
   0.20413829  0.95413660  0.65797898
   0.70413411  0.45413236  0.65798889
   0.70413593  0.95413749  0.65797999
   0.45417121  0.29587424  0.65800182
   0.45416626  0.79588785  0.65800043
   0.95419377  0.29586033  0.65800041
   0.95418004  0.79588275  0.65800179
   0.29586056  0.04586290  0.65797950
   0.29585969  0.54586529  0.65798051
   0.79586294  0.04586205  0.65798051
   0.79586474  0.54586707  0.65798940
   0.04586250  0.20411950  0.75272602
   0.04586250  0.70411950  0.75272602
   0.54586250  0.20411950  0.75272602
   0.54586250  0.70411950  0.75272602
   0.20411900  0.45410103  0.75270498
   0.20411900  0.95410097  0.75270498
   0.70411897  0.45410103  0.75270498
   0.70411897  0.95410097  0.75270498
   0.45414001  0.29588851  0.75272697
   0.45414001  0.79588854  0.75272697
   0.95414001  0.29588851  0.75272697
   0.95414007  0.79588854  0.75272697
   0.29588249  0.04590050  0.75270498
   0.29588249  0.54590052  0.75270498
   0.79588246  0.04590050  0.75270498
   0.79588246  0.54590052  0.75270498
   0.49999169 -0.00000072  0.55192038
   0.49992949  0.50002621  0.55194506
   0.00000832  0.00000118  0.55192036
   0.00007052  0.49997425  0.55194506
   0.24999974  0.24999159  0.55193786
   0.25000170  0.75000829  0.55193786
   0.75002655  0.24992950  0.55196239
   0.74997492  0.75007036  0.55196240
   0.00000433  0.00000031  0.65392166
   0.00001341  0.49999824  0.65393362
   0.49999563 -0.00000003  0.65392166
   0.49998654  0.50000201  0.65393361
   0.24999962  0.24999563  0.65393476
   0.24999996  0.75000428  0.65393475
   0.75000169  0.24998656  0.65394676
   0.74999791  0.75001334  0.65394675
   0.14316132  0.10685700  0.60741710
   0.14319047  0.60688409  0.60741868
   0.64313417  0.10682773  0.60741867
   0.64309425  0.60692395  0.60742312
   0.35680860  0.39311715  0.60741871
   0.35683775  0.89314423  0.60741713
   0.85690488  0.39307731  0.60742316
   0.85686497  0.89317351  0.60741871
   0.10693195  0.35687326  0.60745294
   0.10690473  0.85690965  0.60745141
   0.60687440  0.35687954  0.60745137
   0.60686818  0.85693699  0.60745293
   0.39309526  0.14309133  0.60745143
   0.39306802  0.64312770  0.60745296
   0.89313184  0.14306399  0.60745295
   0.89312564  0.64312134  0.60745137
   0.00000000  0.00000000  0.75492799
   0.00000000  0.50000000  0.75492799
   0.50000000  0.00000000  0.75492799
   0.50000000  0.50000000  0.75492799
   0.25000051  0.25000000  0.75493902