 vasp.6.2.1 16May21 (build Nov 15 2021 14:57:28) complex                         
 executed on             LinuxPGI date 2023.07.30  09:10:42
 running on    4 total cores
 distrk:  each k-point on    4 cores,    1 groups
 distr:  one band on NCORE=   1 cores,    4 groups


--------------------------------------------------------------------------------------------------------


 INCAR:
   SYSTEM = PSC
   ISTART = 1
   ICHARG = 1
   PREC = Normal
   ENCUT = 500
   GGA_COMPAT = F
   NELM = 600
   ISYM = 0
   LREAL = Auto
   ISMEAR = 0
   SIGMA = 0.05
   AMIN = 0.01
   BMIX = 0.01
   LVTOT = T
   LWAVE = F
   LDIPOL = T
   IDIPOL = 3
   LVDW = T
   IVDW = 12

 POTCAR:    PAW_PBE H 15Jun2001                   
 POTCAR:    PAW_PBE C 08Apr2002                   
 POTCAR:    PAW_PBE N 08Apr2002                   
 POTCAR:    PAW_PBE I 08Apr2002                   
 POTCAR:    PAW_PBE Pb 08Apr2002                  
 WARNING: For LVTOT=.TRUE., VASP.5.x writes the TOTAL local potential to the
     file LOCPOT. If you want only the Hartree contributions, use LVHAR=.TRUE.
     instead. 

 POTCAR:    PAW_PBE H 15Jun2001                   
   SHA256 =  030f79b5d3ab3cf0e668861823c8fb652ff669f3e15e46930bd03bfd63a607b6 H/POTCAR              
   COPYR  = (c) Copyright 15Jun2001 Georg Kresse                                                    
   COPYR  = This file is part of the software VASP. Any use, copying, and all other rights are regul
   COPYR  = If you do not have a valid VASP license, you may not use, copy or distribute this file. 
   VRHFIN =H: ultrasoft test                                                                        
   LEXCH  = PE                                                                                      
   EATOM  =    12.4884 eV,    0.9179 Ry                                                             
                                                                                                    
   TITEL  = PAW_PBE H 15Jun2001                                                                     
   LULTRA =        F    use ultrasoft PP ?                                                          
   IUNSCR =        0    unscreen: 0-lin 1-nonlin 2-no                                               
   RPACOR =    0.000    partial core radius                                                         
   POMASS =    1.000; ZVAL   =    1.000    mass and valenz                                          
   RCORE  =    1.100    outmost cutoff radius                                                       
   RWIGS  =    0.700; RWIGS  =    0.370    wigner-seitz radius (au A)                               
   ENMAX  =  250.000; ENMIN  =  200.000 eV                                                          
   RCLOC  =    0.701    cutoff for local pot                                                        
   LCOR   =        T    correct aug charges                                                         
   LPAW   =        T    paw PP                                                                      
   EAUG   =  400.000                                                                                
   RMAX   =    1.123    core radius for proj-oper                                                   
   RAUG   =    1.200    factor for augmentation sphere                                              
   RDEP   =    1.112    radius for radial grids                                                     
   RDEPT  =    0.926    core radius for aug-charge                                                  
                                                                                                    
   Atomic configuration                                                                             
    2 entries                                                                                       
     n  l   j            E        occ.                                                              
     1  0  0.50        -6.4927   1.0000                                                             
     2  1  0.50        -3.4015   0.0000                                                             
   Description                                                                                      
     l       E           TYP  RCUT    TYP  RCUT                                                     
     0     -6.4927494     23  1.100                                                                 
     0      6.8029130     23  1.100                                                                 
     1     -4.0817478     23  1.100                                                                 
  local pseudopotential read in
  atomic valenz-charges read in
  non local Contribution for L=            0  read in
    real space projection operators read in
  non local Contribution for L=            0  read in
    real space projection operators read in
  non local Contribution for L=            1  read in
    real space projection operators read in
    PAW grid and wavefunctions read in
 
   number of l-projection  operators is LMAX  =            3
   number of lm-projection operators is LMMAX =            5
 
 POTCAR:    PAW_PBE C 08Apr2002                   
   SHA256 =  253f7b50bb8d59471dbedb8285d89021f4a42ed1a2c5d38a03a736e69125dd95 C/POTCAR              
   COPYR  = (c) Copyright 08Apr2002 Georg Kresse                                                    
   COPYR  = This file is part of the software VASP. Any use, copying, and all other rights are regul
   COPYR  = If you do not have a valid VASP license, you may not use, copy or distribute this file. 
   VRHFIN =C: s2p2                                                                                  
   LEXCH  = PE                                                                                      
   EATOM  =   147.1560 eV,   10.8157 Ry                                                             
                                                                                                    
   TITEL  = PAW_PBE C 08Apr2002                                                                     
   LULTRA =        F    use ultrasoft PP ?                                                          
   IUNSCR =        1    unscreen: 0-lin 1-nonlin 2-no                                               
   RPACOR =    1.200    partial core radius                                                         
   POMASS =   12.011; ZVAL   =    4.000    mass and valenz                                          
   RCORE  =    1.500    outmost cutoff radius                                                       
   RWIGS  =    1.630; RWIGS  =    0.863    wigner-seitz radius (au A)                               
   ENMAX  =  400.000; ENMIN  =  300.000 eV                                                          
   ICORE  =        2    local potential                                                             
   LCOR   =        T    correct aug charges                                                         
   LPAW   =        T    paw PP                                                                      
   EAUG   =  644.873                                                                                
   DEXC   =    0.000                                                                                
   RMAX   =    1.529    core radius for proj-oper                                                   
   RAUG   =    1.300    factor for augmentation sphere                                              
   RDEP   =    1.501    radius for radial grids                                                     
   RDEPT  =    1.300    core radius for aug-charge                                                  
                                                                                                    
   Atomic configuration                                                                             
    4 entries                                                                                       
     n  l   j            E        occ.                                                              
     1  0  0.50      -273.3789   2.0000                                                             
     2  0  0.50       -13.7508   2.0000                                                             
     2  1  0.50        -5.2854   2.0000                                                             
     3  2  1.50        -5.4423   0.0000                                                             
   Description                                                                                      
     l       E           TYP  RCUT    TYP  RCUT                                                     
     0    -13.7508458     23  1.200                                                                 
     0     -8.2022199     23  1.200                                                                 
     1     -5.2854383     23  1.500                                                                 
     1     34.0145650     23  1.500                                                                 
     2     -5.4423304      7  1.500                                                                 
  local pseudopotential read in
  partial core-charges read in
  partial kinetic energy density read in
  atomic valenz-charges read in
  non local Contribution for L=            0  read in
    real space projection operators read in
  non local Contribution for L=            0  read in
    real space projection operators read in
  non local Contribution for L=            1  read in
    real space projection operators read in
  non local Contribution for L=            1  read in
    real space projection operators read in
    PAW grid and wavefunctions read in
 
   number of l-projection  operators is LMAX  =            4
   number of lm-projection operators is LMMAX =            8
 
 POTCAR:    PAW_PBE N 08Apr2002                   
   SHA256 =  e053789ff3a61a86a1b75d8a110fcc91f86041011e7b0817c7c99e4e8a6349d7 N/POTCAR              
   COPYR  = (c) Copyright 08Apr2002 Georg Kresse                                                    
   COPYR  = This file is part of the software VASP. Any use, copying, and all other rights are regul
   COPYR  = If you do not have a valid VASP license, you may not use, copy or distribute this file. 
   VRHFIN =N: s2p3                                                                                  
   LEXCH  = PE                                                                                      
   EATOM  =   264.5486 eV,   19.4438 Ry                                                             
                                                                                                    
   TITEL  = PAW_PBE N 08Apr2002                                                                     
   LULTRA =        F    use ultrasoft PP ?                                                          
   IUNSCR =        1    unscreen: 0-lin 1-nonlin 2-no                                               
   RPACOR =    1.200    partial core radius                                                         
   POMASS =   14.001; ZVAL   =    5.000    mass and valenz                                          
   RCORE  =    1.500    outmost cutoff radius                                                       
   RWIGS  =    1.400; RWIGS  =    0.741    wigner-seitz radius (au A)                               
   ENMAX  =  400.000; ENMIN  =  300.000 eV                                                          
   ICORE  =        2    local potential                                                             
   LCOR   =        T    correct aug charges                                                         
   LPAW   =        T    paw PP                                                                      
   EAUG   =  627.112                                                                                
   DEXC   =    0.000                                                                                
   RMAX   =    1.529    core radius for proj-oper                                                   
   RAUG   =    1.300    factor for augmentation sphere                                              
   RDEP   =    1.514    radius for radial grids                                                     
   RDEPT  =    1.338    core radius for aug-charge                                                  
                                                                                                    
   Atomic configuration                                                                             
    4 entries                                                                                       
     n  l   j            E        occ.                                                              
     1  0  0.50      -384.7179   2.0000                                                             
     2  0  0.50       -18.5828   2.0000                                                             
     2  1  0.50        -7.0898   3.0000                                                             
     3  2  1.50        -6.8029   0.0000                                                             
   Description                                                                                      
     l       E           TYP  RCUT    TYP  RCUT                                                     
     0    -18.5828119     23  1.200                                                                 
     0    -13.5018863     23  1.200                                                                 
     1     -7.0897853     23  1.500                                                                 
     1      9.5240782     23  1.500                                                                 
     2     -6.8029130      7  1.500                                                                 
  local pseudopotential read in
  partial core-charges read in
  partial kinetic energy density read in
  atomic valenz-charges read in
  non local Contribution for L=            0  read in
    real space projection operators read in
  non local Contribution for L=            0  read in
    real space projection operators read in
  non local Contribution for L=            1  read in
    real space projection operators read in
  non local Contribution for L=            1  read in
    real space projection operators read in
    PAW grid and wavefunctions read in
 
   number of l-projection  operators is LMAX  =            4
   number of lm-projection operators is LMMAX =            8
 
 POTCAR:    PAW_PBE I 08Apr2002                   
   SHA256 =  e40f3f59b681c1fc3e3091736183c4589116986673d2b852a5012aec72758799 I/POTCAR              
   COPYR  = (c) Copyright 08Apr2002 Georg Kresse                                                    
   COPYR  = This file is part of the software VASP. Any use, copying, and all other rights are regul
   COPYR  = If you do not have a valid VASP license, you may not use, copy or distribute this file. 
   VRHFIN =I : s2p5                                                                                 
   LEXCH  = PE                                                                                      
   EATOM  =   315.8678 eV,   23.2156 Ry                                                             
                                                                                                    
   TITEL  = PAW_PBE I 08Apr2002                                                                     
   LULTRA =        F    use ultrasoft PP ?                                                          
   IUNSCR =        1    unscreen: 0-lin 1-nonlin 2-no                                               
   RPACOR =    2.200    partial core radius                                                         
   POMASS =  126.904; ZVAL   =    7.000    mass and valenz                                          
   RCORE  =    2.300    outmost cutoff radius                                                       
   RWIGS  =    2.810; RWIGS  =    1.487    wigner-seitz radius (au A)                               
   ENMAX  =  175.647; ENMIN  =  131.735 eV                                                          
   ICORE  =        3    local potential                                                             
   LCOR   =        T    correct aug charges                                                         
   LPAW   =        T    paw PP                                                                      
   EAUG   =  370.139                                                                                
   DEXC   =    0.000                                                                                
   RMAX   =    2.359    core radius for proj-oper                                                   
   RAUG   =    1.300    factor for augmentation sphere                                              
   RDEP   =    2.392    radius for radial grids                                                     
   RDEPT  =    2.170    core radius for aug-charge                                                  
                                                                                                    
   Atomic configuration                                                                             
   13 entries                                                                                       
     n  l   j            E        occ.                                                              
     1  0  0.50    -32976.3739   2.0000                                                             
     2  0  0.50     -5094.5933   2.0000                                                             
     2  1  1.50     -4572.0131   6.0000                                                             
     3  0  0.50     -1028.2813   2.0000                                                             
     3  1  1.50      -859.0250   6.0000                                                             
     3  2  2.50      -605.7620  10.0000                                                             
     4  0  0.50      -180.5540   2.0000                                                             
     4  1  1.50      -127.5306   6.0000                                                             
     4  2  2.50       -50.2720  10.0000                                                             
     5  0  0.50       -17.4058   2.0000                                                             
     5  1  0.50        -7.0851   5.0000                                                             
     5  2  1.50        -7.0750   0.0000                                                             
     4  3  2.50        -7.0750   0.0000                                                             
   Description                                                                                      
     l       E           TYP  RCUT    TYP  RCUT                                                     
     0    -17.4058016     23  2.300                                                                 
     0    -18.7663842     23  2.300                                                                 
     1     -7.0850686     23  2.300                                                                 
     1     -4.2150896     23  2.300                                                                 
     2     -7.0750295     23  2.300                                                                 
     3     -1.3605826     23  2.300                                                                 
  local pseudopotential read in
  partial core-charges read in
  partial kinetic energy density read in
  atomic valenz-charges read in
  non local Contribution for L=            0  read in
    real space projection operators read in
  non local Contribution for L=            0  read in
    real space projection operators read in
  non local Contribution for L=            1  read in
    real space projection operators read in
  non local Contribution for L=            1  read in
    real space projection operators read in
  non local Contribution for L=            2  read in
    real space projection operators read in
    PAW grid and wavefunctions read in
 
   number of l-projection  operators is LMAX  =            5
   number of lm-projection operators is LMMAX =           13
 
 POTCAR:    PAW_PBE Pb 08Apr2002                  
   SHA256 =  797118a27cf1bcd06b9881c67a26cdde129e3cd1a551dd4a281f9681ce847303 Pb/POTCAR             
   COPYR  = (c) Copyright 08Apr2002 Georg Kresse                                                    
   COPYR  = This file is part of the software VASP. Any use, copying, and all other rights are regul
   COPYR  = If you do not have a valid VASP license, you may not use, copy or distribute this file. 
   VRHFIN =Pb:                                                                                      
   LEXCH  = PE                                                                                      
   EATOM  =    96.9868 eV,    7.1283 Ry                                                             
                                                                                                    
   TITEL  = PAW_PBE Pb 08Apr2002                                                                    
   LULTRA =        F    use ultrasoft PP ?                                                          
   IUNSCR =        1    unscreen: 0-lin 1-nonlin 2-no                                               
   RPACOR =    2.200    partial core radius                                                         
   POMASS =  207.200; ZVAL   =    4.000    mass and valenz                                          
   RCORE  =    3.100    outmost cutoff radius                                                       
   RWIGS  =    3.260; RWIGS  =    1.725    wigner-seitz radius (au A)                               
   ENMAX  =   97.973; ENMIN  =   73.480 eV                                                          
   ICORE  =        3    local potential                                                             
   LCOR   =        T    correct aug charges                                                         
   LPAW   =        T    paw PP                                                                      
   EAUG   =  234.873                                                                                
   DEXC   =    0.000                                                                                
   RMAX   =    3.158    core radius for proj-oper                                                   
   RAUG   =    1.300    factor for augmentation sphere                                              
   RDEP   =    3.202    radius for radial grids                                                     
   RDEPT  =    2.659    core radius for aug-charge                                                  
                                                                                                    
   Atomic configuration                                                                             
   17 entries                                                                                       
     n  l   j            E        occ.                                                              
     1  0  0.50    -88091.8466   2.0000                                                             
     2  0  0.50    -15753.4197   2.0000                                                             
     2  1  1.50    -13508.1797   6.0000                                                             
     3  0  0.50     -3781.7194   2.0000                                                             
     3  1  1.50     -3138.2529   6.0000                                                             
     3  2  2.50     -2483.2977  10.0000                                                             
     4  0  0.50      -856.2895   2.0000                                                             
     4  1  1.50      -645.4943   6.0000                                                             
     4  2  2.50      -401.8768  10.0000                                                             
     4  3  3.50      -132.9059  14.0000                                                             
     5  0  0.50      -144.0950   2.0000                                                             
     5  1  1.50       -85.7879   6.0000                                                             
     5  2  2.50       -21.1769  10.0000                                                             
     6  0  0.50       -12.0372   2.0000                                                             
     6  1  1.50        -3.4971   2.0000                                                             
     6  2  2.50        -1.3606   0.0000                                                             
     5  3  2.50        -2.7212   0.0000                                                             
   Description                                                                                      
     l       E           TYP  RCUT    TYP  RCUT                                                     
     0    -12.0371566     23  3.100                                                                 
     0    -13.3977392     23  3.100                                                                 
     1     -3.4971341     23  3.100                                                                 
     1     -5.4423304     23  3.100                                                                 
     2     -1.3605826     23  3.100                                                                 
     3     -1.3605826     23  3.100                                                                 
  local pseudopotential read in
  partial core-charges read in
  partial kinetic energy density read in
  atomic valenz-charges read in
  non local Contribution for L=            0  read in
    real space projection operators read in
  non local Contribution for L=            0  read in
    real space projection operators read in
  non local Contribution for L=            1  read in
    real space projection operators read in
  non local Contribution for L=            1  read in
    real space projection operators read in
  non local Contribution for L=            2  read in
    real space projection operators read in
    PAW grid and wavefunctions read in
 
   number of l-projection  operators is LMAX  =            5
   number of lm-projection operators is LMMAX =           13
 
 Optimization of the real space projectors (new method)

 maximal supplied QI-value         = 34.20
 optimisation between [QCUT,QGAM] = [ 11.29, 22.57] = [ 35.68,142.71] Ry 
 Optimized for a Real-space Cutoff    1.16 Angstroem

   l    n(q)    QCUT    max X(q) W(low)/X(q) W(high)/X(q)  e(spline) 
   0      8    11.287    19.460    0.40E-03    0.73E-03    0.16E-06
   0      8    11.287    12.209    0.38E-03    0.70E-03    0.15E-06
   1      7    11.287     4.655    0.22E-03    0.25E-04    0.22E-06
 Optimization of the real space projectors (new method)

 maximal supplied QI-value         = 25.13
 optimisation between [QCUT,QGAM] = [ 11.31, 22.87] = [ 35.82,146.48] Ry 
 Optimized for a Real-space Cutoff    1.00 Angstroem

   l    n(q)    QCUT    max X(q) W(low)/X(q) W(high)/X(q)  e(spline) 
   0      7    11.310   115.676    0.43E-03    0.13E-02    0.19E-06
   0      7    11.310    87.132    0.43E-03    0.13E-02    0.18E-06
   1      6    11.310     4.429    0.42E-03    0.74E-03    0.11E-06
   1      6    11.310     2.733    0.34E-03    0.55E-03    0.92E-07
 Optimization of the real space projectors (new method)

 maximal supplied QI-value         = 25.13
 optimisation between [QCUT,QGAM] = [ 11.31, 22.87] = [ 35.82,146.48] Ry 
 Optimized for a Real-space Cutoff    1.27 Angstroem

   l    n(q)    QCUT    max X(q) W(low)/X(q) W(high)/X(q)  e(spline) 
   0      9    11.310    79.467    0.75E-04    0.16E-03    0.36E-06
   0      9    11.310    66.151    0.74E-04    0.16E-03    0.36E-06
   1      8    11.310    17.416    0.35E-03    0.12E-03    0.95E-06
   1      8    11.310    12.382    0.37E-03    0.13E-03    0.98E-06
 Optimization of the real space projectors (new method)

 maximal supplied QI-value         = 16.25
 optimisation between [QCUT,QGAM] = [ 11.38, 22.75] = [ 36.24,144.96] Ry 
 Optimized for a Real-space Cutoff    1.31 Angstroem

   l    n(q)    QCUT    max X(q) W(low)/X(q) W(high)/X(q)  e(spline) 
   0      9    11.376   194.483    0.24E-03    0.23E-03    0.67E-07
   0      9    11.376   190.334    0.23E-03    0.22E-03    0.65E-07
   1      8    11.376   116.687    0.25E-03    0.63E-04    0.16E-06
   1      8    11.376    88.696    0.25E-03    0.61E-04    0.16E-06
   2      8    11.376     4.877    0.17E-03    0.14E-03    0.29E-07
 Optimization of the real space projectors (new method)

 maximal supplied QI-value         = 12.09
 optimisation between [QCUT,QGAM] = [ 11.37, 22.86] = [ 36.19,146.31] Ry 
 Optimized for a Real-space Cutoff    1.66 Angstroem

   l    n(q)    QCUT    max X(q) W(low)/X(q) W(high)/X(q)  e(spline) 
   0     11    11.369   135.111    0.12E-03    0.69E-04    0.19E-05
   0     11    11.369   146.850    0.11E-03    0.65E-04    0.18E-05
   1     11    11.369   148.016    0.17E-03    0.32E-03    0.89E-06
   1     11    11.369   122.989    0.17E-03    0.32E-03    0.91E-06
   2     10    11.369     8.916    0.12E-03    0.45E-04    0.33E-06
  PAW_PBE H 15Jun2001                   :
 energy of atom  1       EATOM=  -12.4884
 kinetic energy error for atom=    0.0020 (will be added to EATOM!!)
  PAW_PBE C 08Apr2002                   :
 energy of atom  2       EATOM= -147.1560
 kinetic energy error for atom=    0.0076 (will be added to EATOM!!)
  PAW_PBE N 08Apr2002                   :
 energy of atom  3       EATOM= -264.5486
 kinetic energy error for atom=    0.0138 (will be added to EATOM!!)
  PAW_PBE I 08Apr2002                   :
 energy of atom  4       EATOM= -315.8678
 kinetic energy error for atom=    0.0009 (will be added to EATOM!!)
  PAW_PBE Pb 08Apr2002                  :
 energy of atom  5       EATOM=  -96.9868
 kinetic energy error for atom=    0.0000 (will be added to EATOM!!)
 
 
 POSCAR:  H  C  N  I Pb
  positions in cartesian coordinates
  No initial velocities read in
 exchange correlation table for  LEXCH =        8
   RHO(1)=    0.500       N(1)  =     2000
   RHO(2)=  100.500       N(2)  =     4000
 


--------------------------------------------------------------------------------------------------------


 ion  position               nearest neighbor table
   1  0.442  0.292  0.583- 187 1.03
   2  0.436  0.788  0.581- 188 0.98
   3  0.943  0.295  0.584- 189 1.04
   4  0.954  0.802  0.581- 190 0.99
   5  0.302  0.050  0.582- 194 1.06
   6  0.305  0.567  0.580- 195 1.06
   7  0.788  0.064  0.582- 196 1.06
   8  0.082  0.173  0.558- 183 1.02
   9  0.088  0.680  0.557- 184 0.99
  10  0.593  0.188  0.558- 185 0.98
  11  0.593  0.695  0.557- 186 1.03
  12  0.343  0.061  0.557- 194 0.98
  13  0.317  0.590  0.553- 195 0.98
  14  0.825  0.083  0.557- 196 0.98
  15  0.060  0.209  0.584- 183 1.02
  16  0.046  0.701  0.581- 184 1.00
  17  0.551  0.202  0.583- 185 1.04
  18  0.547  0.706  0.582- 186 1.06
  19  0.218  0.452  0.585- 191 1.06
  20  0.185  0.964  0.581- 192 1.06
  21  0.698  0.949  0.582- 193 1.06
  22  0.412  0.323  0.557- 187 1.03
  23  0.413  0.828  0.556- 188 1.03
  24  0.906  0.308  0.558- 189 1.00
  25  0.935  0.844  0.557- 190 0.99
  26  0.186  0.413  0.562- 191 0.98
  27  0.164  0.929  0.556- 192 0.98
  28  0.689  0.907  0.557- 193 0.98
  29  0.506  0.258  0.539- 146 1.09
  30  0.514  0.768  0.539- 147 1.09
  31  0.984  0.227  0.542- 144 1.06
  32  0.024  0.772  0.538- 145 1.12
  33  0.244  0.495  0.539- 148 1.11
  34  0.260  0.985  0.539- 149 1.11
  35  0.768  0.988  0.539- 150 1.11
  36  0.442  0.302  0.672- 205 0.99
  37  0.445  0.798  0.675- 206 0.98
  38  0.944  0.306  0.672- 207 0.99
  39  0.945  0.799  0.676- 208 1.06
  40  0.298  0.053  0.674- 209 0.99
  41  0.305  0.551  0.674- 210 0.98
  42  0.811  0.055  0.673- 211 0.98
  43  0.798  0.555  0.673- 212 1.02
  44  0.077  0.167  0.650- 197 1.07
  45  0.084  0.678  0.650- 198 1.07
  46  0.579  0.171  0.650- 199 1.08
  47  0.575  0.672  0.650- 200 1.01
  48  0.167  0.424  0.650- 201 1.11
  49  0.176  0.912  0.650- 202 1.11
  50  0.671  0.411  0.657- 203 0.96
  51  0.667  0.928  0.652- 204 1.11
  52  0.042  0.201  0.675- 197 1.00
  53  0.050  0.703  0.675- 198 1.01
  54  0.540  0.198  0.674- 199 1.00
  55  0.546  0.700  0.675- 200 0.99
  56  0.201  0.453  0.675- 201 0.98
  57  0.201  0.948  0.675- 202 0.99
  58  0.704  0.447  0.680- 203 1.05
  59  0.704  0.961  0.676- 204 0.98
  60  0.424  0.337  0.646- 205 1.04
  61  0.417  0.829  0.649- 206 1.03
  62  0.922  0.329  0.646- 207 1.00
  63  0.915  0.830  0.650- 208 1.03
  64  0.330  0.080  0.649- 209 1.11
  65  0.333  0.579  0.648- 210 1.04
  66  0.834  0.078  0.646- 211 1.03
  67  0.813  0.578  0.646- 212 1.05
  68  0.005  0.246  0.631- 151 1.08
  69  0.001  0.757  0.632- 152 1.14
  70  0.509  0.255  0.630- 153 1.13
  71  0.500  0.750  0.632- 154 1.13
  72  0.254  0.993  0.631- 156 1.13
  73  0.248  0.500  0.631- 155 1.12
  74  0.747  1.000  0.631- 158 1.13
  75  0.730  0.485  0.634- 157 1.11
  76  0.449  0.301  0.769- 221 1.02
  77  0.449  0.801  0.769- 222 1.02
  78  0.949  0.301  0.769- 223 1.02
  79  0.949  0.801  0.769- 224 1.02
  80  0.301  0.051  0.769- 225 1.02
  81  0.301  0.551  0.769- 226 1.02
  82  0.801  0.051  0.769- 227 1.02
  83  0.801  0.551  0.769- 228 1.02
  84  0.079  0.171  0.743- 213 1.02
  85  0.079  0.671  0.743- 214 1.02
  86  0.579  0.171  0.743- 215 1.02
  87  0.579  0.671  0.743- 216 1.02
  88  0.171  0.421  0.743- 217 1.02
  89  0.171  0.921  0.743- 218 1.02
  90  0.671  0.421  0.743- 219 1.02
  91  0.671  0.921  0.743- 220 1.02
  92  0.051  0.199  0.769- 213 1.02
  93  0.051  0.699  0.769- 214 1.02
  94  0.551  0.199  0.769- 215 1.02
  95  0.551  0.699  0.769- 216 1.02
  96  0.199  0.449  0.769- 217 1.02
  97  0.199  0.949  0.769- 218 1.02
  98  0.699  0.449  0.769- 219 1.02
  99  0.699  0.949  0.769- 220 1.02
 100  0.421  0.329  0.743- 221 1.02
 101  0.421  0.829  0.743- 222 1.02
 102  0.921  0.329  0.743- 223 1.02
 103  0.921  0.829  0.743- 224 1.02
 104  0.329  0.079  0.743- 225 1.02
 105  0.329  0.579  0.743- 226 1.02
 106  0.829  0.079  0.743- 227 1.02
 107  0.829  0.579  0.743- 228 1.02
 108  0.000  0.250  0.726- 161 1.09
 109  0.000  0.750  0.726- 162 1.09
 110  0.500  0.250  0.726- 159 1.09
 111  0.500  0.750  0.726- 160 1.09
 112  0.250  0.000  0.726- 163 1.09
 113  0.250  0.500  0.726- 164 1.09
 114  0.750  0.000  0.726- 165 1.09
 115  0.750  0.500  0.726- 166 1.09
 116  0.782  0.530  0.526- 173 1.07
 117  0.872  0.521  0.536- 173 1.10
 118  0.774  0.631  0.542- 174 1.10
 119  0.778  0.643  0.571- 174 1.11
 120  0.689  0.477  0.564- 175 1.07
 121  0.678  0.571  0.570- 175 1.09
 122  0.805  0.437  0.574- 176 1.10
 123  0.872  0.508  0.579- 176 1.10
 124  0.854  0.395  0.549- 177 1.11
 125  0.760  0.395  0.542- 177 1.12
 126  0.781  0.402  0.505- 178 1.08
 127  0.869  0.439  0.508- 178 1.07
 128  0.910  0.639  0.540- 179 1.11
 129  0.923  0.606  0.567- 179 1.09
 130  0.882  0.692  0.563- 179 1.09
 131  0.606  0.550  0.540- 180 1.07
 132  0.670  0.499  0.526- 180 1.07
 133  0.681  0.596  0.529- 180 1.09
 134  0.726  0.480  0.601- 181 1.13
 135  0.744  0.576  0.595- 181 1.09
 136  0.807  0.531  0.611- 181 1.09
 137  0.836  0.278  0.521- 182 1.09
 138  0.840  0.297  0.494- 182 1.11
 139  0.947  0.193  0.502- 168 1.09
 140  0.966  0.420  0.521- 169 1.10
 141  0.083  0.179  0.507- 170 1.09
 142  0.099  0.406  0.526- 171 1.07
 143  0.161  0.283  0.519- 172 1.09
 144  0.991  0.238  0.558-  31 1.06 189 1.32 183 1.34
 145  0.014  0.764  0.556-  32 1.12 184 1.33 190 1.33
 146  0.504  0.253  0.556-  29 1.09 185 1.32 187 1.38
 147  0.504  0.760  0.556-  30 1.09 186 1.29 188 1.38
 148  0.251  0.500  0.557-  33 1.11 191 1.29 195 1.35
 149  0.255  0.993  0.556-  34 1.11 192 1.32 194 1.32
 150  0.758  0.994  0.556-  35 1.11 196 1.31 193 1.32
 151  1.000  0.249  0.648-  68 1.08 197 1.27 207 1.34
 152  0.000  0.754  0.650-  69 1.14 198 1.27 208 1.32
 153  0.502  0.253  0.648-  70 1.13 199 1.26 205 1.36
 154  0.499  0.749  0.650-  71 1.13 200 1.30 206 1.36
 155  0.249  0.501  0.649-  73 1.12 201 1.27 210 1.37
 156  0.252  0.996  0.649-  72 1.13 202 1.27 209 1.29
 157  0.742  0.494  0.651-  75 1.11 212 1.28 203 1.35
 158  0.751  0.002  0.649-  74 1.13 204 1.27 211 1.36
 159  0.500  0.250  0.743- 110 1.09 221 1.31 215 1.31
 160  0.500  0.750  0.743- 111 1.09 222 1.31 216 1.31
 161  1.000  0.250  0.743- 108 1.09 223 1.31 213 1.31
 162  1.000  0.750  0.743- 109 1.09 224 1.31 214 1.31
 163  0.250  0.000  0.743- 112 1.09 225 1.31 218 1.31
 164  0.250  0.500  0.743- 113 1.09 226 1.31 217 1.31
 165  0.750  0.000  0.743- 114 1.09 227 1.31 220 1.31
 166  0.750  0.500  0.743- 115 1.09 228 1.31 219 1.31
 167  0.947  0.307  0.511- 168 1.35 169 1.42 182 1.57
 168  0.979  0.241  0.507- 139 1.09 167 1.35 170 1.43
 169  0.993  0.367  0.517- 140 1.10 171 1.36 167 1.42
 170  0.058  0.233  0.509- 141 1.09 172 1.38 168 1.43
 171  0.067  0.360  0.520- 142 1.07 169 1.36 172 1.42
 172  0.102  0.290  0.516- 143 1.09 170 1.38 171 1.42
 173  0.814  0.504  0.538- 116 1.07 117 1.10 229 1.47 177 1.59
 174  0.804  0.614  0.557- 118 1.10 119 1.11 229 1.52 179 1.55
 175  0.699  0.531  0.558- 120 1.07 121 1.09 229 1.49 180 1.49
 176  0.812  0.495  0.578- 122 1.10 123 1.10 181 1.50 229 1.56
 177  0.816  0.417  0.537- 124 1.11 125 1.12 178 1.50 173 1.59
 178  0.831  0.399  0.514- 127 1.07 126 1.08 177 1.50 182 1.62
 179  0.887  0.638  0.556- 130 1.09 129 1.09 128 1.11 174 1.55
 180  0.664  0.545  0.537- 131 1.07 132 1.07 133 1.09 175 1.49
 181  0.770  0.522  0.598- 135 1.09 136 1.09 134 1.13 176 1.50
 182  0.860  0.316  0.510- 137 1.09 138 1.11 167 1.57 178 1.62
 183  0.048  0.203  0.568-   8 1.02  15 1.02 144 1.34
 184  0.052  0.710  0.565-   9 0.99  16 1.00 145 1.33
 185  0.552  0.209  0.566-  10 0.98  17 1.04 146 1.32
 186  0.550  0.717  0.566-  11 1.03  18 1.06 147 1.29
 187  0.448  0.291  0.566-  22 1.03   1 1.03 146 1.38
 188  0.445  0.794  0.565-   2 0.98  23 1.03 147 1.38
 189  0.944  0.283  0.568-  24 1.00   3 1.04 144 1.32
 190  0.963  0.806  0.565-  25 0.99   4 0.99 145 1.33
 191  0.216  0.452  0.568-  26 0.98  19 1.06 148 1.29
 192  0.197  0.960  0.565-  27 0.98  20 1.06 149 1.32
 193  0.712  0.947  0.565-  28 0.98  21 1.06 150 1.32
 194  0.303  0.038  0.565-  12 0.98   5 1.06 149 1.32
 195  0.294  0.556  0.563-  13 0.98   6 1.06 148 1.35
 196  0.792  0.051  0.565-  14 0.98   7 1.06 150 1.31
 197  0.041  0.205  0.659-  52 1.00  44 1.07 151 1.27
 198  0.046  0.711  0.659-  53 1.01  45 1.07 152 1.27
 199  0.540  0.206  0.658-  54 1.00  46 1.08 153 1.26
 200  0.544  0.705  0.660-  55 0.99  47 1.01 154 1.30
 201  0.205  0.459  0.659-  56 0.98  48 1.11 155 1.27
 202  0.209  0.952  0.659-  57 0.99  49 1.11 156 1.27
 203  0.702  0.447  0.663-  50 0.96  58 1.05 157 1.35
 204  0.707  0.964  0.661-  59 0.98  51 1.11 158 1.27
 205  0.452  0.301  0.657-  36 0.99  60 1.04 153 1.36
 206  0.449  0.796  0.659-  37 0.98  61 1.03 154 1.36
 207  0.952  0.298  0.656-  38 0.99  62 1.00 151 1.34
 208  0.950  0.797  0.659-  63 1.03  39 1.06 152 1.32
 209  0.294  0.044  0.659-  40 0.99  64 1.11 156 1.29
 210  0.300  0.547  0.658-  41 0.98  65 1.04 155 1.37
 211  0.804  0.048  0.657-  42 0.98  66 1.03 158 1.36
 212  0.787  0.544  0.657-  43 1.02  67 1.05 157 1.28
 213  0.046  0.204  0.753-  92 1.02  84 1.02 161 1.31
 214  0.046  0.704  0.753-  93 1.02  85 1.02 162 1.31
 215  0.546  0.204  0.753-  94 1.02  86 1.02 159 1.31
 216  0.546  0.704  0.753-  95 1.02  87 1.02 160 1.31
 217  0.204  0.454  0.753-  96 1.02  88 1.02 164 1.31
 218  0.204  0.954  0.753-  97 1.02  89 1.02 163 1.31
 219  0.704  0.454  0.753-  98 1.02  90 1.02 166 1.31
 220  0.704  0.954  0.753-  99 1.02  91 1.02 165 1.31
 221  0.454  0.296  0.753-  76 1.02 100 1.02 159 1.31
 222  0.454  0.796  0.753-  77 1.02 101 1.02 160 1.31
 223  0.954  0.296  0.753-  78 1.02 102 1.02 161 1.31
 224  0.954  0.796  0.753-  79 1.02 103 1.02 162 1.31
 225  0.296  0.046  0.753-  80 1.02 104 1.02 163 1.31
 226  0.296  0.546  0.753-  81 1.02 105 1.02 164 1.31
 227  0.796  0.046  0.753-  82 1.02 106 1.02 165 1.31
 228  0.796  0.546  0.753-  83 1.02 107 1.02 166 1.31
 229  0.782  0.533  0.558- 173 1.47 175 1.49 174 1.52 176 1.56
 230  0.498  0.003  0.552- 304 3.16
 231  0.483  0.485  0.554- 305 3.12
 232  0.999  0.000  0.552- 302 3.24
 233  0.015  0.500  0.556- 303 3.09
 234  0.262  0.247  0.554- 306 3.11
 235  0.251  0.756  0.552- 307 3.15
 236  0.737  0.235  0.555- 308 3.13
 237  0.735  0.766  0.548- 309 3.53
 238  0.999  0.000  0.654- 310 3.16 302 3.18
 239  0.003  0.498  0.656- 311 3.07 303 3.14
 240  0.501  0.000  0.655- 312 3.11 304 3.25
 241  0.499  0.498  0.655- 313 3.14 305 3.20
 242  0.250  0.246  0.655- 314 3.11 306 3.20
 243  0.249  0.750  0.654- 315 3.19 307 3.20
 244  0.746  0.246  0.655- 316 3.11 308 3.13
 245  0.749  0.751  0.655- 317 3.14 309 3.14
 246  0.146  0.106  0.608- 306 3.19 302 3.27
 247  0.148  0.609  0.608- 307 3.13 303 3.17
 248  0.646  0.109  0.609- 308 3.19 304 3.36
 249  0.627  0.623  0.612- 305 3.24 309 3.35
 250  0.358  0.394  0.609- 305 3.21 306 3.31
 251  0.357  0.894  0.609- 304 3.17 307 3.30
 252  0.873  0.378  0.612- 308 3.21 303 3.36
 253  0.858  0.896  0.608- 309 3.16 302 3.18
 254  0.111  0.353  0.608- 306 3.15 303 3.24
 255  0.105  0.858  0.608- 302 3.17 307 3.24
 256  0.612  0.364  0.607- 305 3.23 308 3.27
 257  0.605  0.861  0.609- 304 3.18 309 3.24
 258  0.395  0.144  0.609- 304 3.23 306 3.24
 259  0.394  0.641  0.608- 305 3.17 307 3.32
 260  0.890  0.142  0.609- 308 3.15 302 3.31
 261  0.906  0.657  0.612- 309 3.38 303 3.41
 262  0.000  0.000  0.755- 310 3.13 318 3.27
 263  0.000  0.500  0.755- 311 3.13 319 3.27
 264  0.500  0.000  0.755- 312 3.13 320 3.27
 265  0.500  0.500  0.755- 313 3.13 321 3.27
 266  0.250  0.250  0.755- 314 3.13 322 3.27
 267  0.250  0.750  0.755- 315 3.13 323 3.27
 268  0.750  0.250  0.755- 316 3.13 324 3.27
 269  0.750  0.750  0.755- 317 3.13 325 3.27
 270  0.136  0.114  0.705- 310 3.20 314 3.20
 271  0.136  0.614  0.705- 311 3.20 315 3.20
 272  0.636  0.114  0.705- 312 3.20 316 3.20
 273  0.636  0.614  0.705- 313 3.20 317 3.20
 274  0.364  0.386  0.705- 313 3.20 314 3.20
 275  0.364  0.886  0.705- 312 3.20 315 3.20
 276  0.864  0.386  0.705- 311 3.20 316 3.20
 277  0.864  0.886  0.705- 310 3.20 317 3.20
 278  0.114  0.364  0.705- 314 3.21 311 3.21
 279  0.114  0.864  0.705- 315 3.21 310 3.21
 280  0.614  0.364  0.705- 316 3.21 313 3.21
 281  0.614  0.864  0.705- 317 3.21 312 3.21
 282  0.386  0.136  0.705- 314 3.21 312 3.21
 283  0.386  0.636  0.705- 315 3.21 313 3.21
 284  0.886  0.136  0.705- 316 3.21 310 3.21
 285  0.886  0.636  0.705- 317 3.21 311 3.21
 286  0.135  0.115  0.801- 318 3.22 322 3.22
 287  0.135  0.615  0.801- 319 3.22 323 3.22
 288  0.635  0.115  0.801- 320 3.22 324 3.22
 289  0.635  0.615  0.801- 321 3.22 325 3.22
 290  0.365  0.385  0.801- 321 3.22 322 3.22
 291  0.365  0.885  0.801- 320 3.22 323 3.22
 292  0.865  0.385  0.801- 319 3.22 324 3.22
 293  0.865  0.885  0.801- 318 3.22 325 3.22
 294  0.115  0.365  0.801- 319 3.23 322 3.23
 295  0.115  0.865  0.801- 318 3.23 323 3.23
 296  0.615  0.365  0.801- 321 3.23 324 3.23
 297  0.615  0.865  0.801- 320 3.23 325 3.23
 298  0.385  0.135  0.801- 320 3.23 322 3.23
 299  0.385  0.635  0.801- 321 3.23 323 3.23
 300  0.885  0.135  0.801- 318 3.23 324 3.23
 301  0.885  0.635  0.801- 319 3.23 325 3.23
 302  0.001  0.998  0.603- 255 3.17 238 3.18 253 3.18 232 3.24 246 3.27 260 3.31
 303  0.011  0.501  0.606- 233 3.09 239 3.14 247 3.17 254 3.24 252 3.36 261 3.41
 304  0.497  0.999  0.603- 230 3.16 251 3.17 257 3.18 258 3.23 240 3.25 248 3.36
 305  0.499  0.501  0.603- 231 3.12 259 3.17 241 3.20 250 3.21 256 3.23 249 3.24
 306  0.250  0.248  0.604- 234 3.11 254 3.15 246 3.19 242 3.20 258 3.24 250 3.31
 307  0.247  0.750  0.603- 247 3.13 235 3.15 243 3.20 255 3.24 251 3.30 259 3.32
 308  0.753  0.249  0.605- 236 3.13 244 3.13 260 3.15 248 3.19 252 3.21 256 3.27
 309  0.751  0.758  0.604- 245 3.14 253 3.16 257 3.24 249 3.35 261 3.38 237 3.53
 310  0.000  0.000  0.705- 262 3.13 238 3.16 270 3.20 277 3.20 279 3.21 284 3.21
 311  0.000  0.500  0.705- 239 3.07 263 3.13 271 3.20 276 3.20 278 3.21 285 3.21
 312  0.500  0.000  0.705- 240 3.11 264 3.13 272 3.20 275 3.20 281 3.21 282 3.21
 313  0.500  0.500  0.705- 265 3.13 241 3.14 273 3.20 274 3.20 280 3.21 283 3.21
 314  0.250  0.250  0.705- 242 3.11 266 3.13 270 3.20 274 3.20 282 3.21 278 3.21
 315  0.250  0.750  0.705- 267 3.13 243 3.19 271 3.20 275 3.20 283 3.21 279 3.21
 316  0.750  0.250  0.705- 244 3.11 268 3.13 272 3.20 276 3.20 284 3.21 280 3.21
 317  0.750  0.750  0.705- 269 3.13 245 3.14 273 3.20 277 3.20 285 3.21 281 3.21
 318  0.000  0.000  0.807- 286 3.22 293 3.22 300 3.23 295 3.23 262 3.27
 319  0.000  0.500  0.807- 287 3.22 292 3.22 301 3.23 294 3.23 263 3.27
 320  0.500  0.000  0.807- 288 3.22 291 3.22 298 3.23 297 3.23 264 3.27
 321  0.500  0.500  0.807- 289 3.22 290 3.22 299 3.23 296 3.23 265 3.27
 322  0.250  0.250  0.807- 290 3.22 286 3.22 294 3.23 298 3.23 266 3.27
 323  0.250  0.750  0.807- 291 3.22 287 3.22 299 3.23 295 3.23 267 3.27
 324  0.750  0.250  0.807- 292 3.22 288 3.22 296 3.23 300 3.23 268 3.27
 325  0.750  0.750  0.807- 293 3.22 289 3.22 297 3.23 301 3.23 269 3.27
 

IMPORTANT INFORMATION: All symmetrisations will be switched off!
NOSYMM: (Re-)initialisation of all symmetry stuff for point group C_1.


----------------------------------------------------------------------------------------

                                     Primitive cell                                     

  volume of cell :   20385.2105

  direct lattice vectors                    reciprocal lattice vectors
    18.060800552  0.000000000  0.000000000     0.055368531  0.000015077 -0.000000000
    -0.004918649 18.062799454  0.000000000     0.000000000  0.055362404  0.000000000
     0.000000000  0.000000000 62.487499237     0.000000000 -0.000000000  0.016003201

  length of vectors
    18.060800552 18.062800123 62.487499237     0.055368533  0.055362404  0.016003201

  position of ions in fractional coordinates (direct lattice)
     0.441511964  0.291887902  0.582729712
     0.436030966  0.787992831  0.580844692
     0.943300820  0.295491081  0.583911711
     0.953668603  0.801605504  0.580837976
     0.302175189  0.050429917  0.581688488
     0.304609127  0.567090305  0.579732042
     0.787560022  0.063747715  0.581572559
     0.082117002  0.172524136  0.558476021
     0.088047129  0.680022690  0.556875603
     0.592935031  0.187678146  0.557853216
     0.592996964  0.695063911  0.557028588
     0.343305894  0.060572844  0.556945808
     0.317335632  0.590378052  0.553249573
     0.824813824  0.083146641  0.556829451
     0.059649645  0.208673192  0.583836501
     0.045589057  0.700547956  0.580723513
     0.551355520  0.202051449  0.582532346
     0.546942038  0.705958506  0.582367579
     0.218466094  0.451528488  0.585130583
     0.185008513  0.963798658  0.581381847
     0.698320520  0.948658177  0.581603694
     0.412162093  0.322729522  0.557387668
     0.412690480  0.828423833  0.556057446
     0.906024811  0.307588936  0.558244468
     0.935119833  0.843705864  0.556804971
     0.186350097  0.412718534  0.561671912
     0.163866591  0.928599205  0.556450836
     0.688868431  0.906619389  0.556877068
     0.506346535  0.257960072  0.538749297
     0.514197697  0.767748080  0.538736111
     0.983713656  0.226702882  0.541886582
     0.023650768  0.771900513  0.538103477
     0.244428004  0.494778307  0.539124250
     0.259728136  0.984609575  0.538538561
     0.767599935  0.988213423  0.538763277
     0.442296127  0.302082743  0.672160869
     0.444637614  0.798122545  0.674557039
     0.943714831  0.305636767  0.671791105
     0.944735404  0.798768050  0.675697648
     0.298437839  0.053456166  0.674282997
     0.304982821  0.550619692  0.673825203
     0.811100210  0.054818132  0.672844050
     0.797916344  0.554923972  0.672951798
     0.077307412  0.167486826  0.650435881
     0.084375893  0.678387757  0.649586346
     0.578848121  0.171461543  0.649627065
     0.575360936  0.671748551  0.650417262
     0.167191752  0.423658033  0.649894941
     0.175578896  0.912370808  0.649555517
     0.671177715  0.410744929  0.656529263
     0.666804066  0.928407873  0.651805723
     0.041970167  0.200862577  0.674650258
     0.050027309  0.703086680  0.674897317
     0.539852904  0.197602966  0.674156385
     0.545969643  0.700272616  0.675354134
     0.200959602  0.453209356  0.675031987
     0.200995739  0.947860424  0.674866000
     0.704213140  0.447373203  0.680139210
     0.704216803  0.960976429  0.676189934
     0.423861274  0.336691478  0.646293695
     0.417272568  0.829323084  0.648984663
     0.922490673  0.328648857  0.645964040
     0.915356822  0.829975558  0.650063737
     0.329601953  0.079783480  0.648602629
     0.332619446  0.579080980  0.648020542
     0.834351235  0.077841270  0.646448939
     0.813101589  0.578391759  0.646062448
     0.004854341  0.245803216  0.630892055
     0.001122255  0.756585537  0.631687014
     0.509103281  0.254972039  0.630248555
     0.500014324  0.750405724  0.631610339
     0.254024247  0.992860992  0.631399176
     0.247705161  0.500341918  0.631185693
     0.746836413  0.999826697  0.631418284
     0.730388857  0.485359883  0.634091670
     0.448745018  0.301283966  0.768889017
     0.448745007  0.801283913  0.768889017
     0.948744965  0.301283966  0.768889017
     0.948745007  0.801283913  0.768889017
     0.301275995  0.051294496  0.768872961
     0.301276011  0.551294499  0.768872961
     0.801275943  0.051294496  0.768872961
     0.801275984  0.551294499  0.768872961
     0.078771004  0.171180501  0.743441971
     0.078771006  0.671180448  0.743441971
     0.578771004  0.171180501  0.743441971
     0.578770992  0.671180448  0.743441971
     0.171199499  0.421174482  0.743421032
     0.171199501  0.921174508  0.743421032
     0.671199512  0.421174482  0.743421032
     0.671199501  0.921174508  0.743421032
     0.051256000  0.198714991  0.768889017
     0.051256002  0.698714925  0.768889017
     0.551256027  0.198714991  0.768889017
     0.551256016  0.698714925  0.768889017
     0.198723491  0.448703970  0.768872046
     0.198723493  0.948703970  0.768872046
     0.698723518  0.448703970  0.768872046
     0.698723507  0.948703970  0.768872046
     0.421231519  0.328817467  0.743441971
     0.421231508  0.828817440  0.743441971
     0.921231466  0.328817467  0.743441971
     0.921231508  0.828817440  0.743441971
     0.328800503  0.078824997  0.743421032
     0.328800492  0.578824964  0.743421032
     0.828800477  0.078824997  0.743421032
     0.828800519  0.578824964  0.743421032
     0.000003500  0.250001478  0.725821992
     0.000003500  0.750001452  0.725821992
     0.500003506  0.250001478  0.725821992
     0.500003495  0.750001452  0.725821992
     0.250000502  0.000000000  0.725803983
     0.250000517  0.500000000  0.725803983
     0.750000502  0.000000000  0.725803983
     0.750000490  0.500000000  0.725803983
     0.781854487  0.529642161  0.525773740
     0.872463341  0.520822728  0.536071088
     0.774210461  0.631335658  0.542372580
     0.777818959  0.642614304  0.570852459
     0.688687696  0.476890129  0.564276803
     0.678249678  0.571228166  0.569553859
     0.805320299  0.436653871  0.574207378
     0.872093076  0.508389766  0.578680013
     0.854355380  0.394647068  0.549447421
     0.759785082  0.395065120  0.541950132
     0.780805698  0.402236711  0.504835623
     0.869031019  0.439054371  0.507993023
     0.909742552  0.639339051  0.539606829
     0.923326399  0.606094819  0.566565407
     0.882473253  0.692405336  0.563430381
     0.605907489  0.549667802  0.540054551
     0.669805161  0.498850436  0.526177385
     0.680828661  0.596452375  0.528792716
     0.725929134  0.480362317  0.601357339
     0.744136618  0.576057203  0.595002919
     0.807457812  0.530589880  0.611255926
     0.836283198  0.277695985  0.521406595
     0.840246994  0.296667361  0.494191526
     0.947338558  0.192956121  0.501844455
     0.965813184  0.419558476  0.520875055
     0.082989808  0.178592031  0.506609904
     0.099429896  0.405519171  0.526012130
     0.160762295  0.282682544  0.518638829
     0.991475818  0.237707744  0.558342144
     0.013794494  0.763888357  0.555722907
     0.504115928  0.252820902  0.556111595
     0.504432242  0.759530065  0.555785175
     0.250637570  0.500017898  0.556717918
     0.254611436  0.992912087  0.556090839
     0.758475744  0.994216156  0.556250966
     0.999569587  0.248637529  0.648161501
     0.000471627  0.753647925  0.649911362
     0.502229423  0.252849439  0.648171329
     0.499108948  0.749412335  0.649684266
     0.249119297  0.500553003  0.649165119
     0.251777987  0.995683763  0.649486167
     0.741674714  0.493877895  0.651304768
     0.750965684  0.002277638  0.649383364
     0.499988984  0.249994984  0.743277021
     0.499989025  0.749994958  0.743277021
     0.999988984  0.249994984  0.743277021
     0.999989025  0.749994958  0.743277021
     0.250000502  0.000001000  0.743255960
     0.250000517  0.500001003  0.743255960
     0.750000502  0.000001000  0.743255960
     0.750000491  0.500001003  0.743255960
     0.946655583  0.306912017  0.510732188
     0.979404457  0.241021592  0.506864685
     0.992911250  0.366915840  0.517005263
     0.057811110  0.232640855  0.509117394
     0.067284054  0.359785431  0.520146699
     0.101779374  0.290484275  0.515775464
     0.814374496  0.504414416  0.538016301
     0.804011941  0.614287597  0.556964793
     0.699318006  0.531008144  0.558011206
     0.812455642  0.495208292  0.578385826
     0.815574528  0.416650511  0.537291364
     0.830882406  0.399485133  0.514258864
     0.886606208  0.638001368  0.556113427
     0.664032456  0.545345677  0.536778688
     0.770413054  0.522223820  0.597596089
     0.860488564  0.316311011  0.509993698
     0.047844908  0.202946239  0.567906069
     0.052470347  0.710377410  0.565165469
     0.551987428  0.209448170  0.565968669
     0.550204204  0.717264078  0.565740291
     0.448308650  0.291399022  0.566308398
     0.445018615  0.794331301  0.565430964
     0.943571869  0.282918549  0.567662490
     0.963112464  0.806453812  0.565220839
     0.216208392  0.451597389  0.568233710
     0.197289849  0.959714624  0.564853578
     0.711623279  0.946964991  0.565151306
     0.303063547  0.037793932  0.565150024
     0.293654067  0.556472212  0.563367197
     0.792335972  0.050662141  0.565110527
     0.040978042  0.204864353  0.658669706
     0.046313609  0.710744248  0.658888011
     0.540484006  0.205917720  0.658337059
     0.544252266  0.705139719  0.659618443
     0.205362933  0.458555387  0.659401725
     0.208591433  0.951576075  0.659284148
     0.702086242  0.446507796  0.663383173
     0.706876222  0.963573720  0.660502714
     0.451558431  0.300657284  0.656580787
     0.449145537  0.796300497  0.658892162
     0.951573221  0.298020751  0.656314682
     0.950217010  0.797052072  0.658872933
     0.293732121  0.044156999  0.658753219
     0.299940061  0.547441587  0.658187493
     0.803772645  0.048359822  0.657389237
     0.787165643  0.543855778  0.657263236
     0.045862501  0.204119496  0.752725994
     0.045862500  0.704119456  0.752725994
     0.545862507  0.204119496  0.752725994
     0.545862496  0.704119456  0.752725994
     0.204119002  0.454101003  0.752704994
     0.204118991  0.954100951  0.752704994
     0.704118976  0.454101003  0.752704994
     0.704118964  0.954100951  0.752704994
     0.454140018  0.295888490  0.752726971
     0.454140007  0.795888516  0.752726971
     0.954140018  0.295888490  0.752726971
     0.954140060  0.795888516  0.752726971
     0.295882492  0.045900498  0.752704994
     0.295882481  0.545900528  0.752704994
     0.795882439  0.045900498  0.752704994
     0.795882481  0.545900528  0.752704994
     0.781765867  0.533071425  0.557852239
     0.497577084  0.002817076  0.552377023
     0.483432975  0.484850227  0.553829889
     0.998640345  0.000354551  0.551638533
     0.015215372  0.499714470  0.556099996
     0.261757656  0.247000008  0.554150571
     0.251144085  0.755843201  0.552253035
     0.737058637  0.235455896  0.555176350
     0.734529972  0.765517271  0.548014883
     0.998597254  0.000149388  0.654230402
     0.002908860  0.497558529  0.655659643
     0.501003293  0.000286385  0.655026460
     0.498972104  0.497826794  0.654569765
     0.250002979  0.246127289  0.654990564
     0.249179059  0.750044957  0.653761986
     0.746397997  0.246301891  0.655010893
     0.748748693  0.751339663  0.654579654
     0.145994667  0.105683333  0.608127736
     0.148270550  0.609253706  0.608273151
     0.645782255  0.109183293  0.608893698
     0.627353104  0.622699063  0.611903760
     0.358313337  0.394213361  0.609316695
     0.357150563  0.894497730  0.608839732
     0.872665411  0.377895624  0.611808465
     0.858144596  0.896166243  0.607986656
     0.111347392  0.352586913  0.608066262
     0.104735508  0.857757920  0.608465328
     0.612412141  0.364092694  0.606545084
     0.604507259  0.860912161  0.608573199
     0.395293171  0.144216067  0.608882282
     0.393767815  0.641372185  0.607791976
     0.889580737  0.142029081  0.608768123
     0.906192874  0.656743972  0.611734171
     0.000000000  0.000000000  0.754927972
     0.000000000  0.500000000  0.754927972
     0.500000000  0.000000000  0.754927972
     0.499999989  0.500000000  0.754927972
     0.250000496  0.250000000  0.754939022
     0.250000511  0.749999974  0.754939022
     0.750000470  0.250000000  0.754939022
     0.750000458  0.749999974  0.754939022
     0.135790500  0.114209997  0.704782994
     0.135790502  0.614209984  0.704782994
     0.635790447  0.114209997  0.704782994
     0.635790488  0.614209984  0.704782994
     0.364209516  0.385789989  0.704782994
     0.364209505  0.885789963  0.704782994
     0.864209542  0.385789989  0.704782994
     0.864209531  0.885789963  0.704782994
     0.114217990  0.364218986  0.704780979
     0.114217992  0.864218986  0.704780979
     0.614218004  0.364218986  0.704780979
     0.614217992  0.864218986  0.704780979
     0.385782012  0.135781489  0.704782017
     0.385782001  0.635781489  0.704782017
     0.885781985  0.135781489  0.704782017
     0.885782027  0.635781489  0.704782017
     0.134667000  0.115332001  0.801256025
     0.134666989  0.615331988  0.801256025
     0.634666987  0.115332001  0.801256025
     0.634666976  0.615331988  0.801256025
     0.365333002  0.384667985  0.801256025
     0.365332990  0.884667959  0.801256025
     0.865332949  0.384667985  0.801256025
     0.865332938  0.884667959  0.801256025
     0.115328503  0.365337004  0.801264999
     0.115328505  0.865336978  0.801264999
     0.615328503  0.365337004  0.801264999
     0.615328492  0.865336978  0.801264999
     0.384671513  0.134662996  0.801264999
     0.384671501  0.634662970  0.801264999
     0.884671486  0.134662996  0.801264999
     0.884671528  0.634662970  0.801264999
     0.000983110  0.998079232  0.603408042
     0.010644791  0.500763402  0.605521197
     0.497063576  0.998959978  0.602952507
     0.498525269  0.501274906  0.603418543
     0.250192594  0.247767106  0.603800943
     0.247250195  0.750421246  0.602572670
     0.752507003  0.249232374  0.604902482
     0.751076860  0.758147134  0.604306354
     0.000000500  0.000000500  0.704828963
     0.000000500  0.500000475  0.704828963
     0.500000475  0.000000500  0.704828963
     0.500000464  0.500000475  0.704828963
     0.249999994  0.249999472  0.704824995
     0.250000010  0.749999498  0.704824995
     0.749999994  0.249999472  0.704824995
     0.749999983  0.749999498  0.704824995
     0.000000000  0.000000000  0.807317968
     0.000000000  0.500000000  0.807317968
     0.500000000  0.000000000  0.807317968
     0.499999989  0.500000000  0.807317968
     0.249999994  0.250000000  0.807317968
     0.250000010  0.749999974  0.807317968
     0.749999994  0.250000000  0.807317968
     0.749999983  0.749999974  0.807317968

  ion indices of the primitive-cell ions
   primitive index   ion index
                 1           1
                 2           2
                 3           3
                 4           4
                 5           5
                 6           6
                 7           7
                 8           8
                 9           9
                10          10
                11          11
                12          12
                13          13
                14          14
                15          15
                16          16
                17          17
                18          18
                19          19
                20          20
                21          21
                22          22
                23          23
                24          24
                25          25
                26          26
                27          27
                28          28
                29          29
                30          30
                31          31
                32          32
                33          33
                34          34
                35          35
                36          36
                37          37
                38          38
                39          39
                40          40
                41          41
                42          42
                43          43
                44          44
                45          45
                46          46
                47          47
                48          48
                49          49
                50          50
                51          51
                52          52
                53          53
                54          54
                55          55
                56          56
                57          57
                58          58
                59          59
                60          60
                61          61
                62          62
                63          63
                64          64
                65          65
                66          66
                67          67
                68          68
                69          69
                70          70
                71          71
                72          72
                73          73
                74          74
                75          75
                76          76
                77          77
                78          78
                79          79
                80          80
                81          81
                82          82
                83          83
                84          84
                85          85
                86          86
                87          87
                88          88
                89          89
                90          90
                91          91
                92          92
                93          93
                94          94
                95          95
                96          96
                97          97
                98          98
                99          99
               100         100
               101         101
               102         102
               103         103
               104         104
               105         105
               106         106
               107         107
               108         108
               109         109
               110         110
               111         111
               112         112
               113         113
               114         114
               115         115
               116         116
               117         117
               118         118
               119         119
               120         120
               121         121
               122         122
               123         123
               124         124
               125         125
               126         126
               127         127
               128         128
               129         129
               130         130
               131         131
               132         132
               133         133
               134         134
               135         135
               136         136
               137         137
               138         138
               139         139
               140         140
               141         141
               142         142
               143         143
               144         144
               145         145
               146         146
               147         147
               148         148
               149         149
               150         150
               151         151
               152         152
               153         153
               154         154
               155         155
               156         156
               157         157
               158         158
               159         159
               160         160
               161         161
               162         162
               163         163
               164         164
               165         165
               166         166
               167         167
               168         168
               169         169
               170         170
               171         171
               172         172
               173         173
               174         174
               175         175
               176         176
               177         177
               178         178
               179         179
               180         180
               181         181
               182         182
               183         183
               184         184
               185         185
               186         186
               187         187
               188         188
               189         189
               190         190
               191         191
               192         192
               193         193
               194         194
               195         195
               196         196
               197         197
               198         198
               199         199
               200         200
               201         201
               202         202
               203         203
               204         204
               205         205
               206         206
               207         207
               208         208
               209         209
               210         210
               211         211
               212         212
               213         213
               214         214
               215         215
               216         216
               217         217
               218         218
               219         219
               220         220
               221         221
               222         222
               223         223
               224         224
               225         225
               226         226
               227         227
               228         228
               229         229
               230         230
               231         231
               232         232
               233         233
               234         234
               235         235
               236         236
               237         237
               238         238
               239         239
               240         240
               241         241
               242         242
               243         243
               244         244
               245         245
               246         246
               247         247
               248         248
               249         249
               250         250
               251         251
               252         252
               253         253
               254         254
               255         255
               256         256
               257         257
               258         258
               259         259
               260         260
               261         261
               262         262
               263         263
               264         264
               265         265
               266         266
               267         267
               268         268
               269         269
               270         270
               271         271
               272         272
               273         273
               274         274
               275         275
               276         276
               277         277
               278         278
               279         279
               280         280
               281         281
               282         282
               283         283
               284         284
               285         285
               286         286
               287         287
               288         288
               289         289
               290         290
               291         291
               292         292
               293         293
               294         294
               295         295
               296         296
               297         297
               298         298
               299         299
               300         300
               301         301
               302         302
               303         303
               304         304
               305         305
               306         306
               307         307
               308         308
               309         309
               310         310
               311         311
               312         312
               313         313
               314         314
               315         315
               316         316
               317         317
               318         318
               319         319
               320         320
               321         321
               322         322
               323         323
               324         324
               325         325

----------------------------------------------------------------------------------------

 
 
 KPOINTS: Automatic Mesh                          

Automatic generation of k-mesh.
 Grid dimensions read from file:
 generate k-points for:    3    3    1

 Generating k-lattice:

  Cartesian coordinates                     Fractional coordinates (reciprocal lattice)
     0.018456177  0.000005026 -0.000000000     0.333333333  0.000000000  0.000000000
     0.000000000  0.018454135  0.000000000     0.000000000  0.333333333  0.000000000
     0.000000000 -0.000000000  0.016003201     0.000000000  0.000000000  1.000000000

  Length of vectors
     0.018456178  0.018454135  0.016003201

  Shift w.r.t. Gamma in fractional coordinates (k-lattice)
     0.000000000  0.000000000  0.000000000

 
 Subroutine IBZKPT returns following result:
 ===========================================
 
 Found      5 irreducible k-points:
 
 Following reciprocal coordinates:
            Coordinates               Weight
  0.000000  0.000000  0.000000      1.000000
  0.333333  0.000000  0.000000      2.000000
  0.000000  0.333333  0.000000      2.000000
  0.333333  0.333333  0.000000      2.000000
 -0.333333  0.333333  0.000000      2.000000
 
 Following cartesian coordinates:
            Coordinates               Weight
  0.000000  0.000000  0.000000      1.000000
  0.018456  0.000005  0.000000      2.000000
  0.000000  0.018454  0.000000      2.000000
  0.018456  0.018459  0.000000      2.000000
 -0.018456  0.018449  0.000000      2.000000
 


--------------------------------------------------------------------------------------------------------




 Dimension of arrays:
   k-points           NKPTS =      5   k-points in BZ     NKDIM =      5   number of bands    NBANDS=    732
   number of dos      NEDOS =    301   number of ions     NIONS =    325
   non local maximal  LDIM  =      5   non local SUM 2l+1 LMDIM =     13
   total plane-waves  NPLWV = ******
   max r-space proj   IRMAX =   3336   max aug-charges    IRDMAX=  19845
   dimension x,y,z NGX =   100 NGY =  100 NGZ =  350
   dimension x,y,z NGXF=   200 NGYF=  200 NGZF=  700
   support grid    NGXF=   200 NGYF=  200 NGZF=  700
   ions per type =             143  39  47  72  24
   NGX,Y,Z   is equivalent  to a cutoff of   9.20,  9.20,  9.31 a.u.
   NGXF,Y,Z  is equivalent  to a cutoff of  18.41, 18.41, 18.62 a.u.

 SYSTEM =  PSC                                     
 POSCAR =   H  C  N  I Pb                          

 Startparameter for this run:
   NWRITE =      2    write-flag & timer
   PREC   = normal    normal or accurate (medium, high low for compatibility)
   ISTART =      0    job   : 0-new  1-cont  2-samecut
   ICHARG =      1    charge: 1-file 2-atom 10-const
   ISPIN  =      1    spin polarized calculation?
   LNONCOLLINEAR =      F non collinear calculations
   LSORBIT =      F    spin-orbit coupling
   INIWAV =      1    electr: 0-lowe 1-rand  2-diag
   LASPH  =      F    aspherical Exc in radial PAW
 Electronic Relaxation 1
   ENCUT  =  500.0 eV  36.75 Ry    6.06 a.u.  32.93 32.93113.93*2*pi/ulx,y,z
   ENINI  =  500.0     initial cutoff
   ENAUG  =  644.9 eV  augmentation charge cutoff
   NELM   =    600;   NELMIN=  2; NELMDL=  0     # of ELM steps 
   EDIFF  = 0.1E-03   stopping-criterion for ELM
   LREAL  =      T    real-space projection
   NLSPLINE    = F    spline interpolate recip. space projectors
   LCOMPAT=      F    compatible to vasp.4.4
   GGA_COMPAT  = F    GGA compatible to vasp.4.4-vasp.4.6
   LMAXPAW     = -100 max onsite density
   LMAXMIX     =    2 max onsite mixed and CHGCAR
   VOSKOWN=      0    Vosko Wilk Nusair interpolation
   ROPT   =   -0.00050  -0.00050  -0.00050  -0.00050
   ROPT   =   -0.00050
 Ionic relaxation
   EDIFFG = 0.1E-02   stopping-criterion for IOM
   NSW    =      0    number of steps for IOM
   NBLOCK =      1;   KBLOCK =      1    inner block; outer block 
   IBRION =     -1    ionic relax: 0-MD 1-quasi-New 2-CG
   NFREE  =      0    steps in history (QN), initial steepest desc. (CG)
   ISIF   =      2    stress and relaxation
   IWAVPR =     10    prediction:  0-non 1-charg 2-wave 3-comb
   ISYM   =      0    0-nonsym 1-usesym 2-fastsym
   LCORR  =      T    Harris-Foulkes like correction to forces

   POTIM  = 0.5000    time-step for ionic-motion
   TEIN   =    0.0    initial temperature
   TEBEG  =    0.0;   TEEND  =   0.0 temperature during run
   SMASS  =  -3.00    Nose mass-parameter (am)
   estimated Nose-frequenzy (Omega)   =  0.10E-29 period in steps = 0.13E+47 mass=  -0.745E-26a.u.
   SCALEE = 1.0000    scale energy and forces
   NPACO  =    256;   APACO  = 16.0  distance and # of slots for P.C.
   PSTRESS=    0.0 pullay stress

  Mass of Ions in am
   POMASS =   1.00 12.01 14.00126.90207.20
  Ionic Valenz
   ZVAL   =   1.00  4.00  5.00  7.00  4.00
  Atomic Wigner-Seitz radii
   RWIGS  =  -1.00 -1.00 -1.00 -1.00 -1.00
  virtual crystal weights 
   VCA    =   1.00  1.00  1.00  1.00  1.00
   NELECT =    1134.0000    total number of electrons
   NUPDOWN=      -1.0000    fix difference up-down

 DOS related values:
   EMIN   =  10.00;   EMAX   =-10.00  energy-range for DOS
   EFERMI =   0.00
   ISMEAR =     0;   SIGMA  =   0.05  broadening in eV -4-tet -1-fermi 0-gaus

 Electronic relaxation 2 (details)
   IALGO  =     38    algorithm
   LDIAG  =      T    sub-space diagonalisation (order eigenvalues)
   LSUBROT=      F    optimize rotation matrix (better conditioning)
   TURBO    =      0    0=normal 1=particle mesh
   IRESTART =      0    0=no restart 2=restart with 2 vectors
   NREBOOT  =      0    no. of reboots
   NMIN     =      0    reboot dimension
   EREF     =   0.00    reference energy to select bands
   IMIX   =      4    mixing-type and parameters
     AMIX     =   0.40;   BMIX     =  0.01
     AMIX_MAG =   1.60;   BMIX_MAG =  0.01
     AMIN     =   0.01
     WC   =   100.;   INIMIX=   1;  MIXPRE=   1;  MAXMIX= -45

 Intra band minimization:
   WEIMIN = 0.0000     energy-eigenvalue tresh-hold
   EBREAK =  0.34E-07  absolut break condition
   DEPER  =   0.30     relativ break condition  

   TIME   =   0.40     timestep for ELM

  volume/ion in A,a.u.               =      62.72       423.28
  Fermi-wavevector in a.u.,A,eV,Ry     =   0.624944  1.180972  5.313816  0.390554
  Thomas-Fermi vector in A             =   1.685677
 
 Write flags
   LWAVE        =      F    write WAVECAR
   LDOWNSAMPLE  =      F    k-point downsampling of WAVECAR
   LCHARG       =      T    write CHGCAR
   LVTOT        =      T    write LOCPOT, total local potential
   LVHAR        =      F    write LOCPOT, Hartree potential only
   LELF         =      F    write electronic localiz. function (ELF)
   LORBIT       =      0    0 simple, 1 ext, 2 COOP (PROOUT), +10 PAW based schemes


 Dipole corrections
   LMONO  =      F    monopole corrections only (constant potential shift)
   LDIPOL =      T    correct potential (dipole corrections)
   IDIPOL =      3    1-x, 2-y, 3-z, 4-all directions 
   EPSILON=  1.0000000 bulk dielectric constant

 Exchange correlation treatment:
   GGA     =    --    GGA type
   LEXCH   =     8    internal setting for exchange type
   VOSKOWN=      0    Vosko Wilk Nusair interpolation
   LHFCALC =     F    Hartree Fock is set to
   LHFONE  =     F    Hartree Fock one center treatment
   AEXX    =    0.0000 exact exchange contribution

 Linear response parameters
   LEPSILON=     F    determine dielectric tensor
   LRPA    =     F    only Hartree local field effects (RPA)
   LNABLA  =     F    use nabla operator in PAW spheres
   LVEL    =     F    velocity operator in full k-point grid
   LINTERFAST=   F  fast interpolation
   KINTER  =     0    interpolate to denser k-point grid
   CSHIFT  =0.1000    complex shift for real part using Kramers Kronig
   OMEGAMAX=  -1.0    maximum frequency
   DEG_THRESHOLD= 0.2000000E-02 threshold for treating states as degnerate
   RTIME   =   -0.100 relaxation time in fs
  (WPLASMAI=    0.000 imaginary part of plasma frequency in eV, 0.658/RTIME)
   DFIELD  = 0.0000000 0.0000000 0.0000000 field for delta impulse in time
 
 Orbital magnetization related:
   ORBITALMAG=     F  switch on orbital magnetization
   LCHIMAG   =     F  perturbation theory with respect to B field
   DQ        =  0.001000  dq finite difference perturbation B field
   LLRAUG    =     F  two centre corrections for induced B field



--------------------------------------------------------------------------------------------------------


 Static calculation
 charge density and potential will be updated during run
 non-spin polarized calculation
 Variant of blocked Davidson
 Davidson routine will perform the subspace rotation
 perform sub-space diagonalisation
    after iterative eigenvector-optimisation
 modified Broyden-mixing scheme, WC =      100.0
 initial mixing is a Kerker type mixing with AMIX =  0.4000 and BMIX =      0.0100
 Hartree-type preconditioning will be used
 using additional bands           165
 real space projection scheme for non local part
[...]
     13.54561      0.00000     45.35368        -0.000739      0.004823      0.012299
     13.54315      9.03140     45.35368         0.004376      0.002066      0.017878
     14.11831      9.56682     32.85429        -0.306516     -0.044751     -1.038856
     15.75482      9.40752     33.49774        -0.080299      0.306294      0.377498
     13.97976     11.40369     33.89151         0.373624      0.309130      0.462314
     14.04487     11.60741     35.67114         0.138547     -0.518601     -0.495065
     12.43591      8.61397     35.26025        -0.832139     -0.874837      0.142354
     12.24692     10.31798     35.59000         0.240268      0.059201      0.227592
     14.54258      7.88719     35.88078         0.013758      0.106540      0.604176
     15.74820      9.18294     36.16027        -0.278517     -0.103823     -0.112316
     15.42840      7.12843     34.33360         0.116753      0.244490     -0.558533
     13.72038      7.13598     33.86511         0.552546      0.061569     -0.112439
     14.10000      7.26552     31.54592        -0.586953      0.349219     -0.172859
     15.69324      7.93055     31.74321         0.742482      0.561479     -0.643564
     16.42753     11.54825     33.71868        -0.229174      0.082679      0.525204
     16.67303     10.94777     35.40326        -0.225774     -0.032204     -0.200509
     15.93477     12.50678     35.20736         0.310942      0.454678     -0.327382
     10.94047      9.92854     33.74666        -0.895069      0.099016      0.026296
     12.09476      9.01064     32.87951         0.083698     -0.499363     -0.615808
     12.29338     10.77360     33.04293         0.185977      0.172317      0.005840
     13.10850      8.67669     37.57732         0.507765      0.755981      0.029686
     13.43687     10.40521     37.18024         0.194246     -0.228954     -0.079383
     14.58072      9.58394     38.19585        -0.043036     -0.217946     -0.108112
     15.10258      5.01597     32.58139        -0.250867     -0.056998      0.379919
     15.17407      5.35864     30.88079         0.172484      0.226740      0.195354
     17.10874      3.48533     31.35900        -0.108154     -0.096878      0.022189
     17.44130      7.57840     32.54818         0.284996     -0.173614     -0.096914
      1.49798      3.22587     31.65679        -0.048098     -0.135308     -0.150509
      1.79379      7.32481     32.86918         0.256315      0.454280      0.138943
      2.90211      5.10604     32.40844         0.013047      0.015466     -0.049577
     17.90568      4.29367     34.88940         0.653742     -0.006805      2.168830
      0.24538     13.79796     34.72573        -0.114462     -0.087712     -0.493985
      9.10349      4.56665     34.75002        -2.070309      1.119745      1.944274
      9.10671     13.71924     34.72963        -2.886062      1.902493      0.907930
      4.52426      9.03172     34.78791         1.425190      1.921305     -1.189966
      4.59360     17.93477     34.74873        -0.011715      0.310073     -0.945657
     13.69379     17.95833     34.75873        -0.520210     -0.238657     -0.913897
     18.05180      4.49109     40.50199        -2.090105      2.286062     -0.570593
      0.00481     13.61299     40.61134        -2.223678      2.327947     -3.225368
      9.06942      4.56717     40.50261        -2.940591      3.167993     -1.865247
      9.01062     13.53648     40.59715        -2.043212      1.965404     -0.696584
      4.49683      9.04139     40.56470         3.273728      3.003672     -1.122128
      4.54241     17.98484     40.58477         0.918247      0.924216     -2.267926
     13.39281      8.92082     40.69841        -2.631404     -2.882549     -0.836315
     13.56303      0.04114     40.57834         3.048435      2.784413     -1.441089
      9.02897      4.51561     46.44552         0.013413      0.003006      0.037639
      9.02651     13.54701     46.44552         0.004169      0.011897      0.041461
     18.05937      4.51561     46.44552         0.014095      0.002840      0.037439
     18.05691     13.54701     46.44552         0.021751     -0.005078      0.046700
      4.51521      0.00002     46.44421         0.010939      0.010198      0.045769
      4.51275      9.03142     46.44421        -0.005353     -0.006998      0.049154
     13.54561      0.00002     46.44421        -0.000127      0.002013      0.052335
     13.54315      9.03142     46.44421        -0.011426     -0.012222      0.062176
     17.09585      5.54369     31.91438        -1.501663      2.269716      0.486849
     17.68764      4.35352     31.67271         1.708236     -1.793954     -0.548432
     17.93097      6.62753     32.30637        -1.699051      0.141845      0.024982
      1.04297      4.20215     31.81347        -0.853570     -0.431449     -0.178626
      1.21343      6.49873     32.50267         1.027216     -1.404065     -0.510473
      1.83679      5.24696     32.22952        -0.258043      0.975320      0.310293
     14.70577      9.11114     33.61929         0.731404     -2.851425      0.676009
     14.51808     11.09575     34.80334         0.135560      0.088885      0.221334
     12.62763      9.59149     34.86872         0.113906      0.166249     -0.178627
     14.67116      8.94485     36.14188        -0.127180      0.479634     -1.437948
     14.72788      7.52587     33.57399        -1.505602      1.588261      0.231917
     15.00444      7.21582     32.13475         0.538252     -3.240181     -0.233121
     16.00968     11.52409     34.75014        -1.120419     -0.519811     -0.191834
     11.99028      9.85047     33.54196         0.071634      0.063281     -0.061008
     13.91171      9.43282     37.34229        -0.430327     -0.866771      0.180904
     15.53956      5.71346     31.86823         1.028936      1.221587     -0.574532
      0.86312      3.66578     35.48703        -1.195770      0.854087     -0.550586
      0.94416     12.83140     35.31578        -1.527107      1.933199     -0.707059
      9.96830      3.78322     35.36597        -2.186585      1.204897      1.350423
      9.93360     12.95580     35.35170         0.617433     -1.077803      1.376565
      8.09538      5.26348     35.38720         2.023296     -1.338075     -1.265557
      8.03349     14.34785     35.33237         2.541150     -0.867760     -3.703182
     17.04027      5.11030     35.47181         1.169435     -0.763534      0.462853
     17.39062     14.56681     35.31924         1.884048     -1.722371     -1.022335
      3.90268      8.15711     35.50750         0.903495      1.097223      2.904695
      3.55849     17.33513     35.29629         1.282419      1.389398      2.717086
     12.84783     17.10484     35.31489         0.985922      2.242284      2.267069
      5.47338      0.68266     35.31481        -2.047402     -0.938750      2.363568
      5.30089     10.05145     35.20341        -1.733613     -2.342165      2.257028
     14.30997      0.91510     35.31234        -1.324117     -1.153382      2.685495
      0.73909      3.70042     41.15862         2.528989     -2.658509     -0.259911
      0.83296     12.83803     41.17226         2.859796     -2.646968      0.126302
      9.76056      3.71945     41.13784         2.870736     -2.842348     -0.547509
      9.82616     12.73680     41.21791        -0.498679      0.477597     -1.021525
      3.70676      8.28279     41.20436        -3.191043     -2.971200     -2.309148
      3.76265     17.18813     41.19702        -3.118494     -3.540771     -2.385109
     12.67804      8.06518     41.45316         3.240474      3.711283      1.953875
     12.76201     17.40484     41.27316        -3.451565     -3.138573     -2.070538
      8.15403      5.43071     41.02809         1.578786     -1.180494     -2.645318
      8.10801     14.38342     41.17252         1.801824     -1.563122     -2.945407
     17.18471      5.38309     41.01146         1.787644     -1.860735     -1.308039
     17.15776     14.39699     41.17132         0.318297     -0.367677      1.600780
      5.30482      0.79760     41.16384         2.574308      2.500921     -2.941665
      5.41446      9.88833     41.12849        -1.618970     -1.388449     -3.199576
     14.51654      0.87351     41.07861        -1.761184     -1.520385     -2.963471
     14.21417      9.82356     41.07074         1.538974      1.890238      0.027854
      0.82731      3.68697     47.03596         0.017282     -0.023298     -0.087587
      0.82485     12.71837     47.03596         0.013738     -0.015098     -0.094326
      9.85771      3.68697     47.03596         0.019766     -0.020524     -0.084191
      9.85525     12.71837     47.03596         0.028453     -0.025105     -0.089169
      3.68432      8.20234     47.03465        -0.009080     -0.005325     -0.077508
      3.68186     17.23373     47.03465        -0.018619     -0.018206     -0.071541
     12.71472      8.20234     47.03465        -0.002848     -0.001815     -0.082355
     12.71226     17.23373     47.03465        -0.006913     -0.015631     -0.074621
      8.20068      5.34457     47.03603        -0.018480      0.019351     -0.085947
      8.19822     14.37597     47.03603        -0.014956      0.010717     -0.091806
     17.23108      5.34457     47.03603        -0.020310      0.019895     -0.090563
     17.22862     14.37597     47.03603        -0.025986      0.021347     -0.093113
      5.34365      0.82909     47.03465         0.004293      0.004176     -0.074295
      5.34119      9.86049     47.03465         0.012766      0.016183     -0.071811
     14.37405      0.82909     47.03465         0.012344      0.007008     -0.073584
     14.37159      9.86049     47.03465         0.014681      0.019545     -0.077862
     14.11670      9.62876     34.85879         1.949079      1.674984      1.185579
      8.98663      0.05088     34.51666        -0.022439     -0.017203      0.116540
      8.72880      8.75775     34.60744        -0.228144      0.051158      0.056393
     18.03624      0.00640     34.47051        -0.029390     -0.005179      0.071470
      0.27234      9.02624     34.74930         0.548989     -0.065942      0.168884
      4.72634      4.46151     34.62748        -0.120440     -0.008723     -0.039375
      4.53215     13.65264     34.50891        -0.069488     -0.006585     -0.081251
     13.31071      4.25299     34.69158         0.166810     -0.023067     -0.150998
     13.26243     13.82738     34.24408        -0.511371      1.075684      0.045197
     18.03547      0.00270     40.88122         0.086249      0.013209     -0.032204
      0.05009      8.98730     40.97053         0.002604      0.069076     -0.107134
      9.04852      0.00517     40.93097         0.026472      0.011865     -0.098483
      9.00939      8.99215     40.90243         0.035492      0.057488      0.111221
      4.51404      4.44575     40.92872        -0.043244      0.037718     -0.012663
      4.49668     13.54791     40.85195        -0.035195      0.001599      0.033249
     13.47933      4.44890     40.92999        -0.040565      0.025785      0.102380
     13.51931     13.57130     40.90305        -0.005425      0.053778     -0.279941
      2.63626      1.90894     38.00038        -0.053684     -0.141334      0.025844
      2.67489     11.00483     38.00947        -0.113417     -0.137970     -0.004414
     11.66281      1.97216     38.04824        -0.200147     -0.144185      0.002581
     11.32744     11.24769     38.23634        -0.459561      0.557646      0.157197
      6.46949      7.12060     38.07468        -0.127030     -0.102656      0.012060
      6.44603     16.15713     38.04487        -0.059401     -0.120190     -0.034391
     15.75918      6.82585     38.23038         0.355128     -0.172059      0.185846
     15.49437     16.18727     37.99157        -0.104533     -0.087154     -0.017285
      2.00929      6.36871     37.99654        -0.133222      0.239072      0.031176
      1.88739     15.49351     38.02148         0.138406     -0.041026     -0.028542
     11.05886      6.57653     37.90149         0.055703     -0.032921     -0.000694
     10.91365     15.55048     38.02822         0.277616     -0.104406      0.020319
      7.13860      2.60495     38.04753        -0.049871     -0.064516     -0.005586
      7.10861     11.58498     37.97940        -0.286492      0.261148     -0.058900
     16.06584      2.56544     38.04040         0.178015     -0.247429     -0.015994
     16.36334     11.86263     38.22574        -0.025589     -0.046109     -0.022301
      0.00000      0.00000     47.17356        -0.002037     -0.004325      0.390020
     -0.00246      9.03140     47.17356        -0.001915      0.004110      0.471873
      9.03040      0.00000     47.17356         0.000657     -0.003298      0.486430
      9.02794      9.03140     47.17356         0.003272      0.002914      0.464347
      4.51398      4.51570     47.17425        -0.001052     -0.001877      0.479084
      4.51152     13.54710     47.17425        -0.001998     -0.000264      0.379211
     13.54438      4.51570     47.17425         0.002369      0.000480      0.462732
     13.54192     13.54710     47.17425         0.003352     -0.000693      0.320838
      2.45192      2.06295     44.04013        -0.030810     -0.035233     -0.039526
      2.44946     11.09435     44.04013         0.003089      0.012506     -0.041151
     11.48232      2.06295     44.04013        -0.009045     -0.002243     -0.033073
     11.47986     11.09435     44.04013         0.054405      0.007980     -0.023351
      6.57602      6.96845     44.04013        -0.012403      0.013408     -0.025196
      6.57356     15.99985     44.04013        -0.050173      0.000908      0.010471
     15.60642      6.96845     44.04013        -0.002706      0.011039     -0.048343
     15.60396     15.99985     44.04013        -0.036430      0.002301     -0.001377
      2.06108      6.57881     44.04000        -0.009555      0.010777     -0.032142
      2.05862     15.61021     44.04000        -0.017029     -0.014467     -0.025861
     11.09148      6.57881     44.04000        -0.112487     -0.113931      0.173085
     11.08902     15.61021     44.04000         0.028101     -0.039663     -0.030044
      6.96686      2.45259     44.04007         0.017193      0.007234     -0.033429
      6.96440     11.48399     44.04007         0.018063      0.045726     -0.011736
     15.99726      2.45259     44.04007         0.039546      0.003805     -0.010350
     15.99481     11.48399     44.04007        -0.046974      0.002517     -0.103691
      2.43163      2.08322     50.06849        -0.001220     -0.022439      0.023037
      2.42917     11.11462     50.06849         0.014244     -0.003490      0.021342
     11.46203      2.08322     50.06849         0.012013     -0.011093      0.023739
     11.45957     11.11462     50.06849         0.025046      0.003858      0.020774
      6.59631      6.94818     50.06849        -0.006610      0.014655      0.024025
      6.59385     15.97958     50.06849        -0.018007      0.001335      0.022766
     15.62671      6.94818     50.06849        -0.007746      0.014086      0.022118
     15.62425     15.97958     50.06849        -0.015568      0.003241      0.019644
      2.08113      6.59901     50.06905        -0.015251     -0.004160      0.023510
      2.07867     15.63041     50.06905        -0.011743     -0.010310      0.021580
     11.11153      6.59901     50.06905        -0.009036     -0.007335      0.022512
     11.10907     15.63041     50.06905         0.006065     -0.025583      0.021786
      6.94681      2.43239     50.06905         0.012046      0.006718      0.024233
      6.94435     11.46379     50.06905         0.003892      0.017743      0.022700
     15.97721      2.43239     50.06905         0.018613      0.000384      0.022221
     15.97475     11.46379     50.06905        -0.001369      0.022852      0.020175
      0.01285     18.02811     37.70546        -0.055744      0.286343     -0.094918
      0.18979      9.04519     37.83751        -0.152519     -0.055729      0.072032
      8.97245     18.04401     37.67699         0.079457      0.187954     -0.117622
      9.00130      9.05443     37.70612         0.099821     -0.269276     -0.120086
      4.51746      4.47537     37.73001         0.290415      0.011812      0.048675
      4.46185     13.55471     37.65326         0.242996      0.174382      0.074553
     13.58965      4.50183     37.79884        -0.268266      0.129212     -0.018248
     13.56132     13.69426     37.76159        -0.131673     -0.051821      0.029825
      0.00001      0.00001     44.04300         0.029235      0.029307      0.065031
     -0.00245      9.03141     44.04300         0.024794     -0.036270      0.240603
      9.03041      0.00001     44.04300        -0.014784      0.012422      0.058480
      9.02795      9.03141     44.04300        -0.036273     -0.042222     -0.026212
      4.51397      4.51569     44.04275         0.011063      0.014548      0.060059
      4.51151     13.54709     44.04275         0.023561      0.004912      0.019855
     13.54437      4.51569     44.04275        -0.013884     -0.020338      0.083638
     13.54191     13.54709     44.04275        -0.033398      0.026911      0.247710
      0.00000      0.00000     50.44728         0.007665      0.015470     -0.621388
     -0.00246      9.03140     50.44728         0.005634     -0.016081     -0.642448
      9.03040      0.00000     50.44728        -0.004642      0.016138     -0.649189
      9.02794      9.03140     50.44728        -0.007179     -0.015177     -0.642294
      4.51397      4.51570     50.44728         0.006993      0.002990     -0.648005
      4.51151     13.54710     50.44728         0.007472     -0.001955     -0.619648
     13.54437      4.51570     50.44728        -0.006712      0.001822     -0.642350
     13.54191     13.54710     50.44728        -0.006493     -0.002707     -0.600280
 -----------------------------------------------------------------------------------
    total drift:                               -0.115536     -0.028239      0.586531


--------------------------------------------------------------------------------------------------------



  FREE ENERGIE OF THE ION-ELECTRON SYSTEM (eV)
  ---------------------------------------------------
  free  energy   TOTEN  =     -1568.20386109 eV

  energy  without entropy=    -1568.20386109  energy(sigma->0) =    -1568.20386109
 


--------------------------------------------------------------------------------------------------------


    POTLOK:  cpu time    0.5041: real time    0.5040


--------------------------------------------------------------------------------------------------------


     LOOP+:  cpu time  322.8010: real time  323.3663
 vacuum level on the upper side and lower side of the slab         2.442         1.443
    4ORBIT:  cpu time    0.0000: real time    0.0000

 total amount of memory used by VASP MPI-rank0  8653577. kBytes
=======================================================================

   base      :      30000. kBytes
   nonlr-proj:      53615. kBytes
   fftplans  :     249280. kBytes
   grid      :     701440. kBytes
   one-center:       2636. kBytes
   wavefun   :    7616606. kBytes
 
  
  
 General timing and accounting informations for this job:
 ========================================================
  
                  Total CPU time used (sec):      533.395
                            User time (sec):      428.389
                          System time (sec):      105.006
                         Elapsed time (sec):      536.492
  
                   Maximum memory used (kb):    10309424.
                   Average memory used (kb):          N/A
  
                          Minor page faults:      3756554
                          Major page faults:           14
                 Voluntary context switches:        11233
