<?xml version="1.0" encoding="ISO-8859-1"?>
<modeling>
 <generator>
  <i name="program" type="string">vasp </i>
  <i name="version" type="string">6.2.1  </i>
  <i name="subversion" type="string">16May21 (build Nov 15 2021 14:57:28) complex                          parallel </i>
  <i name="platform" type="string">LinuxPGI </i>
  <i name="date" type="string">2023 07 30 </i>
  <i name="time" type="string">09:10:42 </i>
 </generator>
 <incar>
  <i type="string" name="SYSTEM">PSC</i>
  <i type="int" name="ISTART">     1</i>
  <i type="string" name="PREC">Normal</i>
  <i name="BMIX">      0.01000000</i>
  <i name="AMIN">      0.01000000</i>
  <i type="int" name="ICHARG">     1</i>
  <i type="int" name="NELM">   600</i>
  <i type="int" name="ISYM">     0</i>
  <i name="ENCUT">    500.00000000</i>
  <i type="string" name="LREAL">Auto</i>
  <i type="int" name="ISMEAR">     0</i>
  <i name="SIGMA">      0.05000000</i>
  <i type="logical" name="LWAVE"> F  </i>
  <i type="logical" name="LVTOT"> T  </i>
  <i type="logical" name="GGA_COMPAT"> F  </i>
  <i type="logical" name="LDIPOL"> T  </i>
  <i type="int" name="IDIPOL">     3</i>
  <i type="int" name="IVDW">    12</i>
 </incar>
 <primitive_cell>
  <structure name="primitive_cell" >
   <crystal>
    <varray name="basis" >
     <v>      18.06080055       0.00000000       0.00000000 </v>
     <v>      -0.00491865      18.06279945       0.00000000 </v>
     <v>       0.00000000       0.00000000      62.48749924 </v>
    </varray>
    <i name="volume">  20385.21054034 </i>
    <varray name="rec_basis" >
     <v>       0.05536853       0.00001508      -0.00000000 </v>
     <v>       0.00000000       0.05536240       0.00000000 </v>
     <v>       0.00000000      -0.00000000       0.01600320 </v>
    </varray>
   </crystal>
   <varray name="positions" >
    <v>       0.44151196       0.29188790       0.58272971 </v>
    <v>       0.43603097       0.78799283       0.58084469 </v>
    <v>       0.94330082       0.29549108       0.58391171 </v>
    <v>       0.95366860       0.80160550       0.58083798 </v>
    <v>       0.30217519       0.05042992       0.58168849 </v>
    <v>       0.30460913       0.56709030       0.57973204 </v>
    <v>       0.78756002       0.06374772       0.58157256 </v>
    <v>       0.08211700       0.17252414       0.55847602 </v>
    <v>       0.08804713       0.68002269       0.55687560 </v>
    <v>       0.59293503       0.18767815       0.55785322 </v>
    <v>       0.59299696       0.69506391       0.55702859 </v>
    <v>       0.34330589       0.06057284       0.55694581 </v>
    <v>       0.31733563       0.59037805       0.55324957 </v>
    <v>       0.82481382       0.08314664       0.55682945 </v>
    <v>       0.05964964       0.20867319       0.58383650 </v>
    <v>       0.04558906       0.70054796       0.58072351 </v>
    <v>       0.55135552       0.20205145       0.58253235 </v>
    <v>       0.54694204       0.70595851       0.58236758 </v>
    <v>       0.21846609       0.45152849       0.58513058 </v>
    <v>       0.18500851       0.96379866       0.58138185 </v>
    <v>       0.69832052       0.94865818       0.58160369 </v>
    <v>       0.41216209       0.32272952       0.55738767 </v>
    <v>       0.41269048       0.82842383       0.55605745 </v>
    <v>       0.90602481       0.30758894       0.55824447 </v>
    <v>       0.93511983       0.84370586       0.55680497 </v>
    <v>       0.18635010       0.41271853       0.56167191 </v>
    <v>       0.16386659       0.92859920       0.55645084 </v>
    <v>       0.68886843       0.90661939       0.55687707 </v>
    <v>       0.50634653       0.25796007       0.53874930 </v>
    <v>       0.51419770       0.76774808       0.53873611 </v>
    <v>       0.98371366       0.22670288       0.54188658 </v>
    <v>       0.02365077       0.77190051       0.53810348 </v>
    <v>       0.24442800       0.49477831       0.53912425 </v>
    <v>       0.25972814       0.98460958       0.53853856 </v>
    <v>       0.76759993       0.98821342       0.53876328 </v>
    <v>       0.44229613       0.30208274       0.67216087 </v>
    <v>       0.44463761       0.79812255       0.67455704 </v>
    <v>       0.94371483       0.30563677       0.67179110 </v>
    <v>       0.94473540       0.79876805       0.67569765 </v>
    <v>       0.29843784       0.05345617       0.67428300 </v>
    <v>       0.30498282       0.55061969       0.67382520 </v>
    <v>       0.81110021       0.05481813       0.67284405 </v>
    <v>       0.79791634       0.55492397       0.67295180 </v>
    <v>       0.07730741       0.16748683       0.65043588 </v>
    <v>       0.08437589       0.67838776       0.64958635 </v>
    <v>       0.57884812       0.17146154       0.64962706 </v>
    <v>       0.57536094       0.67174855       0.65041726 </v>
    <v>       0.16719175       0.42365803       0.64989494 </v>
    <v>       0.17557890       0.91237081       0.64955552 </v>
    <v>       0.67117771       0.41074493       0.65652926 </v>
    <v>       0.66680407       0.92840787       0.65180572 </v>
    <v>       0.04197017       0.20086258       0.67465026 </v>
    <v>       0.05002731       0.70308668       0.67489732 </v>
    <v>       0.53985290       0.19760297       0.67415638 </v>
    <v>       0.54596964       0.70027262       0.67535413 </v>
    <v>       0.20095960       0.45320936       0.67503199 </v>
    <v>       0.20099574       0.94786042       0.67486600 </v>
    <v>       0.70421314       0.44737320       0.68013921 </v>
    <v>       0.70421680       0.96097643       0.67618993 </v>
    <v>       0.42386127       0.33669148       0.64629370 </v>
    <v>       0.41727257       0.82932308       0.64898466 </v>
    <v>       0.92249067       0.32864886       0.64596404 </v>
    <v>       0.91535682       0.82997556       0.65006374 </v>
    <v>       0.32960195       0.07978348       0.64860263 </v>
    <v>       0.33261945       0.57908098       0.64802054 </v>
    <v>       0.83435123       0.07784127       0.64644894 </v>
    <v>       0.81310159       0.57839176       0.64606245 </v>
    <v>       0.00485434       0.24580322       0.63089206 </v>
    <v>       0.00112225       0.75658554       0.63168701 </v>
    <v>       0.50910328       0.25497204       0.63024855 </v>
    <v>       0.50001432       0.75040572       0.63161034 </v>
    <v>       0.25402425       0.99286099       0.63139918 </v>
    <v>       0.24770516       0.50034192       0.63118569 </v>
    <v>       0.74683641       0.99982670       0.63141828 </v>
    <v>       0.73038886       0.48535988       0.63409167 </v>
    <v>       0.44874502       0.30128397       0.76888902 </v>
    <v>       0.44874501       0.80128391       0.76888902 </v>
    <v>       0.94874497       0.30128397       0.76888902 </v>
    <v>       0.94874501       0.80128391       0.76888902 </v>
    <v>       0.30127600       0.05129450       0.76887296 </v>
    <v>       0.30127601       0.55129450       0.76887296 </v>
    <v>       0.80127594       0.05129450       0.76887296 </v>
    <v>       0.80127598       0.55129450       0.76887296 </v>
    <v>       0.07877100       0.17118050       0.74344197 </v>
    <v>       0.07877101       0.67118045       0.74344197 </v>
    <v>       0.57877100       0.17118050       0.74344197 </v>
    <v>       0.57877099       0.67118045       0.74344197 </v>
    <v>       0.17119950       0.42117448       0.74342103 </v>
    <v>       0.17119950       0.92117451       0.74342103 </v>
    <v>       0.67119951       0.42117448       0.74342103 </v>
    <v>       0.67119950       0.92117451       0.74342103 </v>
    <v>       0.05125600       0.19871499       0.76888902 </v>
    <v>       0.05125600       0.69871493       0.76888902 </v>
    <v>       0.55125603       0.19871499       0.76888902 </v>
    <v>       0.55125602       0.69871493       0.76888902 </v>
    <v>       0.19872349       0.44870397       0.76887205 </v>
    <v>       0.19872349       0.94870397       0.76887205 </v>
    <v>       0.69872352       0.44870397       0.76887205 </v>
    <v>       0.69872351       0.94870397       0.76887205 </v>
    <v>       0.42123152       0.32881747       0.74344197 </v>
    <v>       0.42123151       0.82881744       0.74344197 </v>
    <v>       0.92123147       0.32881747       0.74344197 </v>
    <v>       0.92123151       0.82881744       0.74344197 </v>
    <v>       0.32880050       0.07882500       0.74342103 </v>
    <v>       0.32880049       0.57882496       0.74342103 </v>
    <v>       0.82880048       0.07882500       0.74342103 </v>
    <v>       0.82880052       0.57882496       0.74342103 </v>
    <v>       0.00000350       0.25000148       0.72582199 </v>
    <v>       0.00000350       0.75000145       0.72582199 </v>
    <v>       0.50000351       0.25000148       0.72582199 </v>
    <v>       0.50000350       0.75000145       0.72582199 </v>
    <v>       0.25000050       0.00000000       0.72580398 </v>
    <v>       0.25000052       0.50000000       0.72580398 </v>
    <v>       0.75000050       0.00000000       0.72580398 </v>
    <v>       0.75000049       0.50000000       0.72580398 </v>
    <v>       0.78185449       0.52964216       0.52577374 </v>
    <v>       0.87246334       0.52082273       0.53607109 </v>
    <v>       0.77421046       0.63133566       0.54237258 </v>
    <v>       0.77781896       0.64261430       0.57085246 </v>
    <v>       0.68868770       0.47689013       0.56427680 </v>
    <v>       0.67824968       0.57122817       0.56955386 </v>
    <v>       0.80532030       0.43665387       0.57420738 </v>
    <v>       0.87209308       0.50838977       0.57868001 </v>
    <v>       0.85435538       0.39464707       0.54944742 </v>
    <v>       0.75978508       0.39506512       0.54195013 </v>
    <v>       0.78080570       0.40223671       0.50483562 </v>
    <v>       0.86903102       0.43905437       0.50799302 </v>
    <v>       0.90974255       0.63933905       0.53960683 </v>
    <v>       0.92332640       0.60609482       0.56656541 </v>
    <v>       0.88247325       0.69240534       0.56343038 </v>
    <v>       0.60590749       0.54966780       0.54005455 </v>
    <v>       0.66980516       0.49885044       0.52617739 </v>
    <v>       0.68082866       0.59645237       0.52879272 </v>
    <v>       0.72592913       0.48036232       0.60135734 </v>
    <v>       0.74413662       0.57605720       0.59500292 </v>
    <v>       0.80745781       0.53058988       0.61125593 </v>
    <v>       0.83628320       0.27769599       0.52140659 </v>
    <v>       0.84024699       0.29666736       0.49419153 </v>
    <v>       0.94733856       0.19295612       0.50184445 </v>
    <v>       0.96581318       0.41955848       0.52087506 </v>
    <v>       0.08298981       0.17859203       0.50660990 </v>
    <v>       0.09942990       0.40551917       0.52601213 </v>
    <v>       0.16076230       0.28268254       0.51863883 </v>
    <v>       0.99147582       0.23770774       0.55834214 </v>
    <v>       0.01379449       0.76388836       0.55572291 </v>
    <v>       0.50411593       0.25282090       0.55611160 </v>
    <v>       0.50443224       0.75953006       0.55578518 </v>
    <v>       0.25063757       0.50001790       0.55671792 </v>
    <v>       0.25461144       0.99291209       0.55609084 </v>
    <v>       0.75847574       0.99421616       0.55625097 </v>
    <v>       0.99956959       0.24863753       0.64816150 </v>
    <v>       0.00047163       0.75364793       0.64991136 </v>
    <v>       0.50222942       0.25284944       0.64817133 </v>
    <v>       0.49910895       0.74941234       0.64968427 </v>
    <v>       0.24911930       0.50055300       0.64916512 </v>
    <v>       0.25177799       0.99568376       0.64948617 </v>
    <v>       0.74167471       0.49387790       0.65130477 </v>
    <v>       0.75096568       0.00227764       0.64938336 </v>
    <v>       0.49998898       0.24999498       0.74327702 </v>
    <v>       0.49998903       0.74999496       0.74327702 </v>
    <v>       0.99998898       0.24999498       0.74327702 </v>
    <v>       0.99998903       0.74999496       0.74327702 </v>
    <v>       0.25000050       0.00000100       0.74325596 </v>
    <v>       0.25000052       0.50000100       0.74325596 </v>
    <v>       0.75000050       0.00000100       0.74325596 </v>
    <v>       0.75000049       0.50000100       0.74325596 </v>
    <v>       0.94665558       0.30691202       0.51073219 </v>
    <v>       0.97940446       0.24102159       0.50686468 </v>
    <v>       0.99291125       0.36691584       0.51700526 </v>
    <v>       0.05781111       0.23264085       0.50911739 </v>
    <v>       0.06728405       0.35978543       0.52014670 </v>
    <v>       0.10177937       0.29048428       0.51577546 </v>
    <v>       0.81437450       0.50441442       0.53801630 </v>
    <v>       0.80401194       0.61428760       0.55696479 </v>
    <v>       0.69931801       0.53100814       0.55801121 </v>
    <v>       0.81245564       0.49520829       0.57838583 </v>
    <v>       0.81557453       0.41665051       0.53729136 </v>
    <v>       0.83088241       0.39948513       0.51425886 </v>
    <v>       0.88660621       0.63800137       0.55611343 </v>
    <v>       0.66403246       0.54534568       0.53677869 </v>
    <v>       0.77041305       0.52222382       0.59759609 </v>
    <v>       0.86048856       0.31631101       0.50999370 </v>
    <v>       0.04784491       0.20294624       0.56790607 </v>
    <v>       0.05247035       0.71037741       0.56516547 </v>
    <v>       0.55198743       0.20944817       0.56596867 </v>
    <v>       0.55020420       0.71726408       0.56574029 </v>
    <v>       0.44830865       0.29139902       0.56630840 </v>
    <v>       0.44501862       0.79433130       0.56543096 </v>
    <v>       0.94357187       0.28291855       0.56766249 </v>
    <v>       0.96311246       0.80645381       0.56522084 </v>
    <v>       0.21620839       0.45159739       0.56823371 </v>
    <v>       0.19728985       0.95971462       0.56485358 </v>
    <v>       0.71162328       0.94696499       0.56515131 </v>
    <v>       0.30306355       0.03779393       0.56515002 </v>
    <v>       0.29365407       0.55647221       0.56336720 </v>
    <v>       0.79233597       0.05066214       0.56511053 </v>
    <v>       0.04097804       0.20486435       0.65866971 </v>
    <v>       0.04631361       0.71074425       0.65888801 </v>
    <v>       0.54048401       0.20591772       0.65833706 </v>
    <v>       0.54425227       0.70513972       0.65961844 </v>
    <v>       0.20536293       0.45855539       0.65940172 </v>
    <v>       0.20859143       0.95157608       0.65928415 </v>
    <v>       0.70208624       0.44650780       0.66338317 </v>
    <v>       0.70687622       0.96357372       0.66050271 </v>
    <v>       0.45155843       0.30065728       0.65658079 </v>
    <v>       0.44914554       0.79630050       0.65889216 </v>
    <v>       0.95157322       0.29802075       0.65631468 </v>
    <v>       0.95021701       0.79705207       0.65887293 </v>
    <v>       0.29373212       0.04415700       0.65875322 </v>
    <v>       0.29994006       0.54744159       0.65818749 </v>
    <v>       0.80377265       0.04835982       0.65738924 </v>
    <v>       0.78716564       0.54385578       0.65726324 </v>
    <v>       0.04586250       0.20411950       0.75272599 </v>
    <v>       0.04586250       0.70411946       0.75272599 </v>
    <v>       0.54586251       0.20411950       0.75272599 </v>
    <v>       0.54586250       0.70411946       0.75272599 </v>
    <v>       0.20411900       0.45410100       0.75270499 </v>
    <v>       0.20411899       0.95410095       0.75270499 </v>
    <v>       0.70411898       0.45410100       0.75270499 </v>
    <v>       0.70411896       0.95410095       0.75270499 </v>
    <v>       0.45414002       0.29588849       0.75272697 </v>
    <v>       0.45414001       0.79588852       0.75272697 </v>
    <v>       0.95414002       0.29588849       0.75272697 </v>
    <v>       0.95414006       0.79588852       0.75272697 </v>
    <v>       0.29588249       0.04590050       0.75270499 </v>
    <v>       0.29588248       0.54590053       0.75270499 </v>
    <v>       0.79588244       0.04590050       0.75270499 </v>
    <v>       0.79588248       0.54590053       0.75270499 </v>
    <v>       0.78176587       0.53307143       0.55785224 </v>
    <v>       0.49757708       0.00281708       0.55237702 </v>
    <v>       0.48343297       0.48485023       0.55382989 </v>
    <v>       0.99864035       0.00035455       0.55163853 </v>
    <v>       0.01521537       0.49971447       0.55610000 </v>
    <v>       0.26175766       0.24700001       0.55415057 </v>
    <v>       0.25114408       0.75584320       0.55225304 </v>
    <v>       0.73705864       0.23545590       0.55517635 </v>
    <v>       0.73452997       0.76551727       0.54801488 </v>
    <v>       0.99859725       0.00014939       0.65423040 </v>
    <v>       0.00290886       0.49755853       0.65565964 </v>
    <v>       0.50100329       0.00028638       0.65502646 </v>
    <v>       0.49897210       0.49782679       0.65456976 </v>
    <v>       0.25000298       0.24612729       0.65499056 </v>
    <v>       0.24917906       0.75004496       0.65376199 </v>
    <v>       0.74639800       0.24630189       0.65501089 </v>
    <v>       0.74874869       0.75133966       0.65457965 </v>
    <v>       0.14599467       0.10568333       0.60812774 </v>
    <v>       0.14827055       0.60925371       0.60827315 </v>
    <v>       0.64578225       0.10918329       0.60889370 </v>
    <v>       0.62735310       0.62269906       0.61190376 </v>
    <v>       0.35831334       0.39421336       0.60931669 </v>
    <v>       0.35715056       0.89449773       0.60883973 </v>
    <v>       0.87266541       0.37789562       0.61180847 </v>
    <v>       0.85814460       0.89616624       0.60798666 </v>
    <v>       0.11134739       0.35258691       0.60806626 </v>
    <v>       0.10473551       0.85775792       0.60846533 </v>
    <v>       0.61241214       0.36409269       0.60654508 </v>
    <v>       0.60450726       0.86091216       0.60857320 </v>
    <v>       0.39529317       0.14421607       0.60888228 </v>
    <v>       0.39376782       0.64137218       0.60779198 </v>
    <v>       0.88958074       0.14202908       0.60876812 </v>
    <v>       0.90619287       0.65674397       0.61173417 </v>
    <v>       0.00000000       0.00000000       0.75492797 </v>
    <v>       0.00000000       0.50000000       0.75492797 </v>
    <v>       0.50000000       0.00000000       0.75492797 </v>
    <v>       0.49999999       0.50000000       0.75492797 </v>
    <v>       0.25000050       0.25000000       0.75493902 </v>
    <v>       0.25000051       0.74999997       0.75493902 </v>
    <v>       0.75000047       0.25000000       0.75493902 </v>
    <v>       0.75000046       0.74999997       0.75493902 </v>
    <v>       0.13579050       0.11421000       0.70478299 </v>
    <v>       0.13579050       0.61420998       0.70478299 </v>
    <v>       0.63579045       0.11421000       0.70478299 </v>
    <v>       0.63579049       0.61420998       0.70478299 </v>
    <v>       0.36420952       0.38578999       0.70478299 </v>
    <v>       0.36420950       0.88578996       0.70478299 </v>
    <v>       0.86420954       0.38578999       0.70478299 </v>
    <v>       0.86420953       0.88578996       0.70478299 </v>
    <v>       0.11421799       0.36421899       0.70478098 </v>
    <v>       0.11421799       0.86421899       0.70478098 </v>
    <v>       0.61421800       0.36421899       0.70478098 </v>
    <v>       0.61421799       0.86421899       0.70478098 </v>
    <v>       0.38578201       0.13578149       0.70478202 </v>
    <v>       0.38578200       0.63578149       0.70478202 </v>
    <v>       0.88578199       0.13578149       0.70478202 </v>
    <v>       0.88578203       0.63578149       0.70478202 </v>
    <v>       0.13466700       0.11533200       0.80125603 </v>
    <v>       0.13466699       0.61533199       0.80125603 </v>
    <v>       0.63466699       0.11533200       0.80125603 </v>
    <v>       0.63466698       0.61533199       0.80125603 </v>
    <v>       0.36533300       0.38466799       0.80125603 </v>
    <v>       0.36533299       0.88466796       0.80125603 </v>
    <v>       0.86533295       0.38466799       0.80125603 </v>
    <v>       0.86533294       0.88466796       0.80125603 </v>
    <v>       0.11532850       0.36533700       0.80126500 </v>
    <v>       0.11532850       0.86533698       0.80126500 </v>
    <v>       0.61532850       0.36533700       0.80126500 </v>
    <v>       0.61532849       0.86533698       0.80126500 </v>
    <v>       0.38467151       0.13466300       0.80126500 </v>
    <v>       0.38467150       0.63466297       0.80126500 </v>
    <v>       0.88467149       0.13466300       0.80126500 </v>
    <v>       0.88467153       0.63466297       0.80126500 </v>
    <v>       0.00098311       0.99807923       0.60340804 </v>
    <v>       0.01064479       0.50076340       0.60552120 </v>
    <v>       0.49706358       0.99895998       0.60295251 </v>
    <v>       0.49852527       0.50127491       0.60341854 </v>
    <v>       0.25019259       0.24776711       0.60380094 </v>
    <v>       0.24725019       0.75042125       0.60257267 </v>
    <v>       0.75250700       0.24923237       0.60490248 </v>
    <v>       0.75107686       0.75814713       0.60430635 </v>
    <v>       0.00000050       0.00000050       0.70482896 </v>
    <v>       0.00000050       0.50000048       0.70482896 </v>
    <v>       0.50000048       0.00000050       0.70482896 </v>
    <v>       0.50000046       0.50000048       0.70482896 </v>
    <v>       0.24999999       0.24999947       0.70482499 </v>
    <v>       0.25000001       0.74999950       0.70482499 </v>
    <v>       0.74999999       0.24999947       0.70482499 </v>
    <v>       0.74999998       0.74999950       0.70482499 </v>
    <v>       0.00000000       0.00000000       0.80731797 </v>
    <v>       0.00000000       0.50000000       0.80731797 </v>
    <v>       0.50000000       0.00000000       0.80731797 </v>
    <v>       0.49999999       0.50000000       0.80731797 </v>
    <v>       0.24999999       0.25000000       0.80731797 </v>
    <v>       0.25000001       0.74999997       0.80731797 </v>
    <v>       0.74999999       0.25000000       0.80731797 </v>
    <v>       0.74999998       0.74999997       0.80731797 </v>
   </varray>
  </structure>
  <varray name="primitive_index" >
   <v type="int" >        1 </v>
   <v type="int" >        2 </v>
   <v type="int" >        3 </v>
   <v type="int" >        4 </v>
   <v type="int" >        5 </v>
   <v type="int" >        6 </v>
   <v type="int" >        7 </v>
   <v type="int" >        8 </v>
   <v type="int" >        9 </v>
   <v type="int" >       10 </v>
   <v type="int" >       11 </v>
   <v type="int" >       12 </v>
   <v type="int" >       13 </v>
   <v type="int" >       14 </v>
   <v type="int" >       15 </v>
   <v type="int" >       16 </v>
   <v type="int" >       17 </v>
   <v type="int" >       18 </v>
   <v type="int" >       19 </v>
   <v type="int" >       20 </v>
   <v type="int" >       21 </v>
   <v type="int" >       22 </v>
   <v type="int" >       23 </v>
   <v type="int" >       24 </v>
   <v type="int" >       25 </v>
   <v type="int" >       26 </v>
   <v type="int" >       27 </v>
   <v type="int" >       28 </v>
   <v type="int" >       29 </v>
   <v type="int" >       30 </v>
   <v type="int" >       31 </v>
   <v type="int" >       32 </v>
   <v type="int" >       33 </v>
   <v type="int" >       34 </v>
   <v type="int" >       35 </v>
   <v type="int" >       36 </v>
   <v type="int" >       37 </v>
   <v type="int" >       38 </v>
   <v type="int" >       39 </v>
   <v type="int" >       40 </v>
   <v type="int" >       41 </v>
   <v type="int" >       42 </v>
   <v type="int" >       43 </v>
   <v type="int" >       44 </v>
   <v type="int" >       45 </v>
   <v type="int" >       46 </v>
   <v type="int" >       47 </v>
   <v type="int" >       48 </v>
   <v type="int" >       49 </v>
   <v type="int" >       50 </v>
   <v type="int" >       51 </v>
   <v type="int" >       52 </v>
   <v type="int" >       53 </v>
   <v type="int" >       54 </v>
   <v type="int" >       55 </v>
   <v type="int" >       56 </v>
   <v type="int" >       57 </v>
   <v type="int" >       58 </v>
   <v type="int" >       59 </v>
   <v type="int" >       60 </v>
   <v type="int" >       61 </v>
   <v type="int" >       62 </v>
   <v type="int" >       63 </v>
   <v type="int" >       64 </v>
   <v type="int" >       65 </v>
   <v type="int" >       66 </v>
   <v type="int" >       67 </v>
   <v type="int" >       68 </v>
   <v type="int" >       69 </v>
   <v type="int" >       70 </v>
   <v type="int" >       71 </v>
   <v type="int" >       72 </v>
   <v type="int" >       73 </v>
   <v type="int" >       74 </v>
   <v type="int" >       75 </v>
   <v type="int" >       76 </v>
   <v type="int" >       77 </v>
   <v type="int" >       78 </v>
   <v type="int" >       79 </v>
   <v type="int" >       80 </v>
   <v type="int" >       81 </v>
   <v type="int" >       82 </v>
   <v type="int" >       83 </v>
   <v type="int" >       84 </v>
   <v type="int" >       85 </v>
   <v type="int" >       86 </v>
   <v type="int" >       87 </v>
   <v type="int" >       88 </v>
   <v type="int" >       89 </v>
   <v type="int" >       90 </v>
   <v type="int" >       91 </v>
   <v type="int" >       92 </v>
   <v type="int" >       93 </v>
   <v type="int" >       94 </v>
   <v type="int" >       95 </v>
   <v type="int" >       96 </v>
   <v type="int" >       97 </v>
   <v type="int" >       98 </v>
   <v type="int" >       99 </v>
   <v type="int" >      100 </v>
   <v type="int" >      101 </v>
   <v type="int" >      102 </v>
   <v type="int" >      103 </v>
   <v type="int" >      104 </v>
   <v type="int" >      105 </v>
   <v type="int" >      106 </v>
   <v type="int" >      107 </v>
   <v type="int" >      108 </v>
   <v type="int" >      109 </v>
   <v type="int" >      110 </v>
   <v type="int" >      111 </v>
   <v type="int" >      112 </v>
   <v type="int" >      113 </v>
   <v type="int" >      114 </v>
   <v type="int" >      115 </v>
   <v type="int" >      116 </v>
   <v type="int" >      117 </v>
   <v type="int" >      118 </v>
   <v type="int" >      119 </v>
   <v type="int" >      120 </v>
   <v type="int" >      121 </v>
   <v type="int" >      122 </v>
   <v type="int" >      123 </v>
   <v type="int" >      124 </v>
   <v type="int" >      125 </v>
   <v type="int" >      126 </v>
   <v type="int" >      127 </v>
   <v type="int" >      128 </v>
   <v type="int" >      129 </v>
   <v type="int" >      130 </v>
   <v type="int" >      131 </v>
   <v type="int" >      132 </v>
   <v type="int" >      133 </v>
   <v type="int" >      134 </v>
   <v type="int" >      135 </v>
   <v type="int" >      136 </v>
   <v type="int" >      137 </v>
   <v type="int" >      138 </v>
   <v type="int" >      139 </v>
   <v type="int" >      140 </v>
   <v type="int" >      141 </v>
   <v type="int" >      142 </v>
   <v type="int" >      143 </v>
   <v type="int" >      144 </v>
   <v type="int" >      145 </v>
   <v type="int" >      146 </v>
   <v type="int" >      147 </v>
   <v type="int" >      148 </v>
   <v type="int" >      149 </v>
   <v type="int" >      150 </v>
   <v type="int" >      151 </v>
   <v type="int" >      152 </v>
   <v type="int" >      153 </v>
   <v type="int" >      154 </v>
   <v type="int" >      155 </v>
   <v type="int" >      156 </v>
   <v type="int" >      157 </v>
   <v type="int" >      158 </v>
   <v type="int" >      159 </v>
   <v type="int" >      160 </v>
   <v type="int" >      161 </v>
   <v type="int" >      162 </v>
   <v type="int" >      163 </v>
   <v type="int" >      164 </v>
   <v type="int" >      165 </v>
   <v type="int" >      166 </v>
   <v type="int" >      167 </v>
   <v type="int" >      168 </v>
   <v type="int" >      169 </v>
   <v type="int" >      170 </v>
   <v type="int" >      171 </v>
   <v type="int" >      172 </v>
   <v type="int" >      173 </v>
   <v type="int" >      174 </v>
   <v type="int" >      175 </v>
   <v type="int" >      176 </v>
   <v type="int" >      177 </v>
   <v type="int" >      178 </v>
   <v type="int" >      179 </v>
   <v type="int" >      180 </v>
   <v type="int" >      181 </v>
   <v type="int" >      182 </v>
   <v type="int" >      183 </v>
   <v type="int" >      184 </v>
   <v type="int" >      185 </v>
   <v type="int" >      186 </v>
   <v type="int" >      187 </v>
   <v type="int" >      188 </v>
   <v type="int" >      189 </v>
   <v type="int" >      190 </v>
   <v type="int" >      191 </v>
   <v type="int" >      192 </v>
   <v type="int" >      193 </v>
   <v type="int" >      194 </v>
   <v type="int" >      195 </v>
   <v type="int" >      196 </v>
   <v type="int" >      197 </v>
   <v type="int" >      198 </v>
   <v type="int" >      199 </v>
   <v type="int" >      200 </v>
   <v type="int" >      201 </v>
   <v type="int" >      202 </v>
   <v type="int" >      203 </v>
   <v type="int" >      204 </v>
   <v type="int" >      205 </v>
   <v type="int" >      206 </v>
   <v type="int" >      207 </v>
   <v type="int" >      208 </v>
   <v type="int" >      209 </v>
   <v type="int" >      210 </v>
   <v type="int" >      211 </v>
   <v type="int" >      212 </v>
   <v type="int" >      213 </v>
   <v type="int" >      214 </v>
   <v type="int" >      215 </v>
   <v type="int" >      216 </v>
   <v type="int" >      217 </v>
   <v type="int" >      218 </v>
   <v type="int" >      219 </v>
   <v type="int" >      220 </v>
   <v type="int" >      221 </v>
   <v type="int" >      222 </v>
   <v type="int" >      223 </v>
   <v type="int" >      224 </v>
   <v type="int" >      225 </v>
   <v type="int" >      226 </v>
   <v type="int" >      227 </v>
   <v type="int" >      228 </v>
   <v type="int" >      229 </v>
   <v type="int" >      230 </v>
   <v type="int" >      231 </v>
   <v type="int" >      232 </v>
   <v type="int" >      233 </v>
   <v type="int" >      234 </v>
   <v type="int" >      235 </v>
   <v type="int" >      236 </v>
   <v type="int" >      237 </v>
   <v type="int" >      238 </v>
   <v type="int" >      239 </v>
   <v type="int" >      240 </v>
   <v type="int" >      241 </v>
   <v type="int" >      242 </v>
   <v type="int" >      243 </v>
   <v type="int" >      244 </v>
   <v type="int" >      245 </v>
   <v type="int" >      246 </v>
   <v type="int" >      247 </v>
   <v type="int" >      248 </v>
   <v type="int" >      249 </v>
   <v type="int" >      250 </v>
   <v type="int" >      251 </v>
   <v type="int" >      252 </v>
   <v type="int" >      253 </v>
   <v type="int" >      254 </v>
   <v type="int" >      255 </v>
   <v type="int" >      256 </v>
   <v type="int" >      257 </v>
   <v type="int" >      258 </v>
   <v type="int" >      259 </v>
   <v type="int" >      260 </v>
   <v type="int" >      261 </v>
   <v type="int" >      262 </v>
   <v type="int" >      263 </v>
   <v type="int" >      264 </v>
   <v type="int" >      265 </v>
   <v type="int" >      266 </v>
   <v type="int" >      267 </v>
   <v type="int" >      268 </v>
   <v type="int" >      269 </v>
   <v type="int" >      270 </v>
   <v type="int" >      271 </v>
   <v type="int" >      272 </v>
   <v type="int" >      273 </v>
   <v type="int" >      274 </v>
   <v type="int" >      275 </v>
   <v type="int" >      276 </v>
   <v type="int" >      277 </v>
   <v type="int" >      278 </v>
   <v type="int" >      279 </v>
   <v type="int" >      280 </v>
   <v type="int" >      281 </v>
   <v type="int" >      282 </v>
   <v type="int" >      283 </v>
   <v type="int" >      284 </v>
   <v type="int" >      285 </v>
   <v type="int" >      286 </v>
   <v type="int" >      287 </v>
   <v type="int" >      288 </v>
   <v type="int" >      289 </v>
   <v type="int" >      290 </v>
   <v type="int" >      291 </v>
   <v type="int" >      292 </v>
   <v type="int" >      293 </v>
   <v type="int" >      294 </v>
   <v type="int" >      295 </v>
   <v type="int" >      296 </v>
   <v type="int" >      297 </v>
   <v type="int" >      298 </v>
   <v type="int" >      299 </v>
   <v type="int" >      300 </v>
   <v type="int" >      301 </v>
   <v type="int" >      302 </v>
   <v type="int" >      303 </v>
   <v type="int" >      304 </v>
   <v type="int" >      305 </v>
   <v type="int" >      306 </v>
   <v type="int" >      307 </v>
   <v type="int" >      308 </v>
   <v type="int" >      309 </v>
   <v type="int" >      310 </v>
   <v type="int" >      311 </v>
   <v type="int" >      312 </v>
   <v type="int" >      313 </v>
   <v type="int" >      314 </v>
   <v type="int" >      315 </v>
   <v type="int" >      316 </v>
   <v type="int" >      317 </v>
   <v type="int" >      318 </v>
   <v type="int" >      319 </v>
   <v type="int" >      320 </v>
   <v type="int" >      321 </v>
   <v type="int" >      322 </v>
   <v type="int" >      323 </v>
   <v type="int" >      324 </v>
   <v type="int" >      325 </v>
  </varray>
 </primitive_cell>
 <kpoints>
  <generation param="Gamma">
   <v type="int" name="divisions">       3        3        1 </v>
   <v name="usershift">      0.00000000       0.00000000       0.00000000 </v>
   <v name="genvec1">      0.33333333       0.00000000       0.00000000 </v>
   <v name="genvec2">      0.00000000       0.33333333       0.00000000 </v>
   <v name="genvec3">      0.00000000       0.00000000       1.00000000 </v>
   <v name="shift">      0.00000000       0.00000000       0.00000000 </v>
  </generation>
  <varray name="kpointlist" >
   <v>       0.00000000       0.00000000       0.00000000 </v>
   <v>       0.33333333       0.00000000       0.00000000 </v>
   <v>       0.00000000       0.33333333       0.00000000 </v>
   <v>       0.33333333       0.33333333       0.00000000 </v>
   <v>      -0.33333333       0.33333333       0.00000000 </v>
  </varray>
  <varray name="weights" >
   <v>       0.11111111 </v>
   <v>       0.22222222 </v>
   <v>       0.22222222 </v>
   <v>       0.22222222 </v>
   <v>       0.22222222 </v>
  </varray>
 </kpoints>
 <parameters>
  <separator name="general" >
   <i type="string" name="SYSTEM">PSC</i>
   <i type="logical" name="LCOMPAT"> F  </i>
  </separator>
  <separator name="electronic" >
   <i type="string" name="PREC">normal</i>
   <i name="ENMAX">    500.00000000</i>
   <i name="ENAUG">    644.87300000</i>
   <i name="EDIFF">      0.00010000</i>
   <i type="int" name="IALGO">    38</i>
   <i type="int" name="IWAVPR">    10</i>
   <i type="int" name="NBANDS">   732</i>
   <i type="int" name="NBANDSLOW">    -1</i>
   <i type="int" name="NBANDSHIGH">    -1</i>
   <i name="NELECT">   1134.00000000</i>
   <i type="int" name="TURBO">     0</i>
   <i type="int" name="IRESTART">     0</i>
   <i type="int" name="NREBOOT">     0</i>
   <i type="int" name="NMIN">     0</i>
   <i name="EREF">      0.00000000</i>
   <separator name="electronic smearing" >
    <i type="int" name="ISMEAR">     0</i>
    <i name="SIGMA">      0.05000000</i>
    <i name="KSPACING">      0.50000000</i>
    <i type="logical" name="KGAMMA"> T  </i>
    <i type="logical" name="KBLOWUP"> T  </i>
   </separator>
   <separator name="electronic projectors" >
    <i type="logical" name="LREAL"> T  </i>
    <v name="ROPT">     -0.00050000     -0.00050000     -0.00050000     -0.00050000     -0.00050000</v>
    <i type="int" name="LMAXPAW">  -100</i>
    <i type="int" name="LMAXMIX">     2</i>
    <i type="logical" name="NLSPLINE"> F  </i>
   </separator>
   <separator name="electronic startup" >
    <i type="int" name="ISTART">     0</i>
    <i type="int" name="ICHARG">     1</i>
    <i type="int" name="INIWAV">     1</i>
   </separator>
   <separator name="electronic spin" >
    <i type="int" name="ISPIN">     1</i>
    <i type="logical" name="LNONCOLLINEAR"> F  </i>
    <v name="MAGMOM">      1.00000000      1.00000000      1.00000000      1.00000000      1.00000000      1.00000000      1.00000000      1.00000000      1.00000000      1.00000000      1.00000000      1.00000000      1.00000000      1.00000000      1.00000000      1.00000000      1.00000000      1.00000000      1.00000000      1.00000000
      1.00000000      1.00000000      1.00000000      1.00000000      1.00000000      1.00000000      1.00000000      1.00000000      1.00000000      1.00000000      1.00000000      1.00000000      1.00000000      1.00000000      1.00000000      1.00000000      1.00000000      1.00000000      1.00000000      1.00000000
      1.00000000      1.00000000      1.00000000      1.00000000      1.00000000      1.00000000      1.00000000      1.00000000      1.00000000      1.00000000      1.00000000      1.00000000      1.00000000      1.00000000      1.00000000      1.00000000      1.00000000      1.00000000      1.00000000      1.00000000
      1.00000000      1.00000000      1.00000000      1.00000000      1.00000000      1.00000000      1.00000000      1.00000000      1.00000000      1.00000000      1.00000000      1.00000000      1.00000000      1.00000000      1.00000000      1.00000000      1.00000000      1.00000000      1.00000000      1.00000000
      1.00000000      1.00000000      1.00000000      1.00000000      1.00000000      1.00000000      1.00000000      1.00000000      1.00000000      1.00000000      1.00000000      1.00000000      1.00000000      1.00000000      1.00000000      1.00000000      1.00000000      1.00000000      1.00000000      1.00000000
      1.00000000      1.00000000      1.00000000      1.00000000      1.00000000      1.00000000      1.00000000      1.00000000      1.00000000      1.00000000      1.00000000      1.00000000      1.00000000      1.00000000      1.00000000      1.00000000      1.00000000      1.00000000      1.00000000      1.00000000
      1.00000000      1.00000000      1.00000000      1.00000000      1.00000000      1.00000000      1.00000000      1.00000000      1.00000000      1.00000000      1.00000000      1.00000000      1.00000000      1.00000000      1.00000000      1.00000000      1.00000000      1.00000000      1.00000000      1.00000000
      1.00000000      1.00000000      1.00000000      1.00000000      1.00000000      1.00000000      1.00000000      1.00000000      1.00000000      1.00000000      1.00000000      1.00000000      1.00000000      1.00000000      1.00000000      1.00000000      1.00000000      1.00000000      1.00000000      1.00000000
      1.00000000      1.00000000      1.00000000      1.00000000      1.00000000      1.00000000      1.00000000      1.00000000      1.00000000      1.00000000      1.00000000      1.00000000      1.00000000      1.00000000      1.00000000      1.00000000      1.00000000      1.00000000      1.00000000      1.00000000
      1.00000000      1.00000000      1.00000000      1.00000000      1.00000000      1.00000000      1.00000000      1.00000000      1.00000000      1.00000000      1.00000000      1.00000000      1.00000000      1.00000000      1.00000000      1.00000000      1.00000000      1.00000000      1.00000000      1.00000000
      1.00000000      1.00000000      1.00000000      1.00000000      1.00000000      1.00000000      1.00000000      1.00000000      1.00000000      1.00000000      1.00000000      1.00000000      1.00000000      1.00000000      1.00000000      1.00000000      1.00000000      1.00000000      1.00000000      1.00000000
      1.00000000      1.00000000      1.00000000      1.00000000      1.00000000      1.00000000      1.00000000      1.00000000      1.00000000      1.00000000      1.00000000      1.00000000      1.00000000      1.00000000      1.00000000      1.00000000      1.00000000      1.00000000      1.00000000      1.00000000
      1.00000000      1.00000000      1.00000000      1.00000000      1.00000000      1.00000000      1.00000000      1.00000000      1.00000000      1.00000000      1.00000000      1.00000000      1.00000000      1.00000000      1.00000000      1.00000000      1.00000000      1.00000000      1.00000000      1.00000000
      1.00000000      1.00000000      1.00000000      1.00000000      1.00000000      1.00000000      1.00000000      1.00000000      1.00000000      1.00000000      1.00000000      1.00000000      1.00000000      1.00000000      1.00000000      1.00000000      1.00000000      1.00000000      1.00000000      1.00000000
      1.00000000      1.00000000      1.00000000      1.00000000      1.00000000      1.00000000      1.00000000      1.00000000      1.00000000      1.00000000      1.00000000      1.00000000      1.00000000      1.00000000      1.00000000      1.00000000      1.00000000      1.00000000      1.00000000      1.00000000
      1.00000000      1.00000000      1.00000000      1.00000000      1.00000000      1.00000000      1.00000000      1.00000000      1.00000000      1.00000000      1.00000000      1.00000000      1.00000000      1.00000000      1.00000000      1.00000000      1.00000000      1.00000000      1.00000000      1.00000000
      1.00000000      1.00000000      1.00000000      1.00000000      1.00000000</v>
    <i name="NUPDOWN">     -1.00000000</i>
    <i type="logical" name="LSORBIT"> F  </i>
    <v name="SAXIS">      0.00000000      0.00000000      1.00000000</v>
    <i type="logical" name="LSPIRAL"> F  </i>
    <v name="QSPIRAL">      0.00000000      0.00000000      0.00000000</v>
    <i type="logical" name="LZEROZ"> F  </i>
   </separator>
   <separator name="electronic exchange-correlation" >
    <i type="logical" name="LASPH"> F  </i>
    <i type="logical" name="LMETAGGA"> F  </i>
   </separator>
   <separator name="electronic convergence" >
    <i type="int" name="NELM">   600</i>
    <i type="int" name="NELMDL">     0</i>
    <i type="int" name="NELMIN">     2</i>
    <i name="ENINI">    500.00000000</i>
    <separator name="electronic convergence detail" >
     <i type="logical" name="LDIAG"> T  </i>
     <i type="logical" name="LSUBROT"> F  </i>
     <i name="WEIMIN">      0.00000000</i>
     <i name="EBREAK">      0.00000003</i>
     <i name="DEPER">      0.30000000</i>
     <i type="int" name="NRMM">     4</i>
     <i name="TIME">      0.40000000</i>
    </separator>
   </separator>
   <separator name="electronic mixer" >
    <i name="AMIX">      0.40000000</i>
    <i name="BMIX">      0.01000000</i>
    <i name="AMIN">      0.01000000</i>
    <i name="AMIX_MAG">      1.60000000</i>
    <i name="BMIX_MAG">      0.01000000</i>
    <separator name="electronic mixer details" >
     <i type="int" name="IMIX">     4</i>
     <i type="logical" name="MIXFIRST"> F  </i>
     <i type="int" name="MAXMIX">   -45</i>
     <i name="WC">    100.00000000</i>
     <i type="int" name="INIMIX">     1</i>
     <i type="int" name="MIXPRE">     1</i>
     <i type="int" name="MREMOVE">     5</i>
    </separator>
   </separator>
   <separator name="electronic dipolcorrection" >
    <i type="logical" name="LDIPOL"> T  </i>
    <i type="logical" name="LMONO"> F  </i>
    <i type="int" name="IDIPOL">     3</i>
    <i name="EPSILON">      1.00000000</i>
    <v name="DIPOL">   -100.00000000   -100.00000000   -100.00000000</v>
    <i name="EFIELD">      0.00000000</i>
   </separator>
  </separator>
  <separator name="grids" >
   <i type="int" name="NGX">   100</i>
   <i type="int" name="NGY">   100</i>
   <i type="int" name="NGZ">   350</i>
   <i type="int" name="NGXF">   200</i>
   <i type="int" name="NGYF">   200</i>
   <i type="int" name="NGZF">   700</i>
   <i type="logical" name="ADDGRID"> F  </i>
  </separator>
  <separator name="ionic" >
   <i type="int" name="NSW">     0</i>
   <i type="int" name="IBRION">    -1</i>
   <i type="int" name="MDALGO">     0</i>
   <i type="int" name="ISIF">     2</i>
   <i name="PSTRESS">      0.00000000</i>
   <i name="EDIFFG">      0.00100000</i>
   <i type="int" name="NFREE">     0</i>
   <i name="POTIM">      0.50000000</i>
   <i name="SMASS">     -3.00000000</i>
   <i name="SCALEE">      1.00000000</i>
  </separator>
  <separator name="ionic md" >
   <i name="TEBEG">      0.00010000</i>
   <i name="TEEND">      0.00010000</i>
   <i type="int" name="NBLOCK">     1</i>
   <i type="int" name="KBLOCK">     1</i>
   <i type="int" name="NPACO">   256</i>
   <i name="APACO">     16.00000000</i>
  </separator>
  <separator name="symmetry" >
   <i type="int" name="ISYM">     0</i>
   <i name="SYMPREC">      0.00001000</i>
  </separator>
  <separator name="dos" >
   <i type="int" name="LORBIT">     0</i>
   <v name="RWIGS">     -1.00000000     -1.00000000     -1.00000000     -1.00000000     -1.00000000</v>
   <i type="int" name="NEDOS">   301</i>
   <i name="EMIN">     10.00000000</i>
   <i name="EMAX">    -10.00000000</i>
   <i name="EFERMI">      0.00000000</i>
  </separator>
  <separator name="writing" >
   <i type="int" name="NWRITE">     2</i>
   <i type="logical" name="LWAVE"> F  </i>
   <i type="logical" name="LDOWNSAMPLE"> F  </i>
   <i type="logical" name="LCHARG"> T  </i>
   <i type="logical" name="LPARD"> F  </i>
   <i type="logical" name="LVTOT"> T  </i>
   <i type="logical" name="LVHAR"> F  </i>
   <i type="logical" name="LELF"> F  </i>
   <i type="logical" name="LOPTICS"> F  </i>
   <v name="STM">      0.00000000      0.00000000      0.00000000      0.00000000      0.00000000      0.00000000      0.00000000</v>
  </separator>
  <separator name="performance" >
   <i type="int" name="NPAR">     4</i>
   <i type="int" name="NSIM">     4</i>
   <i type="int" name="NBLK">    -1</i>
   <i type="logical" name="LPLANE"> T  </i>
   <i type="logical" name="LSCALAPACK"> T  </i>
   <i type="logical" name="LSCAAWARE"> F  </i>
   <i type="logical" name="LSCALU"> F  </i>
   <i type="logical" name="LASYNC"> F  </i>
   <i type="logical" name="LORBITALREAL"> F  </i>
  </separator>
  <separator name="miscellaneous" >
   <i type="int" name="IDIOT">     3</i>
   <i type="int" name="PHON_NSTRUCT">    -1</i>
   <i type="logical" name="LMUSIC"> F  </i>
   <v name="POMASS">      1.00000000     12.01100000     14.00100000    126.90400000    207.20000000</v>
   <v name="DARWINR">      0.00000000      0.00000000      0.00000000      0.00000000      0.00000000</v>
   <v name="DARWINV">      1.00000000      1.00000000      1.00000000      1.00000000      1.00000000</v>
   <i type="logical" name="LCORR"> T  </i>
  </separator>
  <i type="logical" name="GGA_COMPAT"> F  </i>
  <i type="logical" name="LBERRY"> F  </i>
  <i type="int" name="ICORELEVEL">     0</i>
  <i type="logical" name="LDAU"> F  </i>
  <i type="int" name="I_CONSTRAINED_M">     0</i>
  <separator name="electronic exchange-correlation" >
   <i type="string" name="GGA">--</i>
   <i type="int" name="VOSKOWN">     0</i>
   <i type="logical" name="LHFCALC"> F  </i>
   <i type="string" name="PRECFOCK"></i>
   <i type="logical" name="LSYMGRAD"> F  </i>
   <i type="logical" name="LHFONE"> F  </i>
   <i type="logical" name="LRHFCALC"> F  </i>
   <i type="logical" name="LTHOMAS"> F  </i>
   <i type="logical" name="LMODELHF"> F  </i>
   <i type="logical" name="LFOCKACE"> F  </i>
   <i name="ENCUT4O">     -1.00000000</i>
   <i type="int" name="EXXOEP">     0</i>
   <i type="int" name="FOURORBIT">     0</i>
   <i name="AEXX">      0.00000000</i>
   <i name="HFALPHA">      0.00000000</i>
   <i name="MCALPHA">      0.00000000</i>
   <i name="ALDAX">      1.00000000</i>
   <i name="AGGAX">      1.00000000</i>
   <i name="ALDAC">      1.00000000</i>
   <i name="AGGAC">      1.00000000</i>
   <i type="int" name="NKREDX">     1</i>
   <i type="int" name="NKREDY">     1</i>
   <i type="int" name="NKREDZ">     1</i>
   <i type="logical" name="SHIFTRED"> F  </i>
   <i type="logical" name="ODDONLY"> F  </i>
   <i type="logical" name="EVENONLY"> F  </i>
   <i type="int" name="LMAXFOCK">     0</i>
   <i type="int" name="NMAXFOCKAE">     0</i>
   <i type="logical" name="LFOCKAEDFT"> F  </i>
   <i name="HFSCREEN">      0.00000000</i>
   <i name="HFSCREENC">      0.00000000</i>
   <i type="int" name="NBANDSGWLOW">     0</i>
  </separator>
  <separator name="vdW DFT" >
   <i type="logical" name="LUSE_VDW"> F  </i>
   <i name="Zab_VDW">     -0.84910000</i>
   <i name="PARAM1">      0.12340000</i>
   <i name="PARAM2">      1.00000000</i>
   <i name="PARAM3">      0.00000000</i>
  </separator>
  <separator name="model GW" >
   <i type="int" name="MODEL_GW">     0</i>
   <i name="MODEL_EPS0">     37.63423484</i>
   <i name="MODEL_ALPHA">      1.00000000</i>
  </separator>
  <separator name="linear response parameters" >
   <i type="logical" name="LEPSILON"> F  </i>
   <i type="logical" name="LRPA"> F  </i>
   <i type="logical" name="LNABLA"> F  </i>
   <i type="logical" name="LVEL"> F  </i>
   <i type="int" name="KINTER">     0</i>
   <i name="CSHIFT">      0.10000000</i>
   <i name="OMEGAMAX">     -1.00000000</i>
   <i name="DEG_THRESHOLD">      0.00200000</i>
   <i name="RTIME">     -0.10000000</i>
   <i name="WPLASMAI">      0.00000000</i>
   <v name="DFIELD">      0.00000000      0.00000000      0.00000000</v>
   <v name="WPLASMA">      0.00000000      0.00000000      0.00000000      0.00000000      0.00000000      0.00000000      0.00000000      0.00000000      0.00000000</v>
  </separator>
  <separator name="orbital magnetization" >
   <i type="logical" name="NUCIND"> F  </i>
   <v name="MAGPOS">      0.00000000      0.00000000      0.00000000</v>
   <i type="logical" name="LNICSALL"> T  </i>
   <i type="logical" name="ORBITALMAG"> F  </i>
   <i type="logical" name="LMAGBLOCH"> F  </i>
   <i type="logical" name="LCHIMAG"> F  </i>
   <i type="logical" name="LGAUGE"> T  </i>
   <i type="int" name="MAGATOM">     0</i>
   <v name="MAGDIPOL">      0.00000000      0.00000000      0.00000000</v>
   <v name="AVECCONST">      0.00000000      0.00000000      0.00000000</v>
  </separator>
  <separator name="response functions" >
   <i type="logical" name="LFINITE_TEMPERATURE"> F  </i>
   <i type="logical" name="LADDER"> F  </i>
   <i type="logical" name="LRPAFORCE"> F  </i>
   <i type="logical" name="LFXC"> F  </i>
   <i type="logical" name="LHARTREE"> T  </i>
   <i type="int" name="IBSE">     0</i>
   <v type="int" name="KPOINT">    -1     0     0     0</v>
   <i type="logical" name="LTCTC"> F  </i>
   <i type="logical" name="LTCTE"> F  </i>
   <i type="logical" name="LTETE"> F  </i>
   <i type="logical" name="LTRIPLET"> F  </i>
   <i type="logical" name="LFXCEPS"> F  </i>
   <i type="logical" name="LFXHEG"> F  </i>
   <i type="int" name="NATURALO">     2</i>
   <i type="logical" name="LHOLEGF"> F  </i>
   <i type="logical" name="L2ORDER"> F  </i>
   <i type="logical" name="LDMP1"> F  </i>
   <i type="logical" name="LMP2LT"> F  </i>
   <i type="logical" name="LSMP2LT"> F  </i>
   <i type="logical" name="LGWLF"> F  </i>
   <i name="ENCUTGW">     -2.00000000</i>
   <i name="ENCUTGWSOFT">     -2.00000000</i>
   <i name="ENCUTLF">     -1.00000000</i>
   <i type="logical" name="LESF_SPLINES"> F  </i>
   <i type="int" name="LMAXMP2">    -1</i>
   <i name="SCISSOR">      0.00000000</i>
   <i type="int" name="NOMEGA">     0</i>
   <i type="int" name="NOMEGAR">     0</i>
   <i type="int" name="NBANDSGW">    -1</i>
   <i type="int" name="NBANDSO">    -1</i>
   <i type="int" name="NBANDSV">    -1</i>
   <i type="int" name="NELM">   600</i>
   <i type="int" name="NELMHF">     1</i>
   <i type="int" name="DIM">     3</i>
   <i type="int" name="IESPILON">     4</i>
   <i type="int" name="ANTIRES">     0</i>
   <i name="OMEGAMAX">    -30.00000000</i>
   <i name="OMEGAMIN">    -30.00000000</i>
   <i name="OMEGATL">   -200.00000000</i>
   <i type="int" name="OMEGAGRID">     0</i>
   <i name="CSHIFT">     -0.10000000</i>
   <i type="logical" name="LSELFENERGY"> F  </i>
   <i type="logical" name="LSPECTRAL"> F  </i>
   <i type="logical" name="LSPECTRALGW"> F  </i>
   <i type="logical" name="LSINGLES"> F  </i>
   <i type="logical" name="LFERMIGW"> F  </i>
   <i type="logical" name="ODDONLYGW"> F  </i>
   <i type="logical" name="EVENONLYGW"> F  </i>
   <i type="int" name="NKREDLFX">     1</i>
   <i type="int" name="NKREDLFY">     1</i>
   <i type="int" name="NKREDLFZ">     1</i>
   <i type="int" name="MAXMEM">  2800</i>
   <i type="int" name="TELESCOPE">     0</i>
   <i type="int" name="NTAUPAR">    -1</i>
   <i type="int" name="NOMEGAPAR">    -1</i>
   <i name="DAMP_NEWTON">      0.80000001</i>
   <i name="LAMBDA">      1.00000000</i>
  </separator>
  <separator name="External order field" >
   <i name="OFIELD_KAPPA">      0.00000000</i>
   <v name="OFIELD_K">      0.00000000      0.00000000      0.00000000</v>
   <i name="OFIELD_Q6_NEAR">      0.00000000</i>
   <i name="OFIELD_Q6_FAR">      0.00000000</i>
   <i name="OFIELD_A">      0.00000000</i>
  </separator>
 </parameters>
 <atominfo>
  <atoms>     325 </atoms>
  <types>       5 </types>
  <array name="atoms" >
   <dimension dim="1">ion</dimension>
   <field type="string">element</field>
   <field type="int">atomtype</field>
   <set>
    <rc><c>H </c><c>   1</c></rc>
    <rc><c>H </c><c>   1</c></rc>
    <rc><c>H </c><c>   1</c></rc>
    <rc><c>H </c><c>   1</c></rc>
    <rc><c>H </c><c>   1</c></rc>
    <rc><c>H </c><c>   1</c></rc>
    <rc><c>H </c><c>   1</c></rc>
    <rc><c>H </c><c>   1</c></rc>
    <rc><c>H </c><c>   1</c></rc>
    <rc><c>H </c><c>   1</c></rc>
    <rc><c>H </c><c>   1</c></rc>
    <rc><c>H </c><c>   1</c></rc>
    <rc><c>H </c><c>   1</c></rc>
    <rc><c>H </c><c>   1</c></rc>
    <rc><c>H </c><c>   1</c></rc>
    <rc><c>H </c><c>   1</c></rc>
    <rc><c>H </c><c>   1</c></rc>
    <rc><c>H </c><c>   1</c></rc>
    <rc><c>H </c><c>   1</c></rc>
    <rc><c>H </c><c>   1</c></rc>
    <rc><c>H </c><c>   1</c></rc>
    <rc><c>H </c><c>   1</c></rc>
    <rc><c>H </c><c>   1</c></rc>
    <rc><c>H </c><c>   1</c></rc>
    <rc><c>H </c><c>   1</c></rc>
    <rc><c>H </c><c>   1</c></rc>
    <rc><c>H </c><c>   1</c></rc>
    <rc><c>H </c><c>   1</c></rc>
    <rc><c>H </c><c>   1</c></rc>
    <rc><c>H </c><c>   1</c></rc>
    <rc><c>H </c><c>   1</c></rc>
    <rc><c>H </c><c>   1</c></rc>
    <rc><c>H </c><c>   1</c></rc>
    <rc><c>H </c><c>   1</c></rc>
    <rc><c>H </c><c>   1</c></rc>
    <rc><c>H </c><c>   1</c></rc>
    <rc><c>H </c><c>   1</c></rc>
    <rc><c>H </c><c>   1</c></rc>
    <rc><c>H </c><c>   1</c></rc>
    <rc><c>H </c><c>   1</c></rc>
    <rc><c>H </c><c>   1</c></rc>
    <rc><c>H </c><c>   1</c></rc>
    <rc><c>H </c><c>   1</c></rc>
    <rc><c>H </c><c>   1</c></rc>
    <rc><c>H </c><c>   1</c></rc>
    <rc><c>H </c><c>   1</c></rc>
    <rc><c>H </c><c>   1</c></rc>
    <rc><c>H </c><c>   1</c></rc>
    <rc><c>H </c><c>   1</c></rc>
    <rc><c>H </c><c>   1</c></rc>
    <rc><c>H </c><c>   1</c></rc>
    <rc><c>H </c><c>   1</c></rc>
    <rc><c>H </c><c>   1</c></rc>
    <rc><c>H </c><c>   1</c></rc>
    <rc><c>H </c><c>   1</c></rc>
    <rc><c>H </c><c>   1</c></rc>
    <rc><c>H </c><c>   1</c></rc>
    <rc><c>H </c><c>   1</c></rc>
    <rc><c>H </c><c>   1</c></rc>
    <rc><c>H </c><c>   1</c></rc>
    <rc><c>H </c><c>   1</c></rc>
    <rc><c>H </c><c>   1</c></rc>
    <rc><c>H </c><c>   1</c></rc>
    <rc><c>H </c><c>   1</c></rc>
    <rc><c>H </c><c>   1</c></rc>
    <rc><c>H </c><c>   1</c></rc>
    <rc><c>H </c><c>   1</c></rc>
    <rc><c>H </c><c>   1</c></rc>
    <rc><c>H </c><c>   1</c></rc>
    <rc><c>H </c><c>   1</c></rc>
    <rc><c>H </c><c>   1</c></rc>
    <rc><c>H </c><c>   1</c></rc>
    <rc><c>H </c><c>   1</c></rc>
    <rc><c>H </c><c>   1</c></rc>
    <rc><c>H </c><c>   1</c></rc>
    <rc><c>H </c><c>   1</c></rc>
    <rc><c>H </c><c>   1</c></rc>
    <rc><c>H </c><c>   1</c></rc>
    <rc><c>H </c><c>   1</c></rc>
    <rc><c>H </c><c>   1</c></rc>
    <rc><c>H </c><c>   1</c></rc>
    <rc><c>H </c><c>   1</c></rc>
    <rc><c>H </c><c>   1</c></rc>
    <rc><c>H </c><c>   1</c></rc>
    <rc><c>H </c><c>   1</c></rc>
    <rc><c>H </c><c>   1</c></rc>
    <rc><c>H </c><c>   1</c></rc>
    <rc><c>H </c><c>   1</c></rc>
    <rc><c>H </c><c>   1</c></rc>
    <rc><c>H </c><c>   1</c></rc>
    <rc><c>H </c><c>   1</c></rc>
    <rc><c>H </c><c>   1</c></rc>
    <rc><c>H </c><c>   1</c></rc>
    <rc><c>H </c><c>   1</c></rc>
    <rc><c>H </c><c>   1</c></rc>
    <rc><c>H </c><c>   1</c></rc>
    <rc><c>H </c><c>   1</c></rc>
    <rc><c>H </c><c>   1</c></rc>
    <rc><c>H </c><c>   1</c></rc>
    <rc><c>H </c><c>   1</c></rc>
    <rc><c>H </c><c>   1</c></rc>
    <rc><c>H </c><c>   1</c></rc>
    <rc><c>H </c><c>   1</c></rc>
    <rc><c>H </c><c>   1</c></rc>
    <rc><c>H </c><c>   1</c></rc>
    <rc><c>H </c><c>   1</c></rc>
    <rc><c>H </c><c>   1</c></rc>
    <rc><c>H </c><c>   1</c></rc>
    <rc><c>H </c><c>   1</c></rc>
    <rc><c>H </c><c>   1</c></rc>
    <rc><c>H </c><c>   1</c></rc>
    <rc><c>H </c><c>   1</c></rc>
    <rc><c>H </c><c>   1</c></rc>
    <rc><c>H </c><c>   1</c></rc>
    <rc><c>H </c><c>   1</c></rc>
    <rc><c>H </c><c>   1</c></rc>
    <rc><c>H </c><c>   1</c></rc>
    <rc><c>H </c><c>   1</c></rc>
    <rc><c>H </c><c>   1</c></rc>
    <rc><c>H </c><c>   1</c></rc>
    <rc><c>H </c><c>   1</c></rc>
    <rc><c>H </c><c>   1</c></rc>
    <rc><c>H </c><c>   1</c></rc>
    <rc><c>H </c><c>   1</c></rc>
    <rc><c>H </c><c>   1</c></rc>
    <rc><c>H </c><c>   1</c></rc>
    <rc><c>H </c><c>   1</c></rc>
    <rc><c>H </c><c>   1</c></rc>
    <rc><c>H </c><c>   1</c></rc>
    <rc><c>H </c><c>   1</c></rc>
    <rc><c>H </c><c>   1</c></rc>
    <rc><c>H </c><c>   1</c></rc>
    <rc><c>H </c><c>   1</c></rc>
    <rc><c>H </c><c>   1</c></rc>
    <rc><c>H </c><c>   1</c></rc>
    <rc><c>H </c><c>   1</c></rc>
    <rc><c>H </c><c>   1</c></rc>
    <rc><c>H </c><c>   1</c></rc>
    <rc><c>H </c><c>   1</c></rc>
    <rc><c>H </c><c>   1</c></rc>
    <rc><c>H </c><c>   1</c></rc>
    <rc><c>H </c><c>   1</c></rc>
    <rc><c>H </c><c>   1</c></rc>
    <rc><c>C </c><c>   2</c></rc>
    <rc><c>C </c><c>   2</c></rc>
    <rc><c>C </c><c>   2</c></rc>
    <rc><c>C </c><c>   2</c></rc>
    <rc><c>C </c><c>   2</c></rc>
    <rc><c>C </c><c>   2</c></rc>
    <rc><c>C </c><c>   2</c></rc>
    <rc><c>C </c><c>   2</c></rc>
    <rc><c>C </c><c>   2</c></rc>
    <rc><c>C </c><c>   2</c></rc>
    <rc><c>C </c><c>   2</c></rc>
    <rc><c>C </c><c>   2</c></rc>
    <rc><c>C </c><c>   2</c></rc>
    <rc><c>C </c><c>   2</c></rc>
    <rc><c>C </c><c>   2</c></rc>
    <rc><c>C </c><c>   2</c></rc>
    <rc><c>C </c><c>   2</c></rc>
    <rc><c>C </c><c>   2</c></rc>
    <rc><c>C </c><c>   2</c></rc>
    <rc><c>C </c><c>   2</c></rc>
    <rc><c>C </c><c>   2</c></rc>
    <rc><c>C </c><c>   2</c></rc>
    <rc><c>C </c><c>   2</c></rc>
    <rc><c>C </c><c>   2</c></rc>
    <rc><c>C </c><c>   2</c></rc>
    <rc><c>C </c><c>   2</c></rc>
    <rc><c>C </c><c>   2</c></rc>
    <rc><c>C </c><c>   2</c></rc>
    <rc><c>C </c><c>   2</c></rc>
    <rc><c>C </c><c>   2</c></rc>
    <rc><c>C </c><c>   2</c></rc>
    <rc><c>C </c><c>   2</c></rc>
    <rc><c>C </c><c>   2</c></rc>
    <rc><c>C </c><c>   2</c></rc>
    <rc><c>C </c><c>   2</c></rc>
    <rc><c>C </c><c>   2</c></rc>
    <rc><c>C </c><c>   2</c></rc>
    <rc><c>C </c><c>   2</c></rc>
    <rc><c>C </c><c>   2</c></rc>
    <rc><c>N </c><c>   3</c></rc>
    <rc><c>N </c><c>   3</c></rc>
    <rc><c>N </c><c>   3</c></rc>
    <rc><c>N </c><c>   3</c></rc>
    <rc><c>N </c><c>   3</c></rc>
    <rc><c>N </c><c>   3</c></rc>
    <rc><c>N </c><c>   3</c></rc>
    <rc><c>N </c><c>   3</c></rc>
    <rc><c>N </c><c>   3</c></rc>
    <rc><c>N </c><c>   3</c></rc>
    <rc><c>N </c><c>   3</c></rc>
    <rc><c>N </c><c>   3</c></rc>
    <rc><c>N </c><c>   3</c></rc>
    <rc><c>N </c><c>   3</c></rc>
    <rc><c>N </c><c>   3</c></rc>
    <rc><c>N </c><c>   3</c></rc>
    <rc><c>N </c><c>   3</c></rc>
    <rc><c>N </c><c>   3</c></rc>
    <rc><c>N </c><c>   3</c></rc>
    <rc><c>N </c><c>   3</c></rc>
    <rc><c>N </c><c>   3</c></rc>
    <rc><c>N </c><c>   3</c></rc>
    <rc><c>N </c><c>   3</c></rc>
    <rc><c>N </c><c>   3</c></rc>
    <rc><c>N </c><c>   3</c></rc>
    <rc><c>N </c><c>   3</c></rc>
    <rc><c>N </c><c>   3</c></rc>
    <rc><c>N </c><c>   3</c></rc>
    <rc><c>N </c><c>   3</c></rc>
    <rc><c>N </c><c>   3</c></rc>
    <rc><c>N </c><c>   3</c></rc>
    <rc><c>N </c><c>   3</c></rc>
    <rc><c>N </c><c>   3</c></rc>
    <rc><c>N </c><c>   3</c></rc>
    <rc><c>N </c><c>   3</c></rc>
    <rc><c>N </c><c>   3</c></rc>
    <rc><c>N </c><c>   3</c></rc>
    <rc><c>N </c><c>   3</c></rc>
    <rc><c>N </c><c>   3</c></rc>
    <rc><c>N </c><c>   3</c></rc>
    <rc><c>N </c><c>   3</c></rc>
    <rc><c>N </c><c>   3</c></rc>
    <rc><c>N </c><c>   3</c></rc>
    <rc><c>N </c><c>   3</c></rc>
    <rc><c>N </c><c>   3</c></rc>
    <rc><c>N </c><c>   3</c></rc>
    <rc><c>N </c><c>   3</c></rc>
    <rc><c>I </c><c>   4</c></rc>
    <rc><c>I </c><c>   4</c></rc>
    <rc><c>I </c><c>   4</c></rc>
    <rc><c>I </c><c>   4</c></rc>
    <rc><c>I </c><c>   4</c></rc>
    <rc><c>I </c><c>   4</c></rc>
    <rc><c>I </c><c>   4</c></rc>
    <rc><c>I </c><c>   4</c></rc>
    <rc><c>I </c><c>   4</c></rc>
    <rc><c>I </c><c>   4</c></rc>
    <rc><c>I </c><c>   4</c></rc>
    <rc><c>I </c><c>   4</c></rc>
    <rc><c>I </c><c>   4</c></rc>
    <rc><c>I </c><c>   4</c></rc>
    <rc><c>I </c><c>   4</c></rc>
    <rc><c>I </c><c>   4</c></rc>
    <rc><c>I </c><c>   4</c></rc>
    <rc><c>I </c><c>   4</c></rc>
    <rc><c>I </c><c>   4</c></rc>
    <rc><c>I </c><c>   4</c></rc>
    <rc><c>I </c><c>   4</c></rc>
    <rc><c>I </c><c>   4</c></rc>
    <rc><c>I </c><c>   4</c></rc>
    <rc><c>I </c><c>   4</c></rc>
    <rc><c>I </c><c>   4</c></rc>
    <rc><c>I </c><c>   4</c></rc>
    <rc><c>I </c><c>   4</c></rc>
    <rc><c>I </c><c>   4</c></rc>
    <rc><c>I </c><c>   4</c></rc>
    <rc><c>I </c><c>   4</c></rc>
    <rc><c>I </c><c>   4</c></rc>
    <rc><c>I </c><c>   4</c></rc>
    <rc><c>I </c><c>   4</c></rc>
    <rc><c>I </c><c>   4</c></rc>
    <rc><c>I </c><c>   4</c></rc>
    <rc><c>I </c><c>   4</c></rc>
    <rc><c>I </c><c>   4</c></rc>
    <rc><c>I </c><c>   4</c></rc>
    <rc><c>I </c><c>   4</c></rc>
    <rc><c>I </c><c>   4</c></rc>
    <rc><c>I </c><c>   4</c></rc>
    <rc><c>I </c><c>   4</c></rc>
    <rc><c>I </c><c>   4</c></rc>
    <rc><c>I </c><c>   4</c></rc>
    <rc><c>I </c><c>   4</c></rc>
    <rc><c>I </c><c>   4</c></rc>
    <rc><c>I </c><c>   4</c></rc>
    <rc><c>I </c><c>   4</c></rc>
    <rc><c>I </c><c>   4</c></rc>
    <rc><c>I </c><c>   4</c></rc>
    <rc><c>I </c><c>   4</c></rc>
    <rc><c>I </c><c>   4</c></rc>
    <rc><c>I </c><c>   4</c></rc>
    <rc><c>I </c><c>   4</c></rc>
    <rc><c>I </c><c>   4</c></rc>
    <rc><c>I </c><c>   4</c></rc>
    <rc><c>I </c><c>   4</c></rc>
    <rc><c>I </c><c>   4</c></rc>
    <rc><c>I </c><c>   4</c></rc>
    <rc><c>I </c><c>   4</c></rc>
    <rc><c>I </c><c>   4</c></rc>
    <rc><c>I </c><c>   4</c></rc>
    <rc><c>I </c><c>   4</c></rc>
    <rc><c>I </c><c>   4</c></rc>
    <rc><c>I </c><c>   4</c></rc>
    <rc><c>I </c><c>   4</c></rc>
    <rc><c>I </c><c>   4</c></rc>
    <rc><c>I </c><c>   4</c></rc>
    <rc><c>I </c><c>   4</c></rc>
    <rc><c>I </c><c>   4</c></rc>
    <rc><c>I </c><c>   4</c></rc>
    <rc><c>I </c><c>   4</c></rc>
    <rc><c>Pb</c><c>   5</c></rc>
    <rc><c>Pb</c><c>   5</c></rc>
    <rc><c>Pb</c><c>   5</c></rc>
    <rc><c>Pb</c><c>   5</c></rc>
    <rc><c>Pb</c><c>   5</c></rc>
    <rc><c>Pb</c><c>   5</c></rc>
    <rc><c>Pb</c><c>   5</c></rc>
    <rc><c>Pb</c><c>   5</c></rc>
    <rc><c>Pb</c><c>   5</c></rc>
    <rc><c>Pb</c><c>   5</c></rc>
    <rc><c>Pb</c><c>   5</c></rc>
    <rc><c>Pb</c><c>   5</c></rc>
    <rc><c>Pb</c><c>   5</c></rc>
    <rc><c>Pb</c><c>   5</c></rc>
    <rc><c>Pb</c><c>   5</c></rc>
    <rc><c>Pb</c><c>   5</c></rc>
    <rc><c>Pb</c><c>   5</c></rc>
    <rc><c>Pb</c><c>   5</c></rc>
    <rc><c>Pb</c><c>   5</c></rc>
    <rc><c>Pb</c><c>   5</c></rc>
    <rc><c>Pb</c><c>   5</c></rc>
    <rc><c>Pb</c><c>   5</c></rc>
    <rc><c>Pb</c><c>   5</c></rc>
    <rc><c>Pb</c><c>   5</c></rc>
   </set>
  </array>
  <array name="atomtypes" >
   <dimension dim="1">type</dimension>
   <field type="int">atomspertype</field>
   <field type="string">element</field>
   <field>mass</field>
   <field>valence</field>
   <field type="string">pseudopotential</field>
   <set>
    <rc><c> 143</c><c>H </c><c>      1.00000000</c><c>      1.00000000</c><c>  PAW_PBE H 15Jun2001                   </c></rc>
    <rc><c>  39</c><c>C </c><c>     12.01100000</c><c>      4.00000000</c><c>  PAW_PBE C 08Apr2002                   </c></rc>
    <rc><c>  47</c><c>N </c><c>     14.00100000</c><c>      5.00000000</c><c>  PAW_PBE N 08Apr2002                   </c></rc>
    <rc><c>  72</c><c>I </c><c>    126.90400000</c><c>      7.00000000</c><c>  PAW_PBE I 08Apr2002                   </c></rc>
    <rc><c>  24</c><c>Pb</c><c>    207.20000000</c><c>      4.00000000</c><c>  PAW_PBE Pb 08Apr2002                  </c></rc>
   </set>
  </array>
 </atominfo>
 <structure name="initialpos" >
  <crystal>
   <varray name="basis" >
    <v>      18.06080055       0.00000000       0.00000000 </v>
    <v>      -0.00491865      18.06279945       0.00000000 </v>
    <v>       0.00000000       0.00000000      62.48749924 </v>
   </varray>
   <i name="volume">  20385.21054034 </i>
   <varray name="rec_basis" >
    <v>       0.05536853       0.00001508      -0.00000000 </v>
    <v>       0.00000000       0.05536240       0.00000000 </v>
    <v>       0.00000000      -0.00000000       0.01600320 </v>
   </varray>
  </crystal>
  <varray name="positions" >
   <v>       0.44151196       0.29188790       0.58272971 </v>
   <v>       0.43603097       0.78799283       0.58084469 </v>
   <v>       0.94330082       0.29549108       0.58391171 </v>
   <v>       0.95366860       0.80160550       0.58083798 </v>
   <v>       0.30217519       0.05042992       0.58168849 </v>
   <v>       0.30460913       0.56709030       0.57973204 </v>
   <v>       0.78756002       0.06374772       0.58157256 </v>
   <v>       0.08211700       0.17252414       0.55847602 </v>
   <v>       0.08804713       0.68002269       0.55687560 </v>
   <v>       0.59293503       0.18767815       0.55785322 </v>
   <v>       0.59299696       0.69506391       0.55702859 </v>
   <v>       0.34330589       0.06057284       0.55694581 </v>
   <v>       0.31733563       0.59037805       0.55324957 </v>
   <v>       0.82481382       0.08314664       0.55682945 </v>
   <v>       0.05964964       0.20867319       0.58383650 </v>
   <v>       0.04558906       0.70054796       0.58072351 </v>
   <v>       0.55135552       0.20205145       0.58253235 </v>
   <v>       0.54694204       0.70595851       0.58236758 </v>
   <v>       0.21846609       0.45152849       0.58513058 </v>
   <v>       0.18500851       0.96379866       0.58138185 </v>
   <v>       0.69832052       0.94865818       0.58160369 </v>
   <v>       0.41216209       0.32272952       0.55738767 </v>
   <v>       0.41269048       0.82842383       0.55605745 </v>
   <v>       0.90602481       0.30758894       0.55824447 </v>
   <v>       0.93511983       0.84370586       0.55680497 </v>
   <v>       0.18635010       0.41271853       0.56167191 </v>
   <v>       0.16386659       0.92859920       0.55645084 </v>
   <v>       0.68886843       0.90661939       0.55687707 </v>
   <v>       0.50634653       0.25796007       0.53874930 </v>
   <v>       0.51419770       0.76774808       0.53873611 </v>
   <v>       0.98371366       0.22670288       0.54188658 </v>
   <v>       0.02365077       0.77190051       0.53810348 </v>
   <v>       0.24442800       0.49477831       0.53912425 </v>
   <v>       0.25972814       0.98460958       0.53853856 </v>
   <v>       0.76759993       0.98821342       0.53876328 </v>
   <v>       0.44229613       0.30208274       0.67216087 </v>
   <v>       0.44463761       0.79812255       0.67455704 </v>
   <v>       0.94371483       0.30563677       0.67179110 </v>
   <v>       0.94473540       0.79876805       0.67569765 </v>
   <v>       0.29843784       0.05345617       0.67428300 </v>
   <v>       0.30498282       0.55061969       0.67382520 </v>
   <v>       0.81110021       0.05481813       0.67284405 </v>
   <v>       0.79791634       0.55492397       0.67295180 </v>
   <v>       0.07730741       0.16748683       0.65043588 </v>
   <v>       0.08437589       0.67838776       0.64958635 </v>
   <v>       0.57884812       0.17146154       0.64962706 </v>
   <v>       0.57536094       0.67174855       0.65041726 </v>
   <v>       0.16719175       0.42365803       0.64989494 </v>
   <v>       0.17557890       0.91237081       0.64955552 </v>
   <v>       0.67117771       0.41074493       0.65652926 </v>
   <v>       0.66680407       0.92840787       0.65180572 </v>
   <v>       0.04197017       0.20086258       0.67465026 </v>
   <v>       0.05002731       0.70308668       0.67489732 </v>
   <v>       0.53985290       0.19760297       0.67415638 </v>
   <v>       0.54596964       0.70027262       0.67535413 </v>
   <v>       0.20095960       0.45320936       0.67503199 </v>
   <v>       0.20099574       0.94786042       0.67486600 </v>
   <v>       0.70421314       0.44737320       0.68013921 </v>
   <v>       0.70421680       0.96097643       0.67618993 </v>
   <v>       0.42386127       0.33669148       0.64629370 </v>
   <v>       0.41727257       0.82932308       0.64898466 </v>
   <v>       0.92249067       0.32864886       0.64596404 </v>
   <v>       0.91535682       0.82997556       0.65006374 </v>
   <v>       0.32960195       0.07978348       0.64860263 </v>
   <v>       0.33261945       0.57908098       0.64802054 </v>
   <v>       0.83435123       0.07784127       0.64644894 </v>
   <v>       0.81310159       0.57839176       0.64606245 </v>
   <v>       0.00485434       0.24580322       0.63089206 </v>
   <v>       0.00112225       0.75658554       0.63168701 </v>
   <v>       0.50910328       0.25497204       0.63024855 </v>
   <v>       0.50001432       0.75040572       0.63161034 </v>
   <v>       0.25402425       0.99286099       0.63139918 </v>
   <v>       0.24770516       0.50034192       0.63118569 </v>
   <v>       0.74683641       0.99982670       0.63141828 </v>
   <v>       0.73038886       0.48535988       0.63409167 </v>
   <v>       0.44874502       0.30128397       0.76888902 </v>
   <v>       0.44874501       0.80128391       0.76888902 </v>
   <v>       0.94874497       0.30128397       0.76888902 </v>
   <v>       0.94874501       0.80128391       0.76888902 </v>
   <v>       0.30127600       0.05129450       0.76887296 </v>
   <v>       0.30127601       0.55129450       0.76887296 </v>
   <v>       0.80127594       0.05129450       0.76887296 </v>
   <v>       0.80127598       0.55129450       0.76887296 </v>
   <v>       0.07877100       0.17118050       0.74344197 </v>
   <v>       0.07877101       0.67118045       0.74344197 </v>
   <v>       0.57877100       0.17118050       0.74344197 </v>
   <v>       0.57877099       0.67118045       0.74344197 </v>
   <v>       0.17119950       0.42117448       0.74342103 </v>
   <v>       0.17119950       0.92117451       0.74342103 </v>
   <v>       0.67119951       0.42117448       0.74342103 </v>
   <v>       0.67119950       0.92117451       0.74342103 </v>
   <v>       0.05125600       0.19871499       0.76888902 </v>
   <v>       0.05125600       0.69871493       0.76888902 </v>
   <v>       0.55125603       0.19871499       0.76888902 </v>
   <v>       0.55125602       0.69871493       0.76888902 </v>
   <v>       0.19872349       0.44870397       0.76887205 </v>
   <v>       0.19872349       0.94870397       0.76887205 </v>
   <v>       0.69872352       0.44870397       0.76887205 </v>
   <v>       0.69872351       0.94870397       0.76887205 </v>
   <v>       0.42123152       0.32881747       0.74344197 </v>
   <v>       0.42123151       0.82881744       0.74344197 </v>
   <v>       0.92123147       0.32881747       0.74344197 </v>
   <v>       0.92123151       0.82881744       0.74344197 </v>
   <v>       0.32880050       0.07882500       0.74342103 </v>
   <v>       0.32880049       0.57882496       0.74342103 </v>
   <v>       0.82880048       0.07882500       0.74342103 </v>
   <v>       0.82880052       0.57882496       0.74342103 </v>
   <v>       0.00000350       0.25000148       0.72582199 </v>
   <v>       0.00000350       0.75000145       0.72582199 </v>
   <v>       0.50000351       0.25000148       0.72582199 </v>
   <v>       0.50000350       0.75000145       0.72582199 </v>
   <v>       0.25000050       0.00000000       0.72580398 </v>
   <v>       0.25000052       0.50000000       0.72580398 </v>
   <v>       0.75000050       0.00000000       0.72580398 </v>
   <v>       0.75000049       0.50000000       0.72580398 </v>
   <v>       0.78185449       0.52964216       0.52577374 </v>
   <v>       0.87246334       0.52082273       0.53607109 </v>
   <v>       0.77421046       0.63133566       0.54237258 </v>
   <v>       0.77781896       0.64261430       0.57085246 </v>
   <v>       0.68868770       0.47689013       0.56427680 </v>
   <v>       0.67824968       0.57122817       0.56955386 </v>
   <v>       0.80532030       0.43665387       0.57420738 </v>
   <v>       0.87209308       0.50838977       0.57868001 </v>
   <v>       0.85435538       0.39464707       0.54944742 </v>
   <v>       0.75978508       0.39506512       0.54195013 </v>
   <v>       0.78080570       0.40223671       0.50483562 </v>
   <v>       0.86903102       0.43905437       0.50799302 </v>
   <v>       0.90974255       0.63933905       0.53960683 </v>
   <v>       0.92332640       0.60609482       0.56656541 </v>
   <v>       0.88247325       0.69240534       0.56343038 </v>
   <v>       0.60590749       0.54966780       0.54005455 </v>
   <v>       0.66980516       0.49885044       0.52617739 </v>
   <v>       0.68082866       0.59645237       0.52879272 </v>
   <v>       0.72592913       0.48036232       0.60135734 </v>
   <v>       0.74413662       0.57605720       0.59500292 </v>
   <v>       0.80745781       0.53058988       0.61125593 </v>
   <v>       0.83628320       0.27769599       0.52140659 </v>
   <v>       0.84024699       0.29666736       0.49419153 </v>
   <v>       0.94733856       0.19295612       0.50184445 </v>
   <v>       0.96581318       0.41955848       0.52087506 </v>
   <v>       0.08298981       0.17859203       0.50660990 </v>
   <v>       0.09942990       0.40551917       0.52601213 </v>
   <v>       0.16076230       0.28268254       0.51863883 </v>
   <v>       0.99147582       0.23770774       0.55834214 </v>
   <v>       0.01379449       0.76388836       0.55572291 </v>
   <v>       0.50411593       0.25282090       0.55611160 </v>
   <v>       0.50443224       0.75953006       0.55578518 </v>
   <v>       0.25063757       0.50001790       0.55671792 </v>
   <v>       0.25461144       0.99291209       0.55609084 </v>
   <v>       0.75847574       0.99421616       0.55625097 </v>
   <v>       0.99956959       0.24863753       0.64816150 </v>
   <v>       0.00047163       0.75364793       0.64991136 </v>
   <v>       0.50222942       0.25284944       0.64817133 </v>
   <v>       0.49910895       0.74941234       0.64968427 </v>
   <v>       0.24911930       0.50055300       0.64916512 </v>
   <v>       0.25177799       0.99568376       0.64948617 </v>
   <v>       0.74167471       0.49387790       0.65130477 </v>
   <v>       0.75096568       0.00227764       0.64938336 </v>
   <v>       0.49998898       0.24999498       0.74327702 </v>
   <v>       0.49998903       0.74999496       0.74327702 </v>
   <v>       0.99998898       0.24999498       0.74327702 </v>
   <v>       0.99998903       0.74999496       0.74327702 </v>
   <v>       0.25000050       0.00000100       0.74325596 </v>
   <v>       0.25000052       0.50000100       0.74325596 </v>
   <v>       0.75000050       0.00000100       0.74325596 </v>
   <v>       0.75000049       0.50000100       0.74325596 </v>
   <v>       0.94665558       0.30691202       0.51073219 </v>
   <v>       0.97940446       0.24102159       0.50686468 </v>
   <v>       0.99291125       0.36691584       0.51700526 </v>
   <v>       0.05781111       0.23264085       0.50911739 </v>
   <v>       0.06728405       0.35978543       0.52014670 </v>
   <v>       0.10177937       0.29048428       0.51577546 </v>
   <v>       0.81437450       0.50441442       0.53801630 </v>
   <v>       0.80401194       0.61428760       0.55696479 </v>
   <v>       0.69931801       0.53100814       0.55801121 </v>
   <v>       0.81245564       0.49520829       0.57838583 </v>
   <v>       0.81557453       0.41665051       0.53729136 </v>
   <v>       0.83088241       0.39948513       0.51425886 </v>
   <v>       0.88660621       0.63800137       0.55611343 </v>
   <v>       0.66403246       0.54534568       0.53677869 </v>
   <v>       0.77041305       0.52222382       0.59759609 </v>
   <v>       0.86048856       0.31631101       0.50999370 </v>
   <v>       0.04784491       0.20294624       0.56790607 </v>
   <v>       0.05247035       0.71037741       0.56516547 </v>
   <v>       0.55198743       0.20944817       0.56596867 </v>
   <v>       0.55020420       0.71726408       0.56574029 </v>
   <v>       0.44830865       0.29139902       0.56630840 </v>
   <v>       0.44501862       0.79433130       0.56543096 </v>
   <v>       0.94357187       0.28291855       0.56766249 </v>
   <v>       0.96311246       0.80645381       0.56522084 </v>
   <v>       0.21620839       0.45159739       0.56823371 </v>
   <v>       0.19728985       0.95971462       0.56485358 </v>
   <v>       0.71162328       0.94696499       0.56515131 </v>
   <v>       0.30306355       0.03779393       0.56515002 </v>
   <v>       0.29365407       0.55647221       0.56336720 </v>
   <v>       0.79233597       0.05066214       0.56511053 </v>
   <v>       0.04097804       0.20486435       0.65866971 </v>
   <v>       0.04631361       0.71074425       0.65888801 </v>
   <v>       0.54048401       0.20591772       0.65833706 </v>
   <v>       0.54425227       0.70513972       0.65961844 </v>
   <v>       0.20536293       0.45855539       0.65940172 </v>
   <v>       0.20859143       0.95157608       0.65928415 </v>
   <v>       0.70208624       0.44650780       0.66338317 </v>
   <v>       0.70687622       0.96357372       0.66050271 </v>
   <v>       0.45155843       0.30065728       0.65658079 </v>
   <v>       0.44914554       0.79630050       0.65889216 </v>
   <v>       0.95157322       0.29802075       0.65631468 </v>
   <v>       0.95021701       0.79705207       0.65887293 </v>
   <v>       0.29373212       0.04415700       0.65875322 </v>
   <v>       0.29994006       0.54744159       0.65818749 </v>
   <v>       0.80377265       0.04835982       0.65738924 </v>
   <v>       0.78716564       0.54385578       0.65726324 </v>
   <v>       0.04586250       0.20411950       0.75272599 </v>
   <v>       0.04586250       0.70411946       0.75272599 </v>
   <v>       0.54586251       0.20411950       0.75272599 </v>
   <v>       0.54586250       0.70411946       0.75272599 </v>
   <v>       0.20411900       0.45410100       0.75270499 </v>
   <v>       0.20411899       0.95410095       0.75270499 </v>
   <v>       0.70411898       0.45410100       0.75270499 </v>
   <v>       0.70411896       0.95410095       0.75270499 </v>
   <v>       0.45414002       0.29588849       0.75272697 </v>
   <v>       0.45414001       0.79588852       0.75272697 </v>
   <v>       0.95414002       0.29588849       0.75272697 </v>
[...]
   <v>       0.59293503       0.18767815       0.55785322 </v>
   <v>       0.59299696       0.69506391       0.55702859 </v>
   <v>       0.34330589       0.06057284       0.55694581 </v>
   <v>       0.31733563       0.59037805       0.55324957 </v>
   <v>       0.82481382       0.08314664       0.55682945 </v>
   <v>       0.05964964       0.20867319       0.58383650 </v>
   <v>       0.04558906       0.70054796       0.58072351 </v>
   <v>       0.55135552       0.20205145       0.58253235 </v>
   <v>       0.54694204       0.70595851       0.58236758 </v>
   <v>       0.21846609       0.45152849       0.58513058 </v>
   <v>       0.18500851       0.96379866       0.58138185 </v>
   <v>       0.69832052       0.94865818       0.58160369 </v>
   <v>       0.41216209       0.32272952       0.55738767 </v>
   <v>       0.41269048       0.82842383       0.55605745 </v>
   <v>       0.90602481       0.30758894       0.55824447 </v>
   <v>       0.93511983       0.84370586       0.55680497 </v>
   <v>       0.18635010       0.41271853       0.56167191 </v>
   <v>       0.16386659       0.92859920       0.55645084 </v>
   <v>       0.68886843       0.90661939       0.55687707 </v>
   <v>       0.50634653       0.25796007       0.53874930 </v>
   <v>       0.51419770       0.76774808       0.53873611 </v>
   <v>       0.98371366       0.22670288       0.54188658 </v>
   <v>       0.02365077       0.77190051       0.53810348 </v>
   <v>       0.24442800       0.49477831       0.53912425 </v>
   <v>       0.25972814       0.98460958       0.53853856 </v>
   <v>       0.76759993       0.98821342       0.53876328 </v>
   <v>       0.44229613       0.30208274       0.67216087 </v>
   <v>       0.44463761       0.79812255       0.67455704 </v>
   <v>       0.94371483       0.30563677       0.67179110 </v>
   <v>       0.94473540       0.79876805       0.67569765 </v>
   <v>       0.29843784       0.05345617       0.67428300 </v>
   <v>       0.30498282       0.55061969       0.67382520 </v>
   <v>       0.81110021       0.05481813       0.67284405 </v>
   <v>       0.79791634       0.55492397       0.67295180 </v>
   <v>       0.07730741       0.16748683       0.65043588 </v>
   <v>       0.08437589       0.67838776       0.64958635 </v>
   <v>       0.57884812       0.17146154       0.64962706 </v>
   <v>       0.57536094       0.67174855       0.65041726 </v>
   <v>       0.16719175       0.42365803       0.64989494 </v>
   <v>       0.17557890       0.91237081       0.64955552 </v>
   <v>       0.67117771       0.41074493       0.65652926 </v>
   <v>       0.66680407       0.92840787       0.65180572 </v>
   <v>       0.04197017       0.20086258       0.67465026 </v>
   <v>       0.05002731       0.70308668       0.67489732 </v>
   <v>       0.53985290       0.19760297       0.67415638 </v>
   <v>       0.54596964       0.70027262       0.67535413 </v>
   <v>       0.20095960       0.45320936       0.67503199 </v>
   <v>       0.20099574       0.94786042       0.67486600 </v>
   <v>       0.70421314       0.44737320       0.68013921 </v>
   <v>       0.70421680       0.96097643       0.67618993 </v>
   <v>       0.42386127       0.33669148       0.64629370 </v>
   <v>       0.41727257       0.82932308       0.64898466 </v>
   <v>       0.92249067       0.32864886       0.64596404 </v>
   <v>       0.91535682       0.82997556       0.65006374 </v>
   <v>       0.32960195       0.07978348       0.64860263 </v>
   <v>       0.33261945       0.57908098       0.64802054 </v>
   <v>       0.83435123       0.07784127       0.64644894 </v>
   <v>       0.81310159       0.57839176       0.64606245 </v>
   <v>       0.00485434       0.24580322       0.63089206 </v>
   <v>       0.00112225       0.75658554       0.63168701 </v>
   <v>       0.50910328       0.25497204       0.63024855 </v>
   <v>       0.50001432       0.75040572       0.63161034 </v>
   <v>       0.25402425       0.99286099       0.63139918 </v>
   <v>       0.24770516       0.50034192       0.63118569 </v>
   <v>       0.74683641       0.99982670       0.63141828 </v>
   <v>       0.73038886       0.48535988       0.63409167 </v>
   <v>       0.44874502       0.30128397       0.76888902 </v>
   <v>       0.44874501       0.80128391       0.76888902 </v>
   <v>       0.94874497       0.30128397       0.76888902 </v>
   <v>       0.94874501       0.80128391       0.76888902 </v>
   <v>       0.30127600       0.05129450       0.76887296 </v>
   <v>       0.30127601       0.55129450       0.76887296 </v>
   <v>       0.80127594       0.05129450       0.76887296 </v>
   <v>       0.80127598       0.55129450       0.76887296 </v>
   <v>       0.07877100       0.17118050       0.74344197 </v>
   <v>       0.07877101       0.67118045       0.74344197 </v>
   <v>       0.57877100       0.17118050       0.74344197 </v>
   <v>       0.57877099       0.67118045       0.74344197 </v>
   <v>       0.17119950       0.42117448       0.74342103 </v>
   <v>       0.17119950       0.92117451       0.74342103 </v>
   <v>       0.67119951       0.42117448       0.74342103 </v>
   <v>       0.67119950       0.92117451       0.74342103 </v>
   <v>       0.05125600       0.19871499       0.76888902 </v>
   <v>       0.05125600       0.69871493       0.76888902 </v>
   <v>       0.55125603       0.19871499       0.76888902 </v>
   <v>       0.55125602       0.69871493       0.76888902 </v>
   <v>       0.19872349       0.44870397       0.76887205 </v>
   <v>       0.19872349       0.94870397       0.76887205 </v>
   <v>       0.69872352       0.44870397       0.76887205 </v>
   <v>       0.69872351       0.94870397       0.76887205 </v>
   <v>       0.42123152       0.32881747       0.74344197 </v>
   <v>       0.42123151       0.82881744       0.74344197 </v>
   <v>       0.92123147       0.32881747       0.74344197 </v>
   <v>       0.92123151       0.82881744       0.74344197 </v>
   <v>       0.32880050       0.07882500       0.74342103 </v>
   <v>       0.32880049       0.57882496       0.74342103 </v>
   <v>       0.82880048       0.07882500       0.74342103 </v>
   <v>       0.82880052       0.57882496       0.74342103 </v>
   <v>       0.00000350       0.25000148       0.72582199 </v>
   <v>       0.00000350       0.75000145       0.72582199 </v>
   <v>       0.50000351       0.25000148       0.72582199 </v>
   <v>       0.50000350       0.75000145       0.72582199 </v>
   <v>       0.25000050       0.00000000       0.72580398 </v>
   <v>       0.25000052       0.50000000       0.72580398 </v>
   <v>       0.75000050       0.00000000       0.72580398 </v>
   <v>       0.75000049       0.50000000       0.72580398 </v>
   <v>       0.78185449       0.52964216       0.52577374 </v>
   <v>       0.87246334       0.52082273       0.53607109 </v>
   <v>       0.77421046       0.63133566       0.54237258 </v>
   <v>       0.77781896       0.64261430       0.57085246 </v>
   <v>       0.68868770       0.47689013       0.56427680 </v>
   <v>       0.67824968       0.57122817       0.56955386 </v>
   <v>       0.80532030       0.43665387       0.57420738 </v>
   <v>       0.87209308       0.50838977       0.57868001 </v>
   <v>       0.85435538       0.39464707       0.54944742 </v>
   <v>       0.75978508       0.39506512       0.54195013 </v>
   <v>       0.78080570       0.40223671       0.50483562 </v>
   <v>       0.86903102       0.43905437       0.50799302 </v>
   <v>       0.90974255       0.63933905       0.53960683 </v>
   <v>       0.92332640       0.60609482       0.56656541 </v>
   <v>       0.88247325       0.69240534       0.56343038 </v>
   <v>       0.60590749       0.54966780       0.54005455 </v>
   <v>       0.66980516       0.49885044       0.52617739 </v>
   <v>       0.68082866       0.59645237       0.52879272 </v>
   <v>       0.72592913       0.48036232       0.60135734 </v>
   <v>       0.74413662       0.57605720       0.59500292 </v>
   <v>       0.80745781       0.53058988       0.61125593 </v>
   <v>       0.83628320       0.27769599       0.52140659 </v>
   <v>       0.84024699       0.29666736       0.49419153 </v>
   <v>       0.94733856       0.19295612       0.50184445 </v>
   <v>       0.96581318       0.41955848       0.52087506 </v>
   <v>       0.08298981       0.17859203       0.50660990 </v>
   <v>       0.09942990       0.40551917       0.52601213 </v>
   <v>       0.16076230       0.28268254       0.51863883 </v>
   <v>       0.99147582       0.23770774       0.55834214 </v>
   <v>       0.01379449       0.76388836       0.55572291 </v>
   <v>       0.50411593       0.25282090       0.55611160 </v>
   <v>       0.50443224       0.75953006       0.55578518 </v>
   <v>       0.25063757       0.50001790       0.55671792 </v>
   <v>       0.25461144       0.99291209       0.55609084 </v>
   <v>       0.75847574       0.99421616       0.55625097 </v>
   <v>       0.99956959       0.24863753       0.64816150 </v>
   <v>       0.00047163       0.75364793       0.64991136 </v>
   <v>       0.50222942       0.25284944       0.64817133 </v>
   <v>       0.49910895       0.74941234       0.64968427 </v>
   <v>       0.24911930       0.50055300       0.64916512 </v>
   <v>       0.25177799       0.99568376       0.64948617 </v>
   <v>       0.74167471       0.49387790       0.65130477 </v>
   <v>       0.75096568       0.00227764       0.64938336 </v>
   <v>       0.49998898       0.24999498       0.74327702 </v>
   <v>       0.49998903       0.74999496       0.74327702 </v>
   <v>       0.99998898       0.24999498       0.74327702 </v>
   <v>       0.99998903       0.74999496       0.74327702 </v>
   <v>       0.25000050       0.00000100       0.74325596 </v>
   <v>       0.25000052       0.50000100       0.74325596 </v>
   <v>       0.75000050       0.00000100       0.74325596 </v>
   <v>       0.75000049       0.50000100       0.74325596 </v>
   <v>       0.94665558       0.30691202       0.51073219 </v>
   <v>       0.97940446       0.24102159       0.50686468 </v>
   <v>       0.99291125       0.36691584       0.51700526 </v>
   <v>       0.05781111       0.23264085       0.50911739 </v>
   <v>       0.06728405       0.35978543       0.52014670 </v>
   <v>       0.10177937       0.29048428       0.51577546 </v>
   <v>       0.81437450       0.50441442       0.53801630 </v>
   <v>       0.80401194       0.61428760       0.55696479 </v>
   <v>       0.69931801       0.53100814       0.55801121 </v>
   <v>       0.81245564       0.49520829       0.57838583 </v>
   <v>       0.81557453       0.41665051       0.53729136 </v>
   <v>       0.83088241       0.39948513       0.51425886 </v>
   <v>       0.88660621       0.63800137       0.55611343 </v>
   <v>       0.66403246       0.54534568       0.53677869 </v>
   <v>       0.77041305       0.52222382       0.59759609 </v>
   <v>       0.86048856       0.31631101       0.50999370 </v>
   <v>       0.04784491       0.20294624       0.56790607 </v>
   <v>       0.05247035       0.71037741       0.56516547 </v>
   <v>       0.55198743       0.20944817       0.56596867 </v>
   <v>       0.55020420       0.71726408       0.56574029 </v>
   <v>       0.44830865       0.29139902       0.56630840 </v>
   <v>       0.44501862       0.79433130       0.56543096 </v>
   <v>       0.94357187       0.28291855       0.56766249 </v>
   <v>       0.96311246       0.80645381       0.56522084 </v>
   <v>       0.21620839       0.45159739       0.56823371 </v>
   <v>       0.19728985       0.95971462       0.56485358 </v>
   <v>       0.71162328       0.94696499       0.56515131 </v>
   <v>       0.30306355       0.03779393       0.56515002 </v>
   <v>       0.29365407       0.55647221       0.56336720 </v>
   <v>       0.79233597       0.05066214       0.56511053 </v>
   <v>       0.04097804       0.20486435       0.65866971 </v>
   <v>       0.04631361       0.71074425       0.65888801 </v>
   <v>       0.54048401       0.20591772       0.65833706 </v>
   <v>       0.54425227       0.70513972       0.65961844 </v>
   <v>       0.20536293       0.45855539       0.65940172 </v>
   <v>       0.20859143       0.95157608       0.65928415 </v>
   <v>       0.70208624       0.44650780       0.66338317 </v>
   <v>       0.70687622       0.96357372       0.66050271 </v>
   <v>       0.45155843       0.30065728       0.65658079 </v>
   <v>       0.44914554       0.79630050       0.65889216 </v>
   <v>       0.95157322       0.29802075       0.65631468 </v>
   <v>       0.95021701       0.79705207       0.65887293 </v>
   <v>       0.29373212       0.04415700       0.65875322 </v>
   <v>       0.29994006       0.54744159       0.65818749 </v>
   <v>       0.80377265       0.04835982       0.65738924 </v>
   <v>       0.78716564       0.54385578       0.65726324 </v>
   <v>       0.04586250       0.20411950       0.75272599 </v>
   <v>       0.04586250       0.70411946       0.75272599 </v>
   <v>       0.54586251       0.20411950       0.75272599 </v>
   <v>       0.54586250       0.70411946       0.75272599 </v>
   <v>       0.20411900       0.45410100       0.75270499 </v>
   <v>       0.20411899       0.95410095       0.75270499 </v>
   <v>       0.70411898       0.45410100       0.75270499 </v>
   <v>       0.70411896       0.95410095       0.75270499 </v>
   <v>       0.45414002       0.29588849       0.75272697 </v>
   <v>       0.45414001       0.79588852       0.75272697 </v>
   <v>       0.95414002       0.29588849       0.75272697 </v>
   <v>       0.95414006       0.79588852       0.75272697 </v>
   <v>       0.29588249       0.04590050       0.75270499 </v>
   <v>       0.29588248       0.54590053       0.75270499 </v>
   <v>       0.79588244       0.04590050       0.75270499 </v>
   <v>       0.79588248       0.54590053       0.75270499 </v>
   <v>       0.78176587       0.53307143       0.55785224 </v>
   <v>       0.49757708       0.00281708       0.55237702 </v>
   <v>       0.48343297       0.48485023       0.55382989 </v>
   <v>       0.99864035       0.00035455       0.55163853 </v>
   <v>       0.01521537       0.49971447       0.55610000 </v>
   <v>       0.26175766       0.24700001       0.55415057 </v>
   <v>       0.25114408       0.75584320       0.55225304 </v>
   <v>       0.73705864       0.23545590       0.55517635 </v>
   <v>       0.73452997       0.76551727       0.54801488 </v>
   <v>       0.99859725       0.00014939       0.65423040 </v>
   <v>       0.00290886       0.49755853       0.65565964 </v>
   <v>       0.50100329       0.00028638       0.65502646 </v>
   <v>       0.49897210       0.49782679       0.65456976 </v>
   <v>       0.25000298       0.24612729       0.65499056 </v>
   <v>       0.24917906       0.75004496       0.65376199 </v>
   <v>       0.74639800       0.24630189       0.65501089 </v>
   <v>       0.74874869       0.75133966       0.65457965 </v>
   <v>       0.14599467       0.10568333       0.60812774 </v>
   <v>       0.14827055       0.60925371       0.60827315 </v>
   <v>       0.64578225       0.10918329       0.60889370 </v>
   <v>       0.62735310       0.62269906       0.61190376 </v>
   <v>       0.35831334       0.39421336       0.60931669 </v>
   <v>       0.35715056       0.89449773       0.60883973 </v>
   <v>       0.87266541       0.37789562       0.61180847 </v>
   <v>       0.85814460       0.89616624       0.60798666 </v>
   <v>       0.11134739       0.35258691       0.60806626 </v>
   <v>       0.10473551       0.85775792       0.60846533 </v>
   <v>       0.61241214       0.36409269       0.60654508 </v>
   <v>       0.60450726       0.86091216       0.60857320 </v>
   <v>       0.39529317       0.14421607       0.60888228 </v>
   <v>       0.39376782       0.64137218       0.60779198 </v>
   <v>       0.88958074       0.14202908       0.60876812 </v>
   <v>       0.90619287       0.65674397       0.61173417 </v>
   <v>       0.00000000       0.00000000       0.75492797 </v>
   <v>       0.00000000       0.50000000       0.75492797 </v>
   <v>       0.50000000       0.00000000       0.75492797 </v>
   <v>       0.49999999       0.50000000       0.75492797 </v>
   <v>       0.25000050       0.25000000       0.75493902 </v>
   <v>       0.25000051       0.74999997       0.75493902 </v>
   <v>       0.75000047       0.25000000       0.75493902 </v>
   <v>       0.75000046       0.74999997       0.75493902 </v>
   <v>       0.13579050       0.11421000       0.70478299 </v>
   <v>       0.13579050       0.61420998       0.70478299 </v>
   <v>       0.63579045       0.11421000       0.70478299 </v>
   <v>       0.63579049       0.61420998       0.70478299 </v>
   <v>       0.36420952       0.38578999       0.70478299 </v>
   <v>       0.36420950       0.88578996       0.70478299 </v>
   <v>       0.86420954       0.38578999       0.70478299 </v>
   <v>       0.86420953       0.88578996       0.70478299 </v>
   <v>       0.11421799       0.36421899       0.70478098 </v>
   <v>       0.11421799       0.86421899       0.70478098 </v>
   <v>       0.61421800       0.36421899       0.70478098 </v>
   <v>       0.61421799       0.86421899       0.70478098 </v>
   <v>       0.38578201       0.13578149       0.70478202 </v>
   <v>       0.38578200       0.63578149       0.70478202 </v>
   <v>       0.88578199       0.13578149       0.70478202 </v>
   <v>       0.88578203       0.63578149       0.70478202 </v>
   <v>       0.13466700       0.11533200       0.80125603 </v>
   <v>       0.13466699       0.61533199       0.80125603 </v>
   <v>       0.63466699       0.11533200       0.80125603 </v>
   <v>       0.63466698       0.61533199       0.80125603 </v>
   <v>       0.36533300       0.38466799       0.80125603 </v>
   <v>       0.36533299       0.88466796       0.80125603 </v>
   <v>       0.86533295       0.38466799       0.80125603 </v>
   <v>       0.86533294       0.88466796       0.80125603 </v>
   <v>       0.11532850       0.36533700       0.80126500 </v>
   <v>       0.11532850       0.86533698       0.80126500 </v>
   <v>       0.61532850       0.36533700       0.80126500 </v>
   <v>       0.61532849       0.86533698       0.80126500 </v>
   <v>       0.38467151       0.13466300       0.80126500 </v>
   <v>       0.38467150       0.63466297       0.80126500 </v>
   <v>       0.88467149       0.13466300       0.80126500 </v>
   <v>       0.88467153       0.63466297       0.80126500 </v>
   <v>       0.00098311       0.99807923       0.60340804 </v>
   <v>       0.01064479       0.50076340       0.60552120 </v>
   <v>       0.49706358       0.99895998       0.60295251 </v>
   <v>       0.49852527       0.50127491       0.60341854 </v>
   <v>       0.25019259       0.24776711       0.60380094 </v>
   <v>       0.24725019       0.75042125       0.60257267 </v>
   <v>       0.75250700       0.24923237       0.60490248 </v>
   <v>       0.75107686       0.75814713       0.60430635 </v>
   <v>       0.00000050       0.00000050       0.70482896 </v>
   <v>       0.00000050       0.50000048       0.70482896 </v>
   <v>       0.50000048       0.00000050       0.70482896 </v>
   <v>       0.50000046       0.50000048       0.70482896 </v>
   <v>       0.24999999       0.24999947       0.70482499 </v>
   <v>       0.25000001       0.74999950       0.70482499 </v>
   <v>       0.74999999       0.24999947       0.70482499 </v>
   <v>       0.74999998       0.74999950       0.70482499 </v>
   <v>       0.00000000       0.00000000       0.80731797 </v>
   <v>       0.00000000       0.50000000       0.80731797 </v>
   <v>       0.50000000       0.00000000       0.80731797 </v>
   <v>       0.49999999       0.50000000       0.80731797 </v>
   <v>       0.24999999       0.25000000       0.80731797 </v>
   <v>       0.25000001       0.74999997       0.80731797 </v>
   <v>       0.74999999       0.25000000       0.80731797 </v>
   <v>       0.74999998       0.74999997       0.80731797 </v>
  </varray>
 </structure>
</modeling>
