 vasp.6.2.1 16May21 (build Nov 15 2021 14:57:28) complex                         
 executed on             LinuxPGI date 2023.07.25  02:45:58
 running on    4 total cores
 distrk:  each k-point on    4 cores,    1 groups
 distr:  one band on NCORE=   1 cores,    4 groups


--------------------------------------------------------------------------------------------------------


 INCAR:
   SYSTEM = PSC
   ISTART = 1
   ICHARG = 1
   PREC = Normal
   ENCUT = 500
   GGA_COMPAT = F
   NELM = 600
   ISYM = 0
   LREAL = Auto
   ISMEAR = 0
   SIGMA = 0.05
   AMIN = 0.01
   BMIX = 0.01
   LVTOT = T
   LWAVE = F
   LDIPOL = T
   IDIPOL = 3
   LVDW = T
   IVDW = 12

 POTCAR:    PAW_PBE H 15Jun2001                   
 POTCAR:    PAW_PBE C 08Apr2002                   
 POTCAR:    PAW_PBE N 08Apr2002                   
 POTCAR:    PAW_PBE I 08Apr2002                   
 POTCAR:    PAW_PBE Pb 08Apr2002                  
 WARNING: For LVTOT=.TRUE., VASP.5.x writes the TOTAL local potential to the
     file LOCPOT. If you want only the Hartree contributions, use LVHAR=.TRUE.
     instead. 

 POTCAR:    PAW_PBE H 15Jun2001                   
   SHA256 =  030f79b5d3ab3cf0e668861823c8fb652ff669f3e15e46930bd03bfd63a607b6 H/POTCAR              
   COPYR  = (c) Copyright 15Jun2001 Georg Kresse                                                    
   COPYR  = This file is part of the software VASP. Any use, copying, and all other rights are regul
   COPYR  = If you do not have a valid VASP license, you may not use, copy or distribute this file. 
   VRHFIN =H: ultrasoft test                                                                        
   LEXCH  = PE                                                                                      
   EATOM  =    12.4884 eV,    0.9179 Ry                                                             
                                                                                                    
   TITEL  = PAW_PBE H 15Jun2001                                                                     
   LULTRA =        F    use ultrasoft PP ?                                                          
   IUNSCR =        0    unscreen: 0-lin 1-nonlin 2-no                                               
   RPACOR =    0.000    partial core radius                                                         
   POMASS =    1.000; ZVAL   =    1.000    mass and valenz                                          
   RCORE  =    1.100    outmost cutoff radius                                                       
   RWIGS  =    0.700; RWIGS  =    0.370    wigner-seitz radius (au A)                               
   ENMAX  =  250.000; ENMIN  =  200.000 eV                                                          
   RCLOC  =    0.701    cutoff for local pot                                                        
   LCOR   =        T    correct aug charges                                                         
   LPAW   =        T    paw PP                                                                      
   EAUG   =  400.000                                                                                
   RMAX   =    1.123    core radius for proj-oper                                                   
   RAUG   =    1.200    factor for augmentation sphere                                              
   RDEP   =    1.112    radius for radial grids                                                     
   RDEPT  =    0.926    core radius for aug-charge                                                  
                                                                                                    
   Atomic configuration                                                                             
    2 entries                                                                                       
     n  l   j            E        occ.                                                              
     1  0  0.50        -6.4927   1.0000                                                             
     2  1  0.50        -3.4015   0.0000                                                             
   Description                                                                                      
     l       E           TYP  RCUT    TYP  RCUT                                                     
     0     -6.4927494     23  1.100                                                                 
     0      6.8029130     23  1.100                                                                 
     1     -4.0817478     23  1.100                                                                 
  local pseudopotential read in
  atomic valenz-charges read in
  non local Contribution for L=            0  read in
    real space projection operators read in
  non local Contribution for L=            0  read in
    real space projection operators read in
  non local Contribution for L=            1  read in
    real space projection operators read in
    PAW grid and wavefunctions read in
 
   number of l-projection  operators is LMAX  =            3
   number of lm-projection operators is LMMAX =            5
 
 POTCAR:    PAW_PBE C 08Apr2002                   
   SHA256 =  253f7b50bb8d59471dbedb8285d89021f4a42ed1a2c5d38a03a736e69125dd95 C/POTCAR              
   COPYR  = (c) Copyright 08Apr2002 Georg Kresse                                                    
   COPYR  = This file is part of the software VASP. Any use, copying, and all other rights are regul
   COPYR  = If you do not have a valid VASP license, you may not use, copy or distribute this file. 
   VRHFIN =C: s2p2                                                                                  
   LEXCH  = PE                                                                                      
   EATOM  =   147.1560 eV,   10.8157 Ry                                                             
                                                                                                    
   TITEL  = PAW_PBE C 08Apr2002                                                                     
   LULTRA =        F    use ultrasoft PP ?                                                          
   IUNSCR =        1    unscreen: 0-lin 1-nonlin 2-no                                               
   RPACOR =    1.200    partial core radius                                                         
   POMASS =   12.011; ZVAL   =    4.000    mass and valenz                                          
   RCORE  =    1.500    outmost cutoff radius                                                       
   RWIGS  =    1.630; RWIGS  =    0.863    wigner-seitz radius (au A)                               
   ENMAX  =  400.000; ENMIN  =  300.000 eV                                                          
   ICORE  =        2    local potential                                                             
   LCOR   =        T    correct aug charges                                                         
   LPAW   =        T    paw PP                                                                      
   EAUG   =  644.873                                                                                
   DEXC   =    0.000                                                                                
   RMAX   =    1.529    core radius for proj-oper                                                   
   RAUG   =    1.300    factor for augmentation sphere                                              
   RDEP   =    1.501    radius for radial grids                                                     
   RDEPT  =    1.300    core radius for aug-charge                                                  
                                                                                                    
   Atomic configuration                                                                             
    4 entries                                                                                       
     n  l   j            E        occ.                                                              
     1  0  0.50      -273.3789   2.0000                                                             
     2  0  0.50       -13.7508   2.0000                                                             
     2  1  0.50        -5.2854   2.0000                                                             
     3  2  1.50        -5.4423   0.0000                                                             
   Description                                                                                      
     l       E           TYP  RCUT    TYP  RCUT                                                     
     0    -13.7508458     23  1.200                                                                 
     0     -8.2022199     23  1.200                                                                 
     1     -5.2854383     23  1.500                                                                 
     1     34.0145650     23  1.500                                                                 
     2     -5.4423304      7  1.500                                                                 
  local pseudopotential read in
  partial core-charges read in
  partial kinetic energy density read in
  atomic valenz-charges read in
  non local Contribution for L=            0  read in
    real space projection operators read in
  non local Contribution for L=            0  read in
    real space projection operators read in
  non local Contribution for L=            1  read in
    real space projection operators read in
  non local Contribution for L=            1  read in
    real space projection operators read in
    PAW grid and wavefunctions read in
 
   number of l-projection  operators is LMAX  =            4
   number of lm-projection operators is LMMAX =            8
 
 POTCAR:    PAW_PBE N 08Apr2002                   
   SHA256 =  e053789ff3a61a86a1b75d8a110fcc91f86041011e7b0817c7c99e4e8a6349d7 N/POTCAR              
   COPYR  = (c) Copyright 08Apr2002 Georg Kresse                                                    
   COPYR  = This file is part of the software VASP. Any use, copying, and all other rights are regul
   COPYR  = If you do not have a valid VASP license, you may not use, copy or distribute this file. 
   VRHFIN =N: s2p3                                                                                  
   LEXCH  = PE                                                                                      
   EATOM  =   264.5486 eV,   19.4438 Ry                                                             
                                                                                                    
   TITEL  = PAW_PBE N 08Apr2002                                                                     
   LULTRA =        F    use ultrasoft PP ?                                                          
   IUNSCR =        1    unscreen: 0-lin 1-nonlin 2-no                                               
   RPACOR =    1.200    partial core radius                                                         
   POMASS =   14.001; ZVAL   =    5.000    mass and valenz                                          
   RCORE  =    1.500    outmost cutoff radius                                                       
   RWIGS  =    1.400; RWIGS  =    0.741    wigner-seitz radius (au A)                               
   ENMAX  =  400.000; ENMIN  =  300.000 eV                                                          
   ICORE  =        2    local potential                                                             
   LCOR   =        T    correct aug charges                                                         
   LPAW   =        T    paw PP                                                                      
   EAUG   =  627.112                                                                                
   DEXC   =    0.000                                                                                
   RMAX   =    1.529    core radius for proj-oper                                                   
   RAUG   =    1.300    factor for augmentation sphere                                              
   RDEP   =    1.514    radius for radial grids                                                     
   RDEPT  =    1.338    core radius for aug-charge                                                  
                                                                                                    
   Atomic configuration                                                                             
    4 entries                                                                                       
     n  l   j            E        occ.                                                              
     1  0  0.50      -384.7179   2.0000                                                             
     2  0  0.50       -18.5828   2.0000                                                             
     2  1  0.50        -7.0898   3.0000                                                             
     3  2  1.50        -6.8029   0.0000                                                             
   Description                                                                                      
     l       E           TYP  RCUT    TYP  RCUT                                                     
     0    -18.5828119     23  1.200                                                                 
     0    -13.5018863     23  1.200                                                                 
     1     -7.0897853     23  1.500                                                                 
     1      9.5240782     23  1.500                                                                 
     2     -6.8029130      7  1.500                                                                 
  local pseudopotential read in
  partial core-charges read in
  partial kinetic energy density read in
  atomic valenz-charges read in
  non local Contribution for L=            0  read in
    real space projection operators read in
  non local Contribution for L=            0  read in
    real space projection operators read in
  non local Contribution for L=            1  read in
    real space projection operators read in
  non local Contribution for L=            1  read in
    real space projection operators read in
    PAW grid and wavefunctions read in
 
   number of l-projection  operators is LMAX  =            4
   number of lm-projection operators is LMMAX =            8
 
 POTCAR:    PAW_PBE I 08Apr2002                   
   SHA256 =  e40f3f59b681c1fc3e3091736183c4589116986673d2b852a5012aec72758799 I/POTCAR              
   COPYR  = (c) Copyright 08Apr2002 Georg Kresse                                                    
   COPYR  = This file is part of the software VASP. Any use, copying, and all other rights are regul
   COPYR  = If you do not have a valid VASP license, you may not use, copy or distribute this file. 
   VRHFIN =I : s2p5                                                                                 
   LEXCH  = PE                                                                                      
   EATOM  =   315.8678 eV,   23.2156 Ry                                                             
                                                                                                    
   TITEL  = PAW_PBE I 08Apr2002                                                                     
   LULTRA =        F    use ultrasoft PP ?                                                          
   IUNSCR =        1    unscreen: 0-lin 1-nonlin 2-no                                               
   RPACOR =    2.200    partial core radius                                                         
   POMASS =  126.904; ZVAL   =    7.000    mass and valenz                                          
   RCORE  =    2.300    outmost cutoff radius                                                       
   RWIGS  =    2.810; RWIGS  =    1.487    wigner-seitz radius (au A)                               
   ENMAX  =  175.647; ENMIN  =  131.735 eV                                                          
   ICORE  =        3    local potential                                                             
   LCOR   =        T    correct aug charges                                                         
   LPAW   =        T    paw PP                                                                      
   EAUG   =  370.139                                                                                
   DEXC   =    0.000                                                                                
   RMAX   =    2.359    core radius for proj-oper                                                   
   RAUG   =    1.300    factor for augmentation sphere                                              
   RDEP   =    2.392    radius for radial grids                                                     
   RDEPT  =    2.170    core radius for aug-charge                                                  
                                                                                                    
   Atomic configuration                                                                             
   13 entries                                                                                       
     n  l   j            E        occ.                                                              
     1  0  0.50    -32976.3739   2.0000                                                             
     2  0  0.50     -5094.5933   2.0000                                                             
     2  1  1.50     -4572.0131   6.0000                                                             
     3  0  0.50     -1028.2813   2.0000                                                             
     3  1  1.50      -859.0250   6.0000                                                             
     3  2  2.50      -605.7620  10.0000                                                             
     4  0  0.50      -180.5540   2.0000                                                             
     4  1  1.50      -127.5306   6.0000                                                             
     4  2  2.50       -50.2720  10.0000                                                             
     5  0  0.50       -17.4058   2.0000                                                             
     5  1  0.50        -7.0851   5.0000                                                             
     5  2  1.50        -7.0750   0.0000                                                             
     4  3  2.50        -7.0750   0.0000                                                             
   Description                                                                                      
     l       E           TYP  RCUT    TYP  RCUT                                                     
     0    -17.4058016     23  2.300                                                                 
     0    -18.7663842     23  2.300                                                                 
     1     -7.0850686     23  2.300                                                                 
     1     -4.2150896     23  2.300                                                                 
     2     -7.0750295     23  2.300                                                                 
     3     -1.3605826     23  2.300                                                                 
  local pseudopotential read in
  partial core-charges read in
  partial kinetic energy density read in
  atomic valenz-charges read in
  non local Contribution for L=            0  read in
    real space projection operators read in
  non local Contribution for L=            0  read in
    real space projection operators read in
  non local Contribution for L=            1  read in
    real space projection operators read in
  non local Contribution for L=            1  read in
    real space projection operators read in
  non local Contribution for L=            2  read in
    real space projection operators read in
    PAW grid and wavefunctions read in
 
   number of l-projection  operators is LMAX  =            5
   number of lm-projection operators is LMMAX =           13
 
 POTCAR:    PAW_PBE Pb 08Apr2002                  
   SHA256 =  797118a27cf1bcd06b9881c67a26cdde129e3cd1a551dd4a281f9681ce847303 Pb/POTCAR             
   COPYR  = (c) Copyright 08Apr2002 Georg Kresse                                                    
   COPYR  = This file is part of the software VASP. Any use, copying, and all other rights are regul
   COPYR  = If you do not have a valid VASP license, you may not use, copy or distribute this file. 
   VRHFIN =Pb:                                                                                      
   LEXCH  = PE                                                                                      
   EATOM  =    96.9868 eV,    7.1283 Ry                                                             
                                                                                                    
   TITEL  = PAW_PBE Pb 08Apr2002                                                                    
   LULTRA =        F    use ultrasoft PP ?                                                          
   IUNSCR =        1    unscreen: 0-lin 1-nonlin 2-no                                               
   RPACOR =    2.200    partial core radius                                                         
   POMASS =  207.200; ZVAL   =    4.000    mass and valenz                                          
   RCORE  =    3.100    outmost cutoff radius                                                       
   RWIGS  =    3.260; RWIGS  =    1.725    wigner-seitz radius (au A)                               
   ENMAX  =   97.973; ENMIN  =   73.480 eV                                                          
   ICORE  =        3    local potential                                                             
   LCOR   =        T    correct aug charges                                                         
   LPAW   =        T    paw PP                                                                      
   EAUG   =  234.873                                                                                
   DEXC   =    0.000                                                                                
   RMAX   =    3.158    core radius for proj-oper                                                   
   RAUG   =    1.300    factor for augmentation sphere                                              
   RDEP   =    3.202    radius for radial grids                                                     
   RDEPT  =    2.659    core radius for aug-charge                                                  
                                                                                                    
   Atomic configuration                                                                             
   17 entries                                                                                       
     n  l   j            E        occ.                                                              
     1  0  0.50    -88091.8466   2.0000                                                             
     2  0  0.50    -15753.4197   2.0000                                                             
     2  1  1.50    -13508.1797   6.0000                                                             
     3  0  0.50     -3781.7194   2.0000                                                             
     3  1  1.50     -3138.2529   6.0000                                                             
     3  2  2.50     -2483.2977  10.0000                                                             
     4  0  0.50      -856.2895   2.0000                                                             
     4  1  1.50      -645.4943   6.0000                                                             
     4  2  2.50      -401.8768  10.0000                                                             
     4  3  3.50      -132.9059  14.0000                                                             
     5  0  0.50      -144.0950   2.0000                                                             
     5  1  1.50       -85.7879   6.0000                                                             
     5  2  2.50       -21.1769  10.0000                                                             
     6  0  0.50       -12.0372   2.0000                                                             
     6  1  1.50        -3.4971   2.0000                                                             
     6  2  2.50        -1.3606   0.0000                                                             
     5  3  2.50        -2.7212   0.0000                                                             
   Description                                                                                      
     l       E           TYP  RCUT    TYP  RCUT                                                     
     0    -12.0371566     23  3.100                                                                 
     0    -13.3977392     23  3.100                                                                 
     1     -3.4971341     23  3.100                                                                 
     1     -5.4423304     23  3.100                                                                 
     2     -1.3605826     23  3.100                                                                 
     3     -1.3605826     23  3.100                                                                 
  local pseudopotential read in
  partial core-charges read in
  partial kinetic energy density read in
  atomic valenz-charges read in
  non local Contribution for L=            0  read in
    real space projection operators read in
  non local Contribution for L=            0  read in
    real space projection operators read in
  non local Contribution for L=            1  read in
    real space projection operators read in
  non local Contribution for L=            1  read in
    real space projection operators read in
  non local Contribution for L=            2  read in
    real space projection operators read in
    PAW grid and wavefunctions read in
 
   number of l-projection  operators is LMAX  =            5
   number of lm-projection operators is LMMAX =           13
 
 Optimization of the real space projectors (new method)

 maximal supplied QI-value         = 34.20
 optimisation between [QCUT,QGAM] = [ 11.29, 22.57] = [ 35.68,142.71] Ry 
 Optimized for a Real-space Cutoff    1.16 Angstroem

   l    n(q)    QCUT    max X(q) W(low)/X(q) W(high)/X(q)  e(spline) 
   0      8    11.287    19.460    0.40E-03    0.73E-03    0.16E-06
   0      8    11.287    12.209    0.38E-03    0.70E-03    0.15E-06
   1      7    11.287     4.655    0.22E-03    0.25E-04    0.22E-06
 Optimization of the real space projectors (new method)

 maximal supplied QI-value         = 25.13
 optimisation between [QCUT,QGAM] = [ 11.31, 22.87] = [ 35.82,146.48] Ry 
 Optimized for a Real-space Cutoff    1.00 Angstroem

   l    n(q)    QCUT    max X(q) W(low)/X(q) W(high)/X(q)  e(spline) 
   0      7    11.310   115.676    0.43E-03    0.13E-02    0.19E-06
   0      7    11.310    87.132    0.43E-03    0.13E-02    0.18E-06
   1      6    11.310     4.429    0.42E-03    0.74E-03    0.11E-06
   1      6    11.310     2.733    0.34E-03    0.55E-03    0.92E-07
 Optimization of the real space projectors (new method)

 maximal supplied QI-value         = 25.13
 optimisation between [QCUT,QGAM] = [ 11.31, 22.87] = [ 35.82,146.48] Ry 
 Optimized for a Real-space Cutoff    1.27 Angstroem

   l    n(q)    QCUT    max X(q) W(low)/X(q) W(high)/X(q)  e(spline) 
   0      9    11.310    79.467    0.75E-04    0.16E-03    0.36E-06
   0      9    11.310    66.151    0.74E-04    0.16E-03    0.36E-06
   1      8    11.310    17.416    0.35E-03    0.12E-03    0.95E-06
   1      8    11.310    12.382    0.37E-03    0.13E-03    0.98E-06
 Optimization of the real space projectors (new method)

 maximal supplied QI-value         = 16.25
 optimisation between [QCUT,QGAM] = [ 11.38, 22.75] = [ 36.24,144.96] Ry 
 Optimized for a Real-space Cutoff    1.31 Angstroem

   l    n(q)    QCUT    max X(q) W(low)/X(q) W(high)/X(q)  e(spline) 
   0      9    11.376   194.483    0.24E-03    0.23E-03    0.67E-07
   0      9    11.376   190.334    0.23E-03    0.22E-03    0.65E-07
   1      8    11.376   116.687    0.25E-03    0.63E-04    0.16E-06
   1      8    11.376    88.696    0.25E-03    0.61E-04    0.16E-06
   2      8    11.376     4.877    0.17E-03    0.14E-03    0.29E-07
 Optimization of the real space projectors (new method)

 maximal supplied QI-value         = 12.09
 optimisation between [QCUT,QGAM] = [ 11.37, 22.86] = [ 36.19,146.31] Ry 
 Optimized for a Real-space Cutoff    1.66 Angstroem

   l    n(q)    QCUT    max X(q) W(low)/X(q) W(high)/X(q)  e(spline) 
   0     11    11.369   135.111    0.12E-03    0.69E-04    0.19E-05
   0     11    11.369   146.850    0.11E-03    0.65E-04    0.18E-05
   1     11    11.369   148.016    0.17E-03    0.32E-03    0.89E-06
   1     11    11.369   122.989    0.17E-03    0.32E-03    0.91E-06
   2     10    11.369     8.916    0.12E-03    0.45E-04    0.33E-06
  PAW_PBE H 15Jun2001                   :
 energy of atom  1       EATOM=  -12.4884
 kinetic energy error for atom=    0.0020 (will be added to EATOM!!)
  PAW_PBE C 08Apr2002                   :
 energy of atom  2       EATOM= -147.1560
 kinetic energy error for atom=    0.0076 (will be added to EATOM!!)
  PAW_PBE N 08Apr2002                   :
 energy of atom  3       EATOM= -264.5486
 kinetic energy error for atom=    0.0138 (will be added to EATOM!!)
  PAW_PBE I 08Apr2002                   :
 energy of atom  4       EATOM= -315.8678
 kinetic energy error for atom=    0.0009 (will be added to EATOM!!)
  PAW_PBE Pb 08Apr2002                  :
 energy of atom  5       EATOM=  -96.9868
 kinetic energy error for atom=    0.0000 (will be added to EATOM!!)
 
 
 POSCAR:  H  C  N  I Pb
  positions in cartesian coordinates
  No initial velocities read in
 exchange correlation table for  LEXCH =        8
   RHO(1)=    0.500       N(1)  =     2000
   RHO(2)=  100.500       N(2)  =     4000
 


--------------------------------------------------------------------------------------------------------


 ion  position               nearest neighbor table
   1  0.453  0.336  0.564- 187 1.03
   2  0.437  0.830  0.571- 188 1.03
   3  0.961  0.328  0.576- 189 1.03
   4  0.944  0.818  0.573- 190 1.03
   5  0.335  0.954  0.572- 194 1.03
   6  0.350  0.551  0.558- 195 1.02
   7  0.806  0.088  0.563- 196 1.03
   8  0.012  0.143  0.559- 183 1.02
   9  0.072  0.664  0.570- 184 1.02
  10  0.552  0.160  0.559- 185 1.02
  11  0.496  0.643  0.559- 186 1.02
  12  0.366  0.028  0.557- 194 1.02
  13  0.293  0.629  0.553- 195 1.02
  14  0.879  0.027  0.556- 196 1.03
  15  0.955  0.192  0.577- 183 1.03
  16  0.990  0.692  0.583- 184 1.04
  17  0.566  0.251  0.567- 185 1.03
  18  0.438  0.693  0.575- 186 1.02
  19  0.281  0.440  0.572- 191 1.03
  20  0.202  0.928  0.573- 192 1.02
  21  0.684  0.030  0.570- 193 1.02
  22  0.373  0.291  0.555- 187 1.03
  23  0.502  0.868  0.554- 188 1.02
  24  0.020  0.368  0.557- 189 1.03
  25  0.994  0.867  0.554- 190 1.02
  26  0.184  0.444  0.570- 191 1.02
  27  0.143  0.992  0.560- 192 1.03
  28  0.679  0.934  0.565- 193 1.02
  29  0.431  0.179  0.550- 146 1.09
  30  0.546  0.751  0.543- 147 1.09
  31  0.063  0.252  0.545- 144 1.09
  32  0.083  0.772  0.550- 145 1.09
  33  0.184  0.563  0.557- 148 1.10
  34  0.243  0.065  0.548- 149 1.10
  35  0.800  0.925  0.555- 150 1.10
  36  0.487  0.340  0.660- 205 1.03
  37  0.448  0.810  0.674- 206 1.02
  38  0.964  0.286  0.676- 207 1.01
  39  0.931  0.724  0.673- 208 1.02
  40  0.308  0.058  0.669- 209 1.03
  41  0.298  0.549  0.675- 210 1.02
  42  0.802  0.057  0.674- 211 1.03
  43  0.767  0.597  0.656- 212 1.03
  44  0.087  0.164  0.645- 197 1.03
  45  0.118  0.722  0.652- 198 1.02
  46  0.566  0.154  0.654- 199 1.02
  47  0.566  0.667  0.650- 200 1.02
  48  0.176  0.415  0.648- 201 1.02
  49  0.171  0.919  0.651- 202 1.02
  50  0.696  0.408  0.658- 203 1.02
  51  0.674  0.920  0.651- 204 1.02
  52  0.064  0.183  0.671- 197 1.02
  53  0.060  0.677  0.670- 198 1.02
  54  0.593  0.245  0.660- 199 1.02
  55  0.536  0.696  0.675- 200 1.02
  56  0.199  0.444  0.674- 201 1.03
  57  0.206  0.955  0.675- 202 1.03
  58  0.665  0.499  0.659- 203 1.02
  59  0.698  0.957  0.676- 204 1.03
  60  0.399  0.301  0.656- 205 1.02
  61  0.432  0.843  0.648- 206 1.02
  62  0.936  0.325  0.652- 207 1.01
  63  0.906  0.795  0.655- 208 1.02
  64  0.327  0.075  0.642- 209 1.02
  65  0.328  0.578  0.650- 210 1.01
  66  0.834  0.075  0.648- 211 1.02
  67  0.856  0.562  0.653- 212 1.03
  68  0.008  0.253  0.631- 151 1.09
  69  0.023  0.802  0.640- 152 1.09
  70  0.442  0.182  0.651- 153 1.09
  71  0.504  0.756  0.631- 154 1.09
  72  0.244  0.991  0.629- 156 1.09
  73  0.256  0.495  0.631- 155 1.09
  74  0.757  0.990  0.632- 158 1.09
  75  0.818  0.439  0.654- 157 1.09
  76  0.449  0.301  0.769- 221 1.02
  77  0.449  0.801  0.769- 222 1.02
  78  0.949  0.301  0.769- 223 1.02
  79  0.949  0.801  0.769- 224 1.02
  80  0.301  0.051  0.769- 225 1.02
  81  0.301  0.551  0.769- 226 1.02
  82  0.801  0.051  0.769- 227 1.02
  83  0.801  0.551  0.769- 228 1.02
  84  0.079  0.171  0.743- 213 1.02
  85  0.079  0.671  0.743- 214 1.02
  86  0.579  0.171  0.743- 215 1.02
  87  0.579  0.671  0.743- 216 1.02
  88  0.171  0.421  0.743- 217 1.02
  89  0.171  0.921  0.743- 218 1.02
  90  0.671  0.421  0.743- 219 1.02
  91  0.671  0.921  0.743- 220 1.02
  92  0.051  0.199  0.769- 213 1.02
  93  0.051  0.699  0.769- 214 1.02
  94  0.551  0.199  0.769- 215 1.02
  95  0.551  0.699  0.769- 216 1.02
  96  0.199  0.449  0.769- 217 1.02
  97  0.199  0.949  0.769- 218 1.02
  98  0.699  0.449  0.769- 219 1.02
  99  0.699  0.949  0.769- 220 1.02
 100  0.421  0.329  0.743- 221 1.02
 101  0.421  0.829  0.743- 222 1.02
 102  0.921  0.329  0.743- 223 1.02
 103  0.921  0.829  0.743- 224 1.02
 104  0.329  0.079  0.743- 225 1.02
 105  0.329  0.579  0.743- 226 1.02
 106  0.829  0.079  0.743- 227 1.02
 107  0.829  0.579  0.743- 228 1.02
 108  0.000  0.250  0.726- 161 1.09
 109  0.000  0.750  0.726- 162 1.09
 110  0.500  0.250  0.726- 159 1.09
 111  0.500  0.750  0.726- 160 1.09
 112  0.250  0.000  0.726- 163 1.09
 113  0.250  0.500  0.726- 164 1.09
 114  0.750  0.000  0.726- 165 1.09
 115  0.750  0.500  0.726- 166 1.09
 116  0.776  0.557  0.519- 173 1.10
 117  0.719  0.479  0.524- 173 1.09
 118  0.868  0.502  0.538- 174 1.10
 119  0.860  0.483  0.565- 174 1.10
 120  0.744  0.642  0.560- 175 1.10
 121  0.814  0.598  0.575- 175 1.10
 122  0.667  0.547  0.569- 176 1.10
 123  0.682  0.455  0.560- 176 1.10
 124  0.617  0.560  0.537- 177 1.10
 125  0.674  0.640  0.534- 177 1.10
 126  0.606  0.646  0.503- 178 1.10
 127  0.687  0.602  0.494- 178 1.11
 128  0.788  0.390  0.529- 179 1.10
 129  0.777  0.372  0.557- 179 1.10
 130  0.865  0.367  0.546- 179 1.10
 131  0.863  0.696  0.552- 180 1.10
 132  0.838  0.648  0.529- 180 1.10
 133  0.906  0.610  0.546- 180 1.10
 134  0.771  0.529  0.596- 181 1.09
 135  0.774  0.435  0.589- 181 1.10
 136  0.693  0.473  0.600- 181 1.09
 137  0.539  0.528  0.505- 182 1.10
 138  0.574  0.545  0.479- 182 1.10
 139  0.704  0.480  0.470- 168 1.10
 140  0.556  0.414  0.520- 169 1.09
 141  0.766  0.358  0.472- 170 1.09
 142  0.620  0.291  0.522- 171 1.09
 143  0.725  0.264  0.498- 172 1.09
 144  0.020  0.255  0.557-  31 1.09 189 1.31 183 1.31
 145  0.035  0.765  0.561-  32 1.09 184 1.31 190 1.32
 146  0.463  0.226  0.556-  29 1.09 187 1.31 185 1.32
 147  0.501  0.755  0.555-  30 1.09 188 1.31 186 1.31
 148  0.237  0.536  0.560-  33 1.10 191 1.31 195 1.31
 149  0.254  0.015  0.558-  34 1.10 192 1.31 194 1.31
 150  0.779  0.979  0.560-  35 1.10 196 1.31 193 1.31
 151  0.011  0.245  0.648-  68 1.09 197 1.32 207 1.32
 152  0.012  0.761  0.652-  69 1.09 208 1.31 198 1.32
 153  0.481  0.226  0.655-  70 1.09 205 1.31 199 1.31
 154  0.499  0.755  0.649-  71 1.09 206 1.31 200 1.31
 155  0.253  0.496  0.649-  73 1.09 201 1.31 210 1.32
 156  0.249  0.997  0.647-  72 1.09 209 1.31 202 1.32
 157  0.777  0.483  0.655-  75 1.09 212 1.30 203 1.32
 158  0.754  0.997  0.649-  74 1.09 211 1.31 204 1.32
 159  0.500  0.250  0.743- 110 1.09 221 1.31 215 1.31
 160  0.500  0.750  0.743- 111 1.09 222 1.31 216 1.31
 161  1.000  0.250  0.743- 108 1.09 223 1.31 213 1.31
 162  1.000  0.750  0.743- 109 1.09 224 1.31 214 1.31
 163  0.250  0.000  0.743- 112 1.09 225 1.31 218 1.31
 164  0.250  0.500  0.743- 113 1.09 226 1.31 217 1.31
 165  0.750  0.000  0.743- 114 1.09 227 1.31 220 1.31
 166  0.750  0.500  0.743- 115 1.09 228 1.31 219 1.31
 167  0.626  0.456  0.495- 169 1.40 168 1.40 182 1.51
 168  0.685  0.439  0.482- 139 1.10 170 1.40 167 1.40
 169  0.602  0.401  0.510- 140 1.09 171 1.39 167 1.40
 170  0.720  0.370  0.482- 141 1.09 168 1.40 172 1.40
 171  0.638  0.333  0.511- 142 1.09 169 1.39 172 1.40
 172  0.697  0.317  0.497- 143 1.09 171 1.40 170 1.40
 173  0.732  0.536  0.529- 117 1.09 116 1.10 229 1.52 177 1.53
 174  0.831  0.478  0.550- 118 1.10 119 1.10 229 1.52 179 1.52
 175  0.793  0.605  0.559- 121 1.10 120 1.10 180 1.52 229 1.52
 176  0.708  0.503  0.567- 122 1.10 123 1.10 181 1.51 229 1.51
 177  0.663  0.584  0.528- 124 1.10 125 1.10 173 1.53 178 1.54
 178  0.638  0.594  0.504- 126 1.10 127 1.11 177 1.54 182 1.54
 179  0.813  0.398  0.545- 128 1.10 130 1.10 129 1.10 174 1.52
 180  0.854  0.641  0.546- 132 1.10 133 1.10 131 1.10 175 1.52
 181  0.739  0.484  0.589- 134 1.09 136 1.09 135 1.10 176 1.51
 182  0.590  0.531  0.495- 137 1.10 138 1.10 167 1.51 178 1.54
 183  0.994  0.193  0.565-   8 1.02  15 1.03 144 1.31
 184  0.032  0.703  0.572-   9 1.02  16 1.04 145 1.31
 185  0.533  0.213  0.560-  10 1.02  17 1.03 146 1.32
 186  0.476  0.694  0.563-  18 1.02  11 1.02 147 1.31
 187  0.429  0.290  0.558-  22 1.03   1 1.03 146 1.31
 188  0.477  0.822  0.559-  23 1.02   2 1.03 147 1.31
 189  0.996  0.321  0.563-   3 1.03  24 1.03 144 1.31
 190  0.984  0.817  0.561-  25 1.02   4 1.03 145 1.32
 191  0.235  0.467  0.566-  26 1.02  19 1.03 148 1.31
 192  0.197  0.975  0.564-  20 1.02  27 1.03 149 1.31
 193  0.708  0.982  0.565-  28 1.02  21 1.02 150 1.31
 194  0.323  0.997  0.562-  12 1.02   5 1.03 149 1.31
 195  0.298  0.574  0.556-   6 1.02  13 1.02 148 1.31
 196  0.825  0.035  0.560-  14 1.03   7 1.03 150 1.31
 197  0.056  0.194  0.656-  52 1.02  44 1.03 151 1.32
 198  0.066  0.715  0.658-  45 1.02  53 1.02 152 1.32
 199  0.551  0.208  0.657-  46 1.02  54 1.02 153 1.31
 200  0.535  0.702  0.659-  47 1.02  55 1.02 154 1.31
 201  0.206  0.450  0.658-  48 1.02  56 1.03 155 1.31
 202  0.206  0.955  0.659-  49 1.02  57 1.03 156 1.32
 203  0.708  0.463  0.657-  58 1.02  50 1.02 157 1.32
 204  0.706  0.956  0.659-  51 1.02  59 1.03 158 1.32
 205  0.455  0.293  0.657-  60 1.02  36 1.03 153 1.31
 206  0.458  0.806  0.658-  61 1.02  37 1.02 154 1.31
 207  0.968  0.287  0.660-  38 1.01  62 1.01 151 1.32
 208  0.946  0.761  0.661-  63 1.02  39 1.02 152 1.31
 209  0.297  0.046  0.653-  64 1.02  40 1.03 156 1.31
 210  0.296  0.544  0.659-  65 1.01  41 1.02 155 1.32
 211  0.799  0.046  0.658-  66 1.02  42 1.03 158 1.31
 212  0.801  0.552  0.655-  43 1.03  67 1.03 157 1.30
 213  0.046  0.204  0.753-  92 1.02  84 1.02 161 1.31
 214  0.046  0.704  0.753-  93 1.02  85 1.02 162 1.31
 215  0.546  0.204  0.753-  94 1.02  86 1.02 159 1.31
 216  0.546  0.704  0.753-  95 1.02  87 1.02 160 1.31
 217  0.204  0.454  0.753-  96 1.02  88 1.02 164 1.31
 218  0.204  0.954  0.753-  97 1.02  89 1.02 163 1.31
 219  0.704  0.454  0.753-  98 1.02  90 1.02 166 1.31
 220  0.704  0.954  0.753-  99 1.02  91 1.02 165 1.31
 221  0.454  0.296  0.753-  76 1.02 100 1.02 159 1.31
 222  0.454  0.796  0.753-  77 1.02 101 1.02 160 1.31
 223  0.954  0.296  0.753-  78 1.02 102 1.02 161 1.31
 224  0.954  0.796  0.753-  79 1.02 103 1.02 162 1.31
 225  0.296  0.046  0.753-  80 1.02 104 1.02 163 1.31
 226  0.296  0.546  0.753-  81 1.02 105 1.02 164 1.31
 227  0.796  0.046  0.753-  82 1.02 106 1.02 165 1.31
 228  0.796  0.546  0.753-  83 1.02 107 1.02 166 1.31
 229  0.766  0.530  0.551- 176 1.51 174 1.52 173 1.52 175 1.52
 230  0.514  0.016  0.552- 304 3.23
 231  0.483  0.495  0.554- 305 3.14
 232  0.013  0.006  0.548- 302 3.51
 233  0.037  0.508  0.553- 303 3.24
 234  0.237  0.241  0.552- 306 3.15
 235  0.256  0.766  0.554- 307 3.16
 236  0.738  0.205  0.554- 308 3.09
 237  0.701  0.792  0.554- 309 3.17
 238  0.002  0.983  0.654- 302 3.08 310 3.22
 239  0.997  0.506  0.655- 311 3.13 303 3.15
 240  0.497  0.012  0.654- 304 3.16 312 3.17
 241  0.507  0.489  0.655- 313 3.13 305 3.15
 242  0.260  0.246  0.654- 314 3.16 306 3.25
 243  0.258  0.754  0.655- 315 3.14 307 3.19
 244  0.746  0.267  0.654- 316 3.17 308 3.27
 245  0.746  0.746  0.654- 317 3.16 309 3.22
 246  0.135  0.112  0.607- 302 3.19 306 3.20
 247  0.149  0.607  0.608- 307 3.16 303 3.17
 248  0.648  0.105  0.610- 308 3.12 304 3.14
 249  0.616  0.628  0.609- 309 3.20 305 3.25
 250  0.358  0.388  0.605- 305 3.17 306 3.23
 251  0.375  0.880  0.606- 307 3.28 304 3.29
 252  0.890  0.365  0.609- 303 3.29 308 3.42
 253  0.868  0.878  0.605- 309 3.23 302 3.23
 254  0.121  0.368  0.610- 306 3.21 303 3.25
 255  0.124  0.867  0.608- 307 3.21 302 3.28
 256  0.594  0.339  0.601- 308 3.21 305 3.25
 257  0.617  0.871  0.613- 309 3.10 304 3.21
 258  0.387  0.135  0.605- 304 3.17 306 3.21
 259  0.385  0.628  0.611- 307 3.21 305 3.24
 260  0.887  0.133  0.611- 302 3.19 308 3.31
 261  0.895  0.646  0.610- 303 3.27 309 3.48
 262  0.000  0.000  0.755- 310 3.13 318 3.27
 263  0.000  0.500  0.755- 311 3.13 319 3.27
 264  0.500  0.000  0.755- 312 3.13 320 3.27
 265  0.500  0.500  0.755- 313 3.13 321 3.27
 266  0.250  0.250  0.755- 314 3.13 322 3.27
 267  0.250  0.750  0.755- 315 3.13 323 3.27
 268  0.750  0.250  0.755- 316 3.13 324 3.27
 269  0.750  0.750  0.755- 317 3.13 325 3.27
 270  0.136  0.114  0.705- 310 3.20 314 3.20
 271  0.136  0.614  0.705- 311 3.20 315 3.20
 272  0.636  0.114  0.705- 312 3.20 316 3.20
 273  0.636  0.614  0.705- 313 3.20 317 3.20
 274  0.364  0.386  0.705- 313 3.20 314 3.20
 275  0.364  0.886  0.705- 312 3.20 315 3.20
 276  0.864  0.386  0.705- 311 3.20 316 3.20
 277  0.864  0.886  0.705- 310 3.20 317 3.20
 278  0.114  0.364  0.705- 314 3.21 311 3.21
 279  0.114  0.864  0.705- 315 3.21 310 3.21
 280  0.614  0.364  0.705- 316 3.21 313 3.21
 281  0.614  0.864  0.705- 317 3.21 312 3.21
 282  0.386  0.136  0.705- 314 3.21 312 3.21
 283  0.386  0.636  0.705- 315 3.21 313 3.21
 284  0.886  0.136  0.705- 316 3.21 310 3.21
 285  0.886  0.636  0.705- 317 3.21 311 3.21
 286  0.135  0.115  0.801- 318 3.22 322 3.22
 287  0.135  0.615  0.801- 319 3.22 323 3.22
 288  0.635  0.115  0.801- 320 3.22 324 3.22
 289  0.635  0.615  0.801- 321 3.22 325 3.22
 290  0.365  0.385  0.801- 321 3.22 322 3.22
 291  0.365  0.885  0.801- 320 3.22 323 3.22
 292  0.865  0.385  0.801- 319 3.22 324 3.22
 293  0.865  0.885  0.801- 318 3.22 325 3.22
 294  0.115  0.365  0.801- 319 3.23 322 3.23
 295  0.115  0.865  0.801- 318 3.23 323 3.23
 296  0.615  0.365  0.801- 321 3.23 324 3.23
 297  0.615  0.865  0.801- 320 3.23 325 3.23
 298  0.385  0.135  0.801- 320 3.23 322 3.23
 299  0.385  0.635  0.801- 321 3.23 323 3.23
 300  0.885  0.135  0.801- 318 3.23 324 3.23
 301  0.885  0.635  0.801- 319 3.23 325 3.23
 302  1.000  0.999  0.604- 238 3.08 246 3.19 260 3.19 253 3.23 255 3.28 232 3.51
 303  0.006  0.505  0.604- 239 3.15 247 3.17 233 3.24 254 3.25 261 3.27 252 3.29
 304  0.506  0.006  0.604- 248 3.14 240 3.16 258 3.17 257 3.21 230 3.23 251 3.29
 305  0.500  0.492  0.604- 231 3.14 241 3.15 250 3.17 259 3.24 249 3.25 256 3.25
 306  0.249  0.247  0.602- 234 3.15 246 3.20 254 3.21 258 3.21 250 3.23 242 3.25
 307  0.253  0.746  0.604- 247 3.16 235 3.16 243 3.19 255 3.21 259 3.21 251 3.28
 308  0.745  0.245  0.602- 236 3.09 248 3.12 256 3.21 244 3.27 260 3.31 252 3.42
 309  0.738  0.755  0.603- 257 3.10 237 3.17 249 3.20 245 3.22 253 3.23 261 3.48
 310  0.000  0.000  0.705- 262 3.13 270 3.20 277 3.20 279 3.21 284 3.21 238 3.22
 311  0.000  0.500  0.705- 263 3.13 239 3.13 271 3.20 276 3.20 278 3.21 285 3.21
 312  0.500  0.000  0.705- 264 3.13 240 3.17 272 3.20 275 3.20 281 3.21 282 3.21
 313  0.500  0.500  0.705- 265 3.13 241 3.13 273 3.20 274 3.20 280 3.21 283 3.21
 314  0.250  0.250  0.705- 266 3.13 242 3.16 270 3.20 274 3.20 282 3.21 278 3.21
 315  0.250  0.750  0.705- 267 3.13 243 3.14 271 3.20 275 3.20 283 3.21 279 3.21
 316  0.750  0.250  0.705- 268 3.13 244 3.17 272 3.20 276 3.20 284 3.21 280 3.21
 317  0.750  0.750  0.705- 269 3.13 245 3.16 273 3.20 277 3.20 285 3.21 281 3.21
 318  0.000  0.000  0.807- 286 3.22 293 3.22 300 3.23 295 3.23 262 3.27
 319  0.000  0.500  0.807- 287 3.22 292 3.22 301 3.23 294 3.23 263 3.27
 320  0.500  0.000  0.807- 288 3.22 291 3.22 298 3.23 297 3.23 264 3.27
 321  0.500  0.500  0.807- 289 3.22 290 3.22 299 3.23 296 3.23 265 3.27
 322  0.250  0.250  0.807- 290 3.22 286 3.22 294 3.23 298 3.23 266 3.27
 323  0.250  0.750  0.807- 291 3.22 287 3.22 299 3.23 295 3.23 267 3.27
 324  0.750  0.250  0.807- 292 3.22 288 3.22 296 3.23 300 3.23 268 3.27
 325  0.750  0.750  0.807- 293 3.22 289 3.22 297 3.23 301 3.23 269 3.27
 

IMPORTANT INFORMATION: All symmetrisations will be switched off!
NOSYMM: (Re-)initialisation of all symmetry stuff for point group C_1.


----------------------------------------------------------------------------------------

                                     Primitive cell                                     

  volume of cell :   20385.2105

  direct lattice vectors                    reciprocal lattice vectors
    18.060800552  0.000000000  0.000000000     0.055368531  0.000015077 -0.000000000
    -0.004918649 18.062799454  0.000000000     0.000000000  0.055362404  0.000000000
     0.000000000  0.000000000 62.487499237     0.000000000 -0.000000000  0.016003201

  length of vectors
    18.060800552 18.062800123 62.487499237     0.055368533  0.055362404  0.016003201

  position of ions in fractional coordinates (direct lattice)
     0.452835479  0.336117541  0.563983531
     0.437458151  0.829718063  0.570940733
     0.961457695  0.327889864  0.575601211
     0.943812534  0.818390950  0.572827951
     0.334677463  0.953977054  0.572151913
     0.349914354  0.551173487  0.557639428
     0.806324472  0.088261451  0.563033085
     0.011959616  0.143218349  0.558948222
     0.071596464  0.663600176  0.570460351
     0.551625934  0.159616352  0.558895660
     0.496055235  0.642853847  0.558817947
     0.366216889  0.028329782  0.557024437
     0.293063647  0.628803005  0.552550825
     0.879035558  0.027461403  0.555893351
     0.955271172  0.191563159  0.576979233
     0.990140337  0.691893779  0.582848388
     0.566461702  0.251244732  0.567334116
     0.438437351  0.693066204  0.575343042
     0.280723799  0.439653203  0.572189884
     0.201592655  0.928416545  0.572729787
     0.684112851  0.029595340  0.570274096
     0.372694714  0.290634670  0.555199120
     0.502209798  0.868320787  0.553719760
     0.019509276  0.368204236  0.556686600
     0.994391534  0.866720964  0.553942399
     0.184322893  0.444332267  0.569541161
     0.143401615  0.991618691  0.560129123
     0.678971907  0.934040734  0.564589793
     0.430539086  0.179294953  0.549786905
     0.546324058  0.751063847  0.543170042
     0.063369647  0.251689078  0.544931503
     0.083243833  0.772429494  0.550435167
     0.184022915  0.562553609  0.556978590
     0.243213849  0.065057560  0.548250221
     0.800392443  0.924526680  0.555305038
     0.486834311  0.339612960  0.659639932
     0.447977722  0.809633342  0.673799197
     0.963969206  0.285586259  0.675844833
     0.930613245  0.724090504  0.672651323
     0.307661129  0.057583762  0.669322410
     0.298153508  0.549484066  0.674952198
     0.801604161  0.057081180  0.673933318
     0.766702709  0.597071375  0.656022814
     0.086642278  0.163672839  0.644825750
     0.117794221  0.722349975  0.651714091
     0.566159138  0.154108390  0.654297799
     0.566163116  0.666624376  0.650003849
     0.176468312  0.415345325  0.647854799
     0.171423044  0.919250586  0.651283829
     0.695525554  0.407708243  0.658267282
     0.673949910  0.920431169  0.650838672
     0.063595446  0.183115831  0.671382759
     0.060266478  0.676755305  0.669565928
     0.593106665  0.244761650  0.659538654
     0.536172881  0.695564592  0.675113486
     0.198950673  0.443931216  0.673806339
     0.206145592  0.955380074  0.675032781
     0.664763734  0.499399479  0.659245810
     0.697629056  0.957377141  0.675623536
     0.398703403  0.300757573  0.656076780
     0.431881101  0.843316745  0.648168216
     0.935634483  0.324979074  0.651891006
     0.905694646  0.795229442  0.655245315
     0.326726890  0.075171303  0.642442278
     0.328159999  0.577808450  0.649855504
     0.833551707  0.075213258  0.648084520
     0.855960869  0.561962011  0.652622598
     0.008190376  0.252563117  0.630769289
     0.023397063  0.802303173  0.640020529
     0.442036159  0.182391934  0.651427840
     0.504275493  0.756325191  0.631418894
     0.243710733  0.990809231  0.629377470
     0.256189235  0.495386326  0.631206510
     0.757196284  0.990229359  0.631744948
     0.818217289  0.439322821  0.653737689
     0.448745018  0.301283966  0.768889017
     0.448745007  0.801283913  0.768889017
     0.948744965  0.301283966  0.768889017
     0.948745007  0.801283913  0.768889017
     0.301275995  0.051294496  0.768872961
     0.301276011  0.551294499  0.768872961
     0.801275943  0.051294496  0.768872961
     0.801275984  0.551294499  0.768872961
     0.078771004  0.171180501  0.743441971
     0.078771006  0.671180448  0.743441971
     0.578771004  0.171180501  0.743441971
     0.578770992  0.671180448  0.743441971
     0.171199499  0.421174482  0.743421032
     0.171199501  0.921174508  0.743421032
     0.671199512  0.421174482  0.743421032
     0.671199501  0.921174508  0.743421032
     0.051256000  0.198714991  0.768889017
     0.051256002  0.698714925  0.768889017
     0.551256027  0.198714991  0.768889017
     0.551256016  0.698714925  0.768889017
     0.198723491  0.448703970  0.768872046
     0.198723493  0.948703970  0.768872046
     0.698723518  0.448703970  0.768872046
     0.698723507  0.948703970  0.768872046
     0.421231519  0.328817467  0.743441971
     0.421231508  0.828817440  0.743441971
     0.921231466  0.328817467  0.743441971
     0.921231508  0.828817440  0.743441971
     0.328800503  0.078824997  0.743421032
     0.328800492  0.578824964  0.743421032
     0.828800477  0.078824997  0.743421032
     0.828800519  0.578824964  0.743421032
     0.000003500  0.250001478  0.725821992
     0.000003500  0.750001452  0.725821992
     0.500003506  0.250001478  0.725821992
     0.500003495  0.750001452  0.725821992
     0.250000502  0.000000000  0.725803983
     0.250000517  0.500000000  0.725803983
     0.750000502  0.000000000  0.725803983
     0.750000490  0.500000000  0.725803983
     0.775756819  0.556712388  0.518800055
     0.719140459  0.479053092  0.524412079
     0.868380443  0.501549401  0.537955986
     0.860245236  0.483218250  0.565499704
     0.744219291  0.641526935  0.559624505
     0.813794255  0.597931449  0.575285413
     0.666783796  0.546939639  0.568503661
     0.681657477  0.454760658  0.559893724
     0.616932407  0.559990703  0.536871297
     0.674113773  0.639616978  0.534364204
     0.605881385  0.645765851  0.503046782
     0.686948984  0.602155002  0.493798381
     0.788101547  0.389570806  0.529441344
     0.776982663  0.372164301  0.557355802
     0.865408882  0.366836485  0.545516153
     0.862668373  0.696432111  0.552182770
     0.838130378  0.648435462  0.528802972
     0.906392891  0.610197623  0.546498344
     0.771120525  0.529044650  0.596240593
     0.774350426  0.434670129  0.588642638
     0.693292897  0.472597570  0.599790864
     0.538877898  0.527840334  0.504780467
     0.573535959  0.545014477  0.478807712
     0.703712065  0.480251970  0.469933134
     0.556393999  0.413650703  0.520431729
     0.765922325  0.358004908  0.471580650
     0.619910297  0.290997126  0.522364489
     0.725418205  0.263588149  0.498339328
     0.019545552  0.255166440  0.556951851
     0.035168343  0.764772665  0.560775675
     0.462857255  0.225913794  0.555722235
     0.501282908  0.755173884  0.554708727
     0.237482426  0.535745681  0.559870709
     0.253667461  0.014602944  0.557530824
     0.779252221  0.978987397  0.560065267
     0.010683658  0.244623082  0.648034583
     0.012192203  0.761366157  0.652489393
     0.481401683  0.226424268  0.655043187
     0.499115813  0.754842896  0.648743587
     0.252590274  0.496052738  0.648629856
     0.249309268  0.997253026  0.646630127
     0.777393959  0.483294860  0.655261431
     0.754394221  0.997439941  0.649077211
     0.499988984  0.249994984  0.743277021
     0.499989025  0.749994958  0.743277021
     0.999988984  0.249994984  0.743277021
     0.999989025  0.749994958  0.743277021
     0.250000502  0.000001000  0.743255960
     0.250000517  0.500001003  0.743255960
     0.750000502  0.000001000  0.743255960
     0.750000491  0.500001003  0.743255960
     0.626319896  0.455758165  0.495469614
     0.684918634  0.438896479  0.481565588
     0.602349037  0.401262224  0.509762786
     0.720067226  0.370130771  0.482438168
     0.637543640  0.332761349  0.510834473
     0.697002257  0.316771116  0.497305736
     0.731545219  0.535833854  0.529272975
     0.831482568  0.478192912  0.550126450
     0.793024630  0.605358397  0.558921911
     0.708451732  0.503013112  0.567223620
     0.662613982  0.584464551  0.527590571
     0.638051898  0.594018348  0.504175945
     0.813127012  0.397969654  0.545273124
     0.853898202  0.640674463  0.545604123
     0.739375116  0.484171566  0.588986213
     0.589921042  0.530804556  0.495278749
     0.993666995  0.192876476  0.564856936
     0.031682089  0.703287945  0.571868104
     0.533102676  0.212990117  0.559876570
     0.475619091  0.693613241  0.563007201
     0.428805741  0.289560474  0.557662076
     0.476968364  0.821523438  0.559374516
     0.996121099  0.320866529  0.562756540
     0.984478613  0.817064830  0.561293296
     0.234915483  0.466705135  0.566336113
     0.196530190  0.974884872  0.563507301
     0.708332119  0.982177150  0.564704134
     0.322554455  0.997407008  0.562156261
     0.298196538  0.573800893  0.556301819
     0.825011646  0.035328431  0.560435947
     0.055924296  0.193722387  0.655542371
     0.065812300  0.715327828  0.657688858
     0.551336294  0.208042458  0.656548615
     0.535175960  0.702386530  0.658894238
     0.206224359  0.449642237  0.657523358
     0.206461326  0.955167477  0.658607621
     0.707566991  0.463006022  0.657176121
     0.706178403  0.955937770  0.659395254
     0.454657106  0.293304597  0.657086503
     0.457707668  0.805737875  0.657717001
     0.967518786  0.287379401  0.659676011
     0.945557673  0.760545840  0.660868998
     0.297494719  0.045618839  0.653478421
     0.295825110  0.543575581  0.658674712
     0.798690709  0.046163315  0.657761321
     0.800700612  0.551589850  0.655238233
     0.045862501  0.204119496  0.752725994
     0.045862500  0.704119456  0.752725994
     0.545862507  0.204119496  0.752725994
     0.545862496  0.704119456  0.752725994
     0.204119002  0.454101003  0.752704994
     0.204118991  0.954100951  0.752704994
     0.704118976  0.454101003  0.752704994
     0.704118964  0.954100951  0.752704994
     0.454140018  0.295888490  0.752726971
     0.454140007  0.795888516  0.752726971
     0.954140018  0.295888490  0.752726971
     0.954140060  0.795888516  0.752726971
     0.295882492  0.045900498  0.752704994
     0.295882481  0.545900528  0.752704994
     0.795882439  0.045900498  0.752704994
     0.795882481  0.545900528  0.752704994
     0.765710150  0.530138407  0.551374991
     0.514485392  0.015921563  0.552153467
     0.482637599  0.494559197  0.554439081
     0.013280773  0.005814790  0.548409432
     0.037433083  0.508312998  0.553337298
     0.237032572  0.241249573  0.552041751
     0.255703758  0.765565370  0.553582952
     0.738371734  0.205132301  0.554386580
     0.700855212  0.791554986  0.554262348
     0.002010800  0.983306569  0.653509006
     0.997270452  0.506497021  0.654742529
     0.496678590  0.012355643  0.654296578
     0.506913208  0.489024625  0.654823478
     0.259784191  0.246472955  0.654331131
     0.258236868  0.754482499  0.654708464
     0.745707783  0.266979636  0.654291145
     0.746150388  0.746296215  0.654199024
     0.134874630  0.111911542  0.607205677
     0.148596805  0.606519629  0.608082195
     0.647513905  0.104957649  0.609627365
     0.616277169  0.628047893  0.608714280
     0.358104745  0.387653748  0.604682528
     0.375231956  0.879880897  0.606294240
     0.890020824  0.364694324  0.608918727
     0.867966575  0.877714765  0.604512328
     0.120972256  0.367825967  0.609551239
     0.124102782  0.867097411  0.607547970
     0.593650007  0.338774533  0.601140377
     0.616693082  0.871303593  0.612964580
     0.386749993  0.135052287  0.605064441
     0.384870959  0.628428617  0.610573477
     0.886743984  0.132960481  0.610576529
     0.894968021  0.646342666  0.609867709
     0.000000000  0.000000000  0.754927972
     0.000000000  0.500000000  0.754927972
     0.500000000  0.000000000  0.754927972
     0.499999989  0.500000000  0.754927972
     0.250000496  0.250000000  0.754939022
     0.250000511  0.749999974  0.754939022
     0.750000470  0.250000000  0.754939022
     0.750000458  0.749999974  0.754939022
     0.135790500  0.114209997  0.704782994
     0.135790502  0.614209984  0.704782994
     0.635790447  0.114209997  0.704782994
     0.635790488  0.614209984  0.704782994
     0.364209516  0.385789989  0.704782994
     0.364209505  0.885789963  0.704782994
     0.864209542  0.385789989  0.704782994
     0.864209531  0.885789963  0.704782994
     0.114217990  0.364218986  0.704780979
     0.114217992  0.864218986  0.704780979
     0.614218004  0.364218986  0.704780979
     0.614217992  0.864218986  0.704780979
     0.385782012  0.135781489  0.704782017
     0.385782001  0.635781489  0.704782017
     0.885781985  0.135781489  0.704782017
     0.885782027  0.635781489  0.704782017
     0.134667000  0.115332001  0.801256025
     0.134666989  0.615331988  0.801256025
     0.634666987  0.115332001  0.801256025
     0.634666976  0.615331988  0.801256025
     0.365333002  0.384667985  0.801256025
     0.365332990  0.884667959  0.801256025
     0.865332949  0.384667985  0.801256025
     0.865332938  0.884667959  0.801256025
     0.115328503  0.365337004  0.801264999
     0.115328505  0.865336978  0.801264999
     0.615328503  0.365337004  0.801264999
     0.615328492  0.865336978  0.801264999
     0.384671513  0.134662996  0.801264999
     0.384671501  0.634662970  0.801264999
     0.884671486  0.134662996  0.801264999
     0.884671528  0.634662970  0.801264999
     0.999796737  0.998868703  0.604450487
     0.005919985  0.504675606  0.604366852
     0.505778729  0.006452816  0.603785437
     0.499597374  0.491902152  0.604482903
     0.248607557  0.246770866  0.602392459
     0.253149765  0.745723201  0.603763033
     0.744833119  0.245361669  0.602407110
     0.737746509  0.755083020  0.602771502
     0.000000500  0.000000500  0.704828963
     0.000000500  0.500000475  0.704828963
     0.500000475  0.000000500  0.704828963
     0.500000464  0.500000475  0.704828963
     0.249999994  0.249999472  0.704824995
     0.250000010  0.749999498  0.704824995
     0.749999994  0.249999472  0.704824995
     0.749999983  0.749999498  0.704824995
     0.000000000  0.000000000  0.807317968
     0.000000000  0.500000000  0.807317968
     0.500000000  0.000000000  0.807317968
     0.499999989  0.500000000  0.807317968
     0.249999994  0.250000000  0.807317968
     0.250000010  0.749999974  0.807317968
     0.749999994  0.250000000  0.807317968
     0.749999983  0.749999974  0.807317968

  ion indices of the primitive-cell ions
   primitive index   ion index
                 1           1
                 2           2
                 3           3
                 4           4
                 5           5
                 6           6
                 7           7
                 8           8
                 9           9
                10          10
                11          11
                12          12
                13          13
                14          14
                15          15
                16          16
                17          17
                18          18
                19          19
                20          20
                21          21
                22          22
                23          23
                24          24
                25          25
                26          26
                27          27
                28          28
                29          29
                30          30
                31          31
                32          32
                33          33
                34          34
                35          35
                36          36
                37          37
                38          38
                39          39
                40          40
                41          41
                42          42
                43          43
                44          44
                45          45
                46          46
                47          47
                48          48
                49          49
                50          50
                51          51
                52          52
                53          53
                54          54
                55          55
                56          56
                57          57
                58          58
                59          59
                60          60
                61          61
                62          62
                63          63
                64          64
                65          65
                66          66
                67          67
                68          68
                69          69
                70          70
                71          71
                72          72
                73          73
                74          74
                75          75
                76          76
                77          77
                78          78
                79          79
                80          80
                81          81
                82          82
                83          83
                84          84
                85          85
                86          86
                87          87
                88          88
                89          89
                90          90
                91          91
                92          92
                93          93
                94          94
                95          95
                96          96
                97          97
                98          98
                99          99
               100         100
               101         101
               102         102
               103         103
               104         104
               105         105
               106         106
               107         107
               108         108
               109         109
               110         110
               111         111
               112         112
               113         113
               114         114
               115         115
               116         116
               117         117
               118         118
               119         119
               120         120
               121         121
               122         122
               123         123
               124         124
               125         125
               126         126
               127         127
               128         128
               129         129
               130         130
               131         131
               132         132
               133         133
               134         134
               135         135
               136         136
               137         137
               138         138
               139         139
               140         140
               141         141
               142         142
               143         143
               144         144
               145         145
               146         146
               147         147
               148         148
               149         149
               150         150
               151         151
               152         152
               153         153
               154         154
               155         155
               156         156
               157         157
               158         158
               159         159
               160         160
               161         161
               162         162
               163         163
               164         164
               165         165
               166         166
               167         167
               168         168
               169         169
               170         170
               171         171
               172         172
               173         173
               174         174
               175         175
               176         176
               177         177
               178         178
               179         179
               180         180
               181         181
               182         182
               183         183
               184         184
               185         185
               186         186
               187         187
               188         188
               189         189
               190         190
               191         191
               192         192
               193         193
               194         194
               195         195
               196         196
               197         197
               198         198
               199         199
               200         200
               201         201
               202         202
               203         203
               204         204
               205         205
               206         206
               207         207
               208         208
               209         209
               210         210
               211         211
               212         212
               213         213
               214         214
               215         215
               216         216
               217         217
               218         218
               219         219
               220         220
               221         221
               222         222
               223         223
               224         224
               225         225
               226         226
               227         227
               228         228
               229         229
               230         230
               231         231
               232         232
               233         233
               234         234
               235         235
               236         236
               237         237
               238         238
               239         239
               240         240
               241         241
               242         242
               243         243
               244         244
               245         245
               246         246
               247         247
               248         248
               249         249
               250         250
               251         251
               252         252
               253         253
               254         254
               255         255
               256         256
               257         257
               258         258
               259         259
               260         260
               261         261
               262         262
               263         263
               264         264
               265         265
               266         266
               267         267
               268         268
               269         269
               270         270
               271         271
               272         272
               273         273
               274         274
               275         275
               276         276
               277         277
               278         278
               279         279
               280         280
               281         281
               282         282
               283         283
               284         284
               285         285
               286         286
               287         287
               288         288
               289         289
               290         290
               291         291
               292         292
               293         293
               294         294
               295         295
               296         296
               297         297
               298         298
               299         299
               300         300
               301         301
               302         302
               303         303
               304         304
               305         305
               306         306
               307         307
               308         308
               309         309
               310         310
               311         311
               312         312
               313         313
               314         314
               315         315
               316         316
               317         317
               318         318
               319         319
               320         320
               321         321
               322         322
               323         323
               324         324
               325         325

----------------------------------------------------------------------------------------

 
 
 KPOINTS: Automatic Mesh                          

Automatic generation of k-mesh.
 Grid dimensions read from file:
 generate k-points for:    3    3    1

 Generating k-lattice:

  Cartesian coordinates                     Fractional coordinates (reciprocal lattice)
     0.018456177  0.000005026 -0.000000000     0.333333333  0.000000000  0.000000000
     0.000000000  0.018454135  0.000000000     0.000000000  0.333333333  0.000000000
     0.000000000 -0.000000000  0.016003201     0.000000000  0.000000000  1.000000000

  Length of vectors
     0.018456178  0.018454135  0.016003201

  Shift w.r.t. Gamma in fractional coordinates (k-lattice)
     0.000000000  0.000000000  0.000000000

 
 Subroutine IBZKPT returns following result:
 ===========================================
 
 Found      5 irreducible k-points:
 
 Following reciprocal coordinates:
            Coordinates               Weight
  0.000000  0.000000  0.000000      1.000000
  0.333333  0.000000  0.000000      2.000000
  0.000000  0.333333  0.000000      2.000000
  0.333333  0.333333  0.000000      2.000000
 -0.333333  0.333333  0.000000      2.000000
 
 Following cartesian coordinates:
            Coordinates               Weight
  0.000000  0.000000  0.000000      1.000000
  0.018456  0.000005  0.000000      2.000000
  0.000000  0.018454  0.000000      2.000000
  0.018456  0.018459  0.000000      2.000000
 -0.018456  0.018449  0.000000      2.000000
 


--------------------------------------------------------------------------------------------------------




 Dimension of arrays:
   k-points           NKPTS =      5   k-points in BZ     NKDIM =      5   number of bands    NBANDS=    732
   number of dos      NEDOS =    301   number of ions     NIONS =    325
   non local maximal  LDIM  =      5   non local SUM 2l+1 LMDIM =     13
   total plane-waves  NPLWV = ******
   max r-space proj   IRMAX =   3336   max aug-charges    IRDMAX=  19845
   dimension x,y,z NGX =   100 NGY =  100 NGZ =  350
   dimension x,y,z NGXF=   200 NGYF=  200 NGZF=  700
   support grid    NGXF=   200 NGYF=  200 NGZF=  700
   ions per type =             143  39  47  72  24
   NGX,Y,Z   is equivalent  to a cutoff of   9.20,  9.20,  9.31 a.u.
   NGXF,Y,Z  is equivalent  to a cutoff of  18.41, 18.41, 18.62 a.u.

 SYSTEM =  PSC                                     
 POSCAR =   H  C  N  I Pb                          

 Startparameter for this run:
   NWRITE =      2    write-flag & timer
   PREC   = normal    normal or accurate (medium, high low for compatibility)
   ISTART =      0    job   : 0-new  1-cont  2-samecut
   ICHARG =      1    charge: 1-file 2-atom 10-const
   ISPIN  =      1    spin polarized calculation?
   LNONCOLLINEAR =      F non collinear calculations
   LSORBIT =      F    spin-orbit coupling
   INIWAV =      1    electr: 0-lowe 1-rand  2-diag
   LASPH  =      F    aspherical Exc in radial PAW
 Electronic Relaxation 1
   ENCUT  =  500.0 eV  36.75 Ry    6.06 a.u.  32.93 32.93113.93*2*pi/ulx,y,z
   ENINI  =  500.0     initial cutoff
   ENAUG  =  644.9 eV  augmentation charge cutoff
   NELM   =    600;   NELMIN=  2; NELMDL=  0     # of ELM steps 
   EDIFF  = 0.1E-03   stopping-criterion for ELM
   LREAL  =      T    real-space projection
   NLSPLINE    = F    spline interpolate recip. space projectors
   LCOMPAT=      F    compatible to vasp.4.4
   GGA_COMPAT  = F    GGA compatible to vasp.4.4-vasp.4.6
   LMAXPAW     = -100 max onsite density
   LMAXMIX     =    2 max onsite mixed and CHGCAR
   VOSKOWN=      0    Vosko Wilk Nusair interpolation
   ROPT   =   -0.00050  -0.00050  -0.00050  -0.00050
   ROPT   =   -0.00050
 Ionic relaxation
   EDIFFG = 0.1E-02   stopping-criterion for IOM
   NSW    =      0    number of steps for IOM
   NBLOCK =      1;   KBLOCK =      1    inner block; outer block 
   IBRION =     -1    ionic relax: 0-MD 1-quasi-New 2-CG
   NFREE  =      0    steps in history (QN), initial steepest desc. (CG)
   ISIF   =      2    stress and relaxation
   IWAVPR =     10    prediction:  0-non 1-charg 2-wave 3-comb
   ISYM   =      0    0-nonsym 1-usesym 2-fastsym
   LCORR  =      T    Harris-Foulkes like correction to forces

   POTIM  = 0.5000    time-step for ionic-motion
   TEIN   =    0.0    initial temperature
   TEBEG  =    0.0;   TEEND  =   0.0 temperature during run
   SMASS  =  -3.00    Nose mass-parameter (am)
   estimated Nose-frequenzy (Omega)   =  0.10E-29 period in steps = 0.13E+47 mass=  -0.745E-26a.u.
   SCALEE = 1.0000    scale energy and forces
   NPACO  =    256;   APACO  = 16.0  distance and # of slots for P.C.
   PSTRESS=    0.0 pullay stress

  Mass of Ions in am
   POMASS =   1.00 12.01 14.00126.90207.20
  Ionic Valenz
   ZVAL   =   1.00  4.00  5.00  7.00  4.00
  Atomic Wigner-Seitz radii
   RWIGS  =  -1.00 -1.00 -1.00 -1.00 -1.00
  virtual crystal weights 
   VCA    =   1.00  1.00  1.00  1.00  1.00
   NELECT =    1134.0000    total number of electrons
   NUPDOWN=      -1.0000    fix difference up-down

 DOS related values:
   EMIN   =  10.00;   EMAX   =-10.00  energy-range for DOS
   EFERMI =   0.00
   ISMEAR =     0;   SIGMA  =   0.05  broadening in eV -4-tet -1-fermi 0-gaus

 Electronic relaxation 2 (details)
   IALGO  =     38    algorithm
   LDIAG  =      T    sub-space diagonalisation (order eigenvalues)
   LSUBROT=      F    optimize rotation matrix (better conditioning)
   TURBO    =      0    0=normal 1=particle mesh
   IRESTART =      0    0=no restart 2=restart with 2 vectors
   NREBOOT  =      0    no. of reboots
   NMIN     =      0    reboot dimension
   EREF     =   0.00    reference energy to select bands
   IMIX   =      4    mixing-type and parameters
     AMIX     =   0.40;   BMIX     =  0.01
     AMIX_MAG =   1.60;   BMIX_MAG =  0.01
     AMIN     =   0.01
     WC   =   100.;   INIMIX=   1;  MIXPRE=   1;  MAXMIX= -45

 Intra band minimization:
   WEIMIN = 0.0000     energy-eigenvalue tresh-hold
   EBREAK =  0.34E-07  absolut break condition
   DEPER  =   0.30     relativ break condition  

   TIME   =   0.40     timestep for ELM

  volume/ion in A,a.u.               =      62.72       423.28
  Fermi-wavevector in a.u.,A,eV,Ry     =   0.624944  1.180972  5.313816  0.390554
  Thomas-Fermi vector in A             =   1.685677
 
 Write flags
   LWAVE        =      F    write WAVECAR
   LDOWNSAMPLE  =      F    k-point downsampling of WAVECAR
   LCHARG       =      T    write CHGCAR
   LVTOT        =      T    write LOCPOT, total local potential
   LVHAR        =      F    write LOCPOT, Hartree potential only
   LELF         =      F    write electronic localiz. function (ELF)
   LORBIT       =      0    0 simple, 1 ext, 2 COOP (PROOUT), +10 PAW based schemes


 Dipole corrections
   LMONO  =      F    monopole corrections only (constant potential shift)
   LDIPOL =      T    correct potential (dipole corrections)
   IDIPOL =      3    1-x, 2-y, 3-z, 4-all directions 
   EPSILON=  1.0000000 bulk dielectric constant

 Exchange correlation treatment:
   GGA     =    --    GGA type
   LEXCH   =     8    internal setting for exchange type
   VOSKOWN=      0    Vosko Wilk Nusair interpolation
   LHFCALC =     F    Hartree Fock is set to
   LHFONE  =     F    Hartree Fock one center treatment
   AEXX    =    0.0000 exact exchange contribution

 Linear response parameters
   LEPSILON=     F    determine dielectric tensor
   LRPA    =     F    only Hartree local field effects (RPA)
   LNABLA  =     F    use nabla operator in PAW spheres
   LVEL    =     F    velocity operator in full k-point grid
   LINTERFAST=   F  fast interpolation
   KINTER  =     0    interpolate to denser k-point grid
   CSHIFT  =0.1000    complex shift for real part using Kramers Kronig
   OMEGAMAX=  -1.0    maximum frequency
   DEG_THRESHOLD= 0.2000000E-02 threshold for treating states as degnerate
   RTIME   =   -0.100 relaxation time in fs
  (WPLASMAI=    0.000 imaginary part of plasma frequency in eV, 0.658/RTIME)
   DFIELD  = 0.0000000 0.0000000 0.0000000 field for delta impulse in time
 
 Orbital magnetization related:
   ORBITALMAG=     F  switch on orbital magnetization
   LCHIMAG   =     F  perturbation theory with respect to B field
   DQ        =  0.001000  dq finite difference perturbation B field
   LLRAUG    =     F  two centre corrections for induced B field



--------------------------------------------------------------------------------------------------------


 Static calculation
 charge density and potential will be updated during run
 non-spin polarized calculation
 Variant of blocked Davidson
 Davidson routine will perform the subspace rotation
 perform sub-space diagonalisation
    after iterative eigenvector-optimisation
 modified Broyden-mixing scheme, WC =      100.0
 initial mixing is a Kerker type mixing with AMIX =  0.4000 and BMIX =      0.0100
 Hartree-type preconditioning will be used
 using additional bands           165
 real space projection scheme for non local part
[...]
     13.54561      0.00000     45.35368        -0.000611     -0.001104      0.014626
     13.54315      9.03140     45.35368        -0.005006     -0.007863     -0.013123
     14.00805     10.05578     32.41852        -0.065147     -0.025706      0.000995
     12.98590      8.65304     32.76920        -0.022261     -0.016145     -0.014782
     15.68118      9.05939     33.61552        -0.004546     -0.043106     -0.007426
     15.53434      8.72827     35.33666         0.001944     -0.018162      0.043595
     13.43804     11.58777     34.96954         0.042978     -0.056411     -0.011094
     14.69483     10.80032     35.94815        -0.087316     -0.069383     -0.057923
     12.03996      9.87926     35.52437         0.026649      0.029958     -0.024645
     12.30904      8.21425     34.98636        -0.031914     -0.027810     -0.011147
     11.13954     10.11500     33.54774         0.005026      0.039303     -0.035586
     12.17189     11.55327     33.39108        -0.013119     -0.035727     -0.029397
     10.93953     11.66434     31.43414         0.028839     -0.050700     -0.024118
     12.40389     10.87661     30.85623        -0.040288     -0.000846      0.065402
     14.23183      7.03674     33.08347         0.013507      0.002503      0.059508
     14.03110      6.72233     34.82777         0.099186      0.105490     -0.142282
     15.62817      6.62609     34.08794        -0.047586      0.022009     -0.023123
     15.57706     12.57951     34.50452         0.017535     -0.037380      0.003654
     15.13412     11.71256     33.04358         0.007056      0.020136     -0.042883
     16.36718     11.02188     34.14931        -0.002852      0.043488      0.004343
     13.92445      9.55603     37.25758         0.085230      0.154096      0.068960
     13.98325      7.85136     36.78281        -0.029165      0.033598     -0.004985
     12.51910      8.53644     37.47943        -0.100206     -0.041794      0.018766
      9.72997      9.53427     31.54247        -0.094390      0.006578      0.025745
     10.35584      9.84449     29.91950         0.002041      0.024112     -0.016314
     12.70724      8.67470     29.36495        -0.047144     -0.054192      0.073328
     10.04689      7.47169     32.52048        -0.088410     -0.003751      0.081210
     13.83141      6.46657     29.46790        -0.043291      0.015300      0.020749
     11.19464      5.25622     32.64125        -0.062487      0.030163      0.037514
     13.10034      4.76114     31.13998        -0.046070      0.006721      0.017751
      0.35175      4.60902     34.80253        -0.118191     -0.116350      0.040407
      0.63141     13.81394     35.04147        -0.075438     -0.191743      0.104322
      8.35846      4.08064     34.72569         0.272374     -0.102480      0.076302
      9.04986     13.64055     34.66236         0.141688     -0.059906     -0.167414
      4.28649      9.67707     34.98492        -0.009762      0.089582     -0.029185
      4.58137      0.26377     34.83871         0.014593     -0.005734     -0.029860
     14.06910     17.68325     34.99708        -0.056362     -0.181113     -0.056689
      0.19175      4.41858     40.49406         0.091733     -0.183092      0.410351
      0.21646     13.75240     40.77243         0.084982     -0.234989     -0.007497
      8.69339      4.08986     40.93201        -0.064226     -0.097557     -0.085196
      9.01072     13.63458     40.53836        -0.018233     -0.049297      0.249868
      4.55954      8.96010     40.53126         0.257307      0.288071      0.051290
      4.49782     18.01318     40.40630        -0.351004     -0.376163      0.174750
     14.03798      8.72966     40.94565        -0.534621     -0.253151      0.143812
     13.62006     18.01656     40.55921        -0.410987     -0.345865      0.109399
      9.02897      4.51561     46.44552         0.009361      0.006268     -0.013103
      9.02651     13.54701     46.44552         0.016234     -0.000433      0.037808
     18.05937      4.51561     46.44552         0.000491      0.016083      0.044246
     18.05691     13.54701     46.44552         0.007073      0.013734      0.006808
      4.51521      0.00002     46.44421         0.007058      0.004618      0.052958
      4.51275      9.03142     46.44421         0.002405     -0.002217      0.029831
     13.54561      0.00002     46.44421        -0.008066     -0.009575      0.014766
     13.54315      9.03142     46.44421        -0.024683     -0.026385      0.003719
     11.30960      8.23227     30.96066        -0.015448      0.039311     -0.236898
     12.36802      7.92770     30.09183         0.086502      0.091311     -0.086070
     10.87693      7.24792     31.85380         0.024785     -0.030312      0.086157
     13.00317      6.68560     30.14635         0.055197     -0.117741      0.036545
     11.51291      6.01060     31.92077         0.145644     -0.263153     -0.010424
     12.58686      5.72177     31.07539         0.054503      0.156335     -0.128101
     13.20966      9.67866     33.07294        -0.042292      0.009252     -0.010314
     15.01489      8.63750     34.37603         0.002479     -0.119723     -0.023509
     14.31968     10.93447     34.92563         0.104410      0.071578     -0.030625
     12.79273      9.08582     35.44439        -0.159202     -0.094794      0.046956
     11.96446     10.55707     32.96782         0.188846     -0.009691      0.014610
     11.52081     10.72963     31.50469         0.027530      0.107251     -0.031999
     14.68377      7.18845     34.07275        -0.000556     -0.026968      0.083272
     15.41893     11.57237     34.09344        -0.118796      0.014201     -0.025006
     13.35133      8.74549     36.80428         0.082909     -0.146223     -0.089782
     10.65184      9.58782     30.94873         0.009653      0.056109     -0.013558
     17.94547      3.48389     35.29650         0.101359      0.161630     -0.126836
      0.56874     12.70335     35.73461        -0.021109     -0.067468      0.010231
      9.62721      3.84720     34.98529        -0.045252      0.133340      0.041982
      8.58665     12.52860     35.18091        -0.027787     -0.033275      0.007656
      7.74315      5.23027     34.84691         0.040769      0.287113      0.077809
      8.61039     14.83901     34.95391        -0.111451      0.076948      0.145600
     17.98917      5.79575     35.16525         0.238678      0.003131     -0.189067
     17.77645     14.75848     35.07381        -0.075535      0.015614      0.078442
      4.24047      8.43000     35.38893         0.103653     -0.068304     -0.019371
      3.54470     17.60915     35.21216         0.019287      0.027872      0.004442
     12.78821     17.74087     35.28695         0.246193      0.290009      0.061301
      5.82069     18.01596     35.12774        -0.244402     -0.013757     -0.064804
      5.38285     10.36445     34.76191        -0.210723     -0.051358     -0.082625
     14.90020      0.63813     35.02024        -0.008168     -0.173272     -0.116585
      1.00908      3.49917     40.96320        -0.187229      0.237804     -0.431804
      1.18510     12.92082     41.09733        -0.509271      0.162541      0.100199
      9.95655      3.75783     41.02608         0.202449     -0.063601     -0.020995
      9.66225     12.68707     41.17265         0.037338     -0.038775     -0.035159
      3.72237      8.12180     41.08699         0.009220     -0.012392      0.572576
      3.72416     17.25300     41.15474         0.224115      0.202919      0.191601
     12.77695      8.36318     41.06529         0.062606      0.004388      0.024443
     12.74945     17.26691     41.20396         0.199549      0.214419      0.201209
      8.21003      5.29790     41.05969         0.189304      0.522247      0.071028
      8.26260     14.55388     41.09909        -0.004761      0.001932      0.049923
     17.47275      5.19088     41.22150         0.142368     -0.110135     -0.305439
     17.07379     13.73759     41.29605         0.085686      0.062814     -0.030496
      5.37277      0.82400     40.83423         0.238404      0.284539      0.437402
      5.34016      9.81850     41.15894        -0.332638     -0.350003      0.207356
     14.42477      0.83384     41.10186         0.150319      0.229250      0.494399
     14.45858      9.96326     40.94420         0.370813      0.528744     -0.223445
      0.82731      3.68697     47.03596         0.025619     -0.033576     -0.087507
      0.82485     12.71837     47.03596         0.029434     -0.033130     -0.069086
      9.85771      3.68697     47.03596         0.024944     -0.032508     -0.055229
      9.85525     12.71837     47.03596         0.019385     -0.020253     -0.088447
      3.68432      8.20234     47.03465        -0.019856     -0.011682     -0.064216
      3.68186     17.23373     47.03465        -0.015564     -0.010770     -0.062193
     12.71472      8.20234     47.03465        -0.000560      0.000547     -0.055082
     12.71226     17.23373     47.03465        -0.012117     -0.012135     -0.059792
      8.20068      5.34457     47.03603        -0.025784      0.019777     -0.056793
      8.19822     14.37597     47.03603        -0.024726      0.020806     -0.086978
     17.23108      5.34457     47.03603        -0.010871      0.010327     -0.089831
     17.22862     14.37597     47.03603        -0.015102      0.017178     -0.066868
      5.34365      0.82909     47.03465         0.004384      0.005675     -0.066308
      5.34119      9.86049     47.03465         0.009961      0.018573     -0.066391
     14.37405      0.82909     47.03465         0.025681      0.020460     -0.055066
     14.37159      9.86049     47.03465         0.034913      0.035101     -0.063056
     13.82673      9.57578     34.45404         0.110185      0.259647     -0.101959
      9.29194      0.28759     34.50269         0.028563      0.006734     -0.000741
      8.71439      8.93312     34.64551        -0.058836      0.048339     -0.041537
      0.23983      0.10503     34.26873         0.003805      0.007075      0.000854
      0.67357      9.18156     34.57666        -0.030312     -0.013993     -0.016810
      4.27981      4.35764     34.49571        -0.006462      0.000810      0.016929
      4.61445     13.82825     34.59201        -0.014857      0.025732     -0.014912
     13.33458      3.70526     34.64223        -0.002478      0.099680     -0.049731
     12.65411     14.29770     34.63447         0.017210     -0.048738     -0.090767
      0.03148     17.76127     40.83614        -0.030962      0.009303     -0.008120
     18.00901      9.14875     40.91322        -0.001048     -0.009906     -0.001498
      8.97035      0.22318     40.88536         0.007427     -0.022263      0.019763
      9.15285      8.83315     40.91828         0.017255      0.003849      0.011177
      4.69070      4.45199     40.88752        -0.007637      0.000025     -0.025884
      4.66025     13.62807     40.91109         0.039218     -0.003169     -0.022810
     13.46677      4.82240     40.88502         0.005196     -0.039614     -0.000492
     13.47240     13.48020     40.87926        -0.016008     -0.018297      0.021386
      2.43539      2.02144     37.94276        -0.008736      0.010204      0.004610
      2.68079     10.95544     37.99754        -0.003692      0.014221      0.025713
     11.69410      1.89583     38.09409         0.012979      0.011126      0.012974
     11.12737     11.34430     38.03703        -0.001080      0.051492      0.008488
      6.46575      7.00211     37.78510         0.013011     -0.016191      0.024490
      6.77266     15.89311     37.88581        -0.027077     -0.000536      0.019290
     16.07269      6.58740     38.04981         0.025766     -0.022408      0.008164
     15.67185     15.85399     37.77446         0.013804      0.026311      0.015585
      2.18305      6.64397     38.08933         0.013472     -0.006917     -0.021975
      2.23713     15.66221     37.96415        -0.008856     -0.005307     -0.007827
     10.72013      6.11922     37.56376        -0.012117     -0.011217      0.015731
     11.13369     15.73818     38.30262        -0.003125     -0.007210     -0.013541
      6.98435      2.43942     37.80896        -0.014965     -0.006036     -0.004776
      6.94799     11.35118     38.15321        -0.000565      0.014801     -0.028790
     16.01465      2.40164     38.15340        -0.014809     -0.001971     -0.008062
     16.16066     11.67476     38.10911         0.078726     -0.051539     -0.077545
      0.00000      0.00000     47.17356         0.001645      0.005060      0.293186
     -0.00246      9.03140     47.17356        -0.000474      0.002485      0.398480
      9.03040      0.00000     47.17356        -0.002021     -0.003155      0.387414
      9.02794      9.03140     47.17356         0.000530      0.005436      0.415000
      4.51398      4.51570     47.17425        -0.007199     -0.003591      0.433022
      4.51152     13.54710     47.17425         0.003205     -0.001010      0.422798
     13.54438      4.51570     47.17425         0.007094      0.000028      0.418762
     13.54192     13.54710     47.17425        -0.003449     -0.004677      0.399291
      2.45192      2.06295     44.04013        -0.026018     -0.021459     -0.068879
      2.44946     11.09435     44.04013         0.018221     -0.032786     -0.053590
     11.48232      2.06295     44.04013         0.060997     -0.050312     -0.053108
     11.47986     11.09435     44.04013        -0.031629      0.013669     -0.079855
      6.57602      6.96845     44.04013        -0.045485      0.045439     -0.029879
      6.57356     15.99985     44.04013         0.006483      0.001835     -0.038899
     15.60642      6.96845     44.04013         0.084569     -0.021613     -0.030179
     15.60396     15.99985     44.04013        -0.024268      0.022232     -0.037181
      2.06108      6.57881     44.04000        -0.007341      0.011798     -0.070070
      2.05862     15.61021     44.04000         0.045671      0.036684     -0.003562
     11.09148      6.57881     44.04000        -0.010594     -0.016662     -0.020600
     11.08902     15.61021     44.04000        -0.026626     -0.002978     -0.046889
      6.96686      2.45259     44.04007        -0.078480     -0.082854     -0.049284
      6.96440     11.48399     44.04007         0.014295      0.013277     -0.056739
     15.99726      2.45259     44.04007         0.029740     -0.006574     -0.097498
     15.99481     11.48399     44.04007         0.023582      0.017164     -0.012944
      2.43163      2.08322     50.06849        -0.002081     -0.021564      0.022025
      2.42917     11.11462     50.06849         0.009940     -0.010649      0.023398
     11.46203      2.08322     50.06849         0.009943     -0.013897      0.026960
     11.45957     11.11462     50.06849         0.014147     -0.004880      0.023696
      6.59631      6.94818     50.06849        -0.014047      0.009930      0.026625
      6.59385     15.97958     50.06849        -0.010822      0.009791      0.022627
     15.62671      6.94818     50.06849        -0.005657      0.012761      0.023166
     15.62425     15.97958     50.06849        -0.002631      0.018595      0.024351
      2.08113      6.59901     50.06905        -0.014581     -0.007531      0.022934
      2.07867     15.63041     50.06905        -0.019118     -0.000933      0.022981
     11.11153      6.59901     50.06905        -0.007649     -0.011368      0.026337
     11.10907     15.63041     50.06905        -0.009404     -0.012159      0.024226
      6.94681      2.43239     50.06905         0.010171      0.006548      0.024692
      6.94435     11.46379     50.06905         0.006241      0.014419      0.023828
     15.97721      2.43239     50.06905         0.022625     -0.000581      0.023792
     15.97475     11.46379     50.06905         0.010072      0.010602      0.023565
     18.05222     18.04237     37.77060         0.004356     -0.031965      0.035091
      0.10444      9.11585     37.76537        -0.017063     -0.020140      0.013172
      9.13474      0.11656     37.72904        -0.034241      0.044996     -0.013532
      9.02071      8.88513     37.77262        -0.027416     -0.016167     -0.028237
      4.48884      4.45737     37.64200        -0.039277      0.002753      0.004664
      4.56842     13.46985     37.72764        -0.027579      0.004647     -0.008863
     13.45108      4.43192     37.64291         0.006216      0.030179      0.032021
     13.32058     13.63891     37.66568         0.026162     -0.011014      0.015892
      0.00001      0.00001     44.04300        -0.043129     -0.120896      0.108987
     -0.00245      9.03141     44.04300        -0.034947     -0.053958      0.187440
      9.03041      0.00001     44.04300         0.034634      0.093319      0.140249
      9.02795      9.03141     44.04300        -0.003071     -0.120136      0.261662
      4.51397      4.51569     44.04275         0.122654      0.042132      0.054130
      4.51151     13.54709     44.04275        -0.040212      0.031504      0.140538
     13.54437      4.51569     44.04275        -0.108604      0.054886      0.112148
     13.54191     13.54709     44.04275        -0.007601      0.067598      0.117241
      0.00000      0.00000     50.44728        -0.000821      0.002373     -0.600481
     -0.00246      9.03140     50.44728        -0.000762     -0.002603     -0.626356
      9.03040      0.00000     50.44728         0.000970      0.006141     -0.628522
      9.02794      9.03140     50.44728        -0.000015     -0.005947     -0.637526
      4.51397      4.51570     50.44728         0.011051      0.007596     -0.640055
      4.51151     13.54710     50.44728         0.007981     -0.006941     -0.634352
     13.54437      4.51570     50.44728        -0.012224      0.006073     -0.639652
     13.54191     13.54710     50.44728        -0.007600     -0.007281     -0.630761
 -----------------------------------------------------------------------------------
    total drift:                                0.057068      0.018945      0.202929


--------------------------------------------------------------------------------------------------------



  FREE ENERGIE OF THE ION-ELECTRON SYSTEM (eV)
  ---------------------------------------------------
  free  energy   TOTEN  =     -1576.33696190 eV

  energy  without entropy=    -1576.33696190  energy(sigma->0) =    -1576.33696190
 


--------------------------------------------------------------------------------------------------------


    POTLOK:  cpu time    0.4998: real time    0.4997


--------------------------------------------------------------------------------------------------------


     LOOP+:  cpu time  265.5184: real time  266.0353
 vacuum level on the upper side and lower side of the slab         2.305         1.601
    4ORBIT:  cpu time    0.0000: real time    0.0000

 total amount of memory used by VASP MPI-rank0  8653585. kBytes
=======================================================================

   base      :      30000. kBytes
   nonlr-proj:      53623. kBytes
   fftplans  :     249280. kBytes
   grid      :     701440. kBytes
   one-center:       2636. kBytes
   wavefun   :    7616606. kBytes
 
  
  
 General timing and accounting informations for this job:
 ========================================================
  
                  Total CPU time used (sec):      478.781
                            User time (sec):      390.889
                          System time (sec):       87.892
                         Elapsed time (sec):      479.248
  
                   Maximum memory used (kb):    10309176.
                   Average memory used (kb):          N/A
  
                          Minor page faults:      3542745
                          Major page faults:           12
                 Voluntary context switches:        10933
