<?xml version="1.0" encoding="ISO-8859-1"?>
<modeling>
 <generator>
  <i name="program" type="string">vasp </i>
  <i name="version" type="string">6.2.1  </i>
  <i name="subversion" type="string">16May21 (build Nov 15 2021 14:57:28) complex                          parallel </i>
  <i name="platform" type="string">LinuxPGI </i>
  <i name="date" type="string">2023 07 25 </i>
  <i name="time" type="string">02:45:58 </i>
 </generator>
 <incar>
  <i type="string" name="SYSTEM">PSC</i>
  <i type="int" name="ISTART">     1</i>
  <i type="string" name="PREC">Normal</i>
  <i name="BMIX">      0.01000000</i>
  <i name="AMIN">      0.01000000</i>
  <i type="int" name="ICHARG">     1</i>
  <i type="int" name="NELM">   600</i>
  <i type="int" name="ISYM">     0</i>
  <i name="ENCUT">    500.00000000</i>
  <i type="string" name="LREAL">Auto</i>
  <i type="int" name="ISMEAR">     0</i>
  <i name="SIGMA">      0.05000000</i>
  <i type="logical" name="LWAVE"> F  </i>
  <i type="logical" name="LVTOT"> T  </i>
  <i type="logical" name="GGA_COMPAT"> F  </i>
  <i type="logical" name="LDIPOL"> T  </i>
  <i type="int" name="IDIPOL">     3</i>
  <i type="int" name="IVDW">    12</i>
 </incar>
 <primitive_cell>
  <structure name="primitive_cell" >
   <crystal>
    <varray name="basis" >
     <v>      18.06080055       0.00000000       0.00000000 </v>
     <v>      -0.00491865      18.06279945       0.00000000 </v>
     <v>       0.00000000       0.00000000      62.48749924 </v>
    </varray>
    <i name="volume">  20385.21054034 </i>
    <varray name="rec_basis" >
     <v>       0.05536853       0.00001508      -0.00000000 </v>
     <v>       0.00000000       0.05536240       0.00000000 </v>
     <v>       0.00000000      -0.00000000       0.01600320 </v>
    </varray>
   </crystal>
   <varray name="positions" >
    <v>       0.45283548       0.33611754       0.56398353 </v>
    <v>       0.43745815       0.82971806       0.57094073 </v>
    <v>       0.96145769       0.32788986       0.57560121 </v>
    <v>       0.94381253       0.81839095       0.57282795 </v>
    <v>       0.33467746       0.95397705       0.57215191 </v>
    <v>       0.34991435       0.55117349       0.55763943 </v>
    <v>       0.80632447       0.08826145       0.56303308 </v>
    <v>       0.01195962       0.14321835       0.55894822 </v>
    <v>       0.07159646       0.66360018       0.57046035 </v>
    <v>       0.55162593       0.15961635       0.55889566 </v>
    <v>       0.49605524       0.64285385       0.55881795 </v>
    <v>       0.36621689       0.02832978       0.55702444 </v>
    <v>       0.29306365       0.62880301       0.55255082 </v>
    <v>       0.87903556       0.02746140       0.55589335 </v>
    <v>       0.95527117       0.19156316       0.57697923 </v>
    <v>       0.99014034       0.69189378       0.58284839 </v>
    <v>       0.56646170       0.25124473       0.56733412 </v>
    <v>       0.43843735       0.69306620       0.57534304 </v>
    <v>       0.28072380       0.43965320       0.57218988 </v>
    <v>       0.20159266       0.92841654       0.57272979 </v>
    <v>       0.68411285       0.02959534       0.57027410 </v>
    <v>       0.37269471       0.29063467       0.55519912 </v>
    <v>       0.50220980       0.86832079       0.55371976 </v>
    <v>       0.01950928       0.36820424       0.55668660 </v>
    <v>       0.99439153       0.86672096       0.55394240 </v>
    <v>       0.18432289       0.44433227       0.56954116 </v>
    <v>       0.14340161       0.99161869       0.56012912 </v>
    <v>       0.67897191       0.93404073       0.56458979 </v>
    <v>       0.43053909       0.17929495       0.54978691 </v>
    <v>       0.54632406       0.75106385       0.54317004 </v>
    <v>       0.06336965       0.25168908       0.54493150 </v>
    <v>       0.08324383       0.77242949       0.55043517 </v>
    <v>       0.18402291       0.56255361       0.55697859 </v>
    <v>       0.24321385       0.06505756       0.54825022 </v>
    <v>       0.80039244       0.92452668       0.55530504 </v>
    <v>       0.48683431       0.33961296       0.65963993 </v>
    <v>       0.44797772       0.80963334       0.67379920 </v>
    <v>       0.96396921       0.28558626       0.67584483 </v>
    <v>       0.93061325       0.72409050       0.67265132 </v>
    <v>       0.30766113       0.05758376       0.66932241 </v>
    <v>       0.29815351       0.54948407       0.67495220 </v>
    <v>       0.80160416       0.05708118       0.67393332 </v>
    <v>       0.76670271       0.59707137       0.65602281 </v>
    <v>       0.08664228       0.16367284       0.64482575 </v>
    <v>       0.11779422       0.72234998       0.65171409 </v>
    <v>       0.56615914       0.15410839       0.65429780 </v>
    <v>       0.56616312       0.66662438       0.65000385 </v>
    <v>       0.17646831       0.41534532       0.64785480 </v>
    <v>       0.17142304       0.91925059       0.65128383 </v>
    <v>       0.69552555       0.40770824       0.65826728 </v>
    <v>       0.67394991       0.92043117       0.65083867 </v>
    <v>       0.06359545       0.18311583       0.67138276 </v>
    <v>       0.06026648       0.67675530       0.66956593 </v>
    <v>       0.59310666       0.24476165       0.65953865 </v>
    <v>       0.53617288       0.69556459       0.67511349 </v>
    <v>       0.19895067       0.44393122       0.67380634 </v>
    <v>       0.20614559       0.95538007       0.67503278 </v>
    <v>       0.66476373       0.49939948       0.65924581 </v>
    <v>       0.69762906       0.95737714       0.67562354 </v>
    <v>       0.39870340       0.30075757       0.65607678 </v>
    <v>       0.43188110       0.84331675       0.64816822 </v>
    <v>       0.93563448       0.32497907       0.65189101 </v>
    <v>       0.90569465       0.79522944       0.65524531 </v>
    <v>       0.32672689       0.07517130       0.64244228 </v>
    <v>       0.32816000       0.57780845       0.64985550 </v>
    <v>       0.83355171       0.07521326       0.64808452 </v>
    <v>       0.85596087       0.56196201       0.65262260 </v>
    <v>       0.00819038       0.25256312       0.63076929 </v>
    <v>       0.02339706       0.80230317       0.64002053 </v>
    <v>       0.44203616       0.18239193       0.65142784 </v>
    <v>       0.50427549       0.75632519       0.63141889 </v>
    <v>       0.24371073       0.99080923       0.62937747 </v>
    <v>       0.25618924       0.49538633       0.63120651 </v>
    <v>       0.75719628       0.99022936       0.63174495 </v>
    <v>       0.81821729       0.43932282       0.65373769 </v>
    <v>       0.44874502       0.30128397       0.76888902 </v>
    <v>       0.44874501       0.80128391       0.76888902 </v>
    <v>       0.94874497       0.30128397       0.76888902 </v>
    <v>       0.94874501       0.80128391       0.76888902 </v>
    <v>       0.30127600       0.05129450       0.76887296 </v>
    <v>       0.30127601       0.55129450       0.76887296 </v>
    <v>       0.80127594       0.05129450       0.76887296 </v>
    <v>       0.80127598       0.55129450       0.76887296 </v>
    <v>       0.07877100       0.17118050       0.74344197 </v>
    <v>       0.07877101       0.67118045       0.74344197 </v>
    <v>       0.57877100       0.17118050       0.74344197 </v>
    <v>       0.57877099       0.67118045       0.74344197 </v>
    <v>       0.17119950       0.42117448       0.74342103 </v>
    <v>       0.17119950       0.92117451       0.74342103 </v>
    <v>       0.67119951       0.42117448       0.74342103 </v>
    <v>       0.67119950       0.92117451       0.74342103 </v>
    <v>       0.05125600       0.19871499       0.76888902 </v>
    <v>       0.05125600       0.69871493       0.76888902 </v>
    <v>       0.55125603       0.19871499       0.76888902 </v>
    <v>       0.55125602       0.69871493       0.76888902 </v>
    <v>       0.19872349       0.44870397       0.76887205 </v>
    <v>       0.19872349       0.94870397       0.76887205 </v>
    <v>       0.69872352       0.44870397       0.76887205 </v>
    <v>       0.69872351       0.94870397       0.76887205 </v>
    <v>       0.42123152       0.32881747       0.74344197 </v>
    <v>       0.42123151       0.82881744       0.74344197 </v>
    <v>       0.92123147       0.32881747       0.74344197 </v>
    <v>       0.92123151       0.82881744       0.74344197 </v>
    <v>       0.32880050       0.07882500       0.74342103 </v>
    <v>       0.32880049       0.57882496       0.74342103 </v>
    <v>       0.82880048       0.07882500       0.74342103 </v>
    <v>       0.82880052       0.57882496       0.74342103 </v>
    <v>       0.00000350       0.25000148       0.72582199 </v>
    <v>       0.00000350       0.75000145       0.72582199 </v>
    <v>       0.50000351       0.25000148       0.72582199 </v>
    <v>       0.50000350       0.75000145       0.72582199 </v>
    <v>       0.25000050       0.00000000       0.72580398 </v>
    <v>       0.25000052       0.50000000       0.72580398 </v>
    <v>       0.75000050       0.00000000       0.72580398 </v>
    <v>       0.75000049       0.50000000       0.72580398 </v>
    <v>       0.77575682       0.55671239       0.51880006 </v>
    <v>       0.71914046       0.47905309       0.52441208 </v>
    <v>       0.86838044       0.50154940       0.53795599 </v>
    <v>       0.86024524       0.48321825       0.56549970 </v>
    <v>       0.74421929       0.64152693       0.55962450 </v>
    <v>       0.81379425       0.59793145       0.57528541 </v>
    <v>       0.66678380       0.54693964       0.56850366 </v>
    <v>       0.68165748       0.45476066       0.55989372 </v>
    <v>       0.61693241       0.55999070       0.53687130 </v>
    <v>       0.67411377       0.63961698       0.53436420 </v>
    <v>       0.60588139       0.64576585       0.50304678 </v>
    <v>       0.68694898       0.60215500       0.49379838 </v>
    <v>       0.78810155       0.38957081       0.52944134 </v>
    <v>       0.77698266       0.37216430       0.55735580 </v>
    <v>       0.86540888       0.36683649       0.54551615 </v>
    <v>       0.86266837       0.69643211       0.55218277 </v>
    <v>       0.83813038       0.64843546       0.52880297 </v>
    <v>       0.90639289       0.61019762       0.54649834 </v>
    <v>       0.77112053       0.52904465       0.59624059 </v>
    <v>       0.77435043       0.43467013       0.58864264 </v>
    <v>       0.69329290       0.47259757       0.59979086 </v>
    <v>       0.53887790       0.52784033       0.50478047 </v>
    <v>       0.57353596       0.54501448       0.47880771 </v>
    <v>       0.70371206       0.48025197       0.46993313 </v>
    <v>       0.55639400       0.41365070       0.52043173 </v>
    <v>       0.76592233       0.35800491       0.47158065 </v>
    <v>       0.61991030       0.29099713       0.52236449 </v>
    <v>       0.72541821       0.26358815       0.49833933 </v>
    <v>       0.01954555       0.25516644       0.55695185 </v>
    <v>       0.03516834       0.76477267       0.56077568 </v>
    <v>       0.46285726       0.22591379       0.55572224 </v>
    <v>       0.50128291       0.75517388       0.55470873 </v>
    <v>       0.23748243       0.53574568       0.55987071 </v>
    <v>       0.25366746       0.01460294       0.55753082 </v>
    <v>       0.77925222       0.97898740       0.56006527 </v>
    <v>       0.01068366       0.24462308       0.64803458 </v>
    <v>       0.01219220       0.76136616       0.65248939 </v>
    <v>       0.48140168       0.22642427       0.65504319 </v>
    <v>       0.49911581       0.75484290       0.64874359 </v>
    <v>       0.25259027       0.49605274       0.64862986 </v>
    <v>       0.24930927       0.99725303       0.64663013 </v>
    <v>       0.77739396       0.48329486       0.65526143 </v>
    <v>       0.75439422       0.99743994       0.64907721 </v>
    <v>       0.49998898       0.24999498       0.74327702 </v>
    <v>       0.49998903       0.74999496       0.74327702 </v>
    <v>       0.99998898       0.24999498       0.74327702 </v>
    <v>       0.99998903       0.74999496       0.74327702 </v>
    <v>       0.25000050       0.00000100       0.74325596 </v>
    <v>       0.25000052       0.50000100       0.74325596 </v>
    <v>       0.75000050       0.00000100       0.74325596 </v>
    <v>       0.75000049       0.50000100       0.74325596 </v>
    <v>       0.62631990       0.45575816       0.49546961 </v>
    <v>       0.68491863       0.43889648       0.48156559 </v>
    <v>       0.60234904       0.40126222       0.50976279 </v>
    <v>       0.72006723       0.37013077       0.48243817 </v>
    <v>       0.63754364       0.33276135       0.51083447 </v>
    <v>       0.69700226       0.31677112       0.49730574 </v>
    <v>       0.73154522       0.53583385       0.52927298 </v>
    <v>       0.83148257       0.47819291       0.55012645 </v>
    <v>       0.79302463       0.60535840       0.55892191 </v>
    <v>       0.70845173       0.50301311       0.56722362 </v>
    <v>       0.66261398       0.58446455       0.52759057 </v>
    <v>       0.63805190       0.59401835       0.50417595 </v>
    <v>       0.81312701       0.39796965       0.54527312 </v>
    <v>       0.85389820       0.64067446       0.54560412 </v>
    <v>       0.73937512       0.48417157       0.58898621 </v>
    <v>       0.58992104       0.53080456       0.49527875 </v>
    <v>       0.99366699       0.19287648       0.56485694 </v>
    <v>       0.03168209       0.70328795       0.57186810 </v>
    <v>       0.53310268       0.21299012       0.55987657 </v>
    <v>       0.47561909       0.69361324       0.56300720 </v>
    <v>       0.42880574       0.28956047       0.55766208 </v>
    <v>       0.47696836       0.82152344       0.55937452 </v>
    <v>       0.99612110       0.32086653       0.56275654 </v>
    <v>       0.98447861       0.81706483       0.56129330 </v>
    <v>       0.23491548       0.46670514       0.56633611 </v>
    <v>       0.19653019       0.97488487       0.56350730 </v>
    <v>       0.70833212       0.98217715       0.56470413 </v>
    <v>       0.32255446       0.99740701       0.56215626 </v>
    <v>       0.29819654       0.57380089       0.55630182 </v>
    <v>       0.82501165       0.03532843       0.56043595 </v>
    <v>       0.05592430       0.19372239       0.65554237 </v>
    <v>       0.06581230       0.71532783       0.65768886 </v>
    <v>       0.55133629       0.20804246       0.65654862 </v>
    <v>       0.53517596       0.70238653       0.65889424 </v>
    <v>       0.20622436       0.44964224       0.65752336 </v>
    <v>       0.20646133       0.95516748       0.65860762 </v>
    <v>       0.70756699       0.46300602       0.65717612 </v>
    <v>       0.70617840       0.95593777       0.65939525 </v>
    <v>       0.45465711       0.29330460       0.65708650 </v>
    <v>       0.45770767       0.80573787       0.65771700 </v>
    <v>       0.96751879       0.28737940       0.65967601 </v>
    <v>       0.94555767       0.76054584       0.66086900 </v>
    <v>       0.29749472       0.04561884       0.65347842 </v>
    <v>       0.29582511       0.54357558       0.65867471 </v>
    <v>       0.79869071       0.04616332       0.65776132 </v>
    <v>       0.80070061       0.55158985       0.65523823 </v>
    <v>       0.04586250       0.20411950       0.75272599 </v>
    <v>       0.04586250       0.70411946       0.75272599 </v>
    <v>       0.54586251       0.20411950       0.75272599 </v>
    <v>       0.54586250       0.70411946       0.75272599 </v>
    <v>       0.20411900       0.45410100       0.75270499 </v>
    <v>       0.20411899       0.95410095       0.75270499 </v>
    <v>       0.70411898       0.45410100       0.75270499 </v>
    <v>       0.70411896       0.95410095       0.75270499 </v>
    <v>       0.45414002       0.29588849       0.75272697 </v>
    <v>       0.45414001       0.79588852       0.75272697 </v>
    <v>       0.95414002       0.29588849       0.75272697 </v>
    <v>       0.95414006       0.79588852       0.75272697 </v>
    <v>       0.29588249       0.04590050       0.75270499 </v>
    <v>       0.29588248       0.54590053       0.75270499 </v>
    <v>       0.79588244       0.04590050       0.75270499 </v>
    <v>       0.79588248       0.54590053       0.75270499 </v>
    <v>       0.76571015       0.53013841       0.55137499 </v>
    <v>       0.51448539       0.01592156       0.55215347 </v>
    <v>       0.48263760       0.49455920       0.55443908 </v>
    <v>       0.01328077       0.00581479       0.54840943 </v>
    <v>       0.03743308       0.50831300       0.55333730 </v>
    <v>       0.23703257       0.24124957       0.55204175 </v>
    <v>       0.25570376       0.76556537       0.55358295 </v>
    <v>       0.73837173       0.20513230       0.55438658 </v>
    <v>       0.70085521       0.79155499       0.55426235 </v>
    <v>       0.00201080       0.98330657       0.65350901 </v>
    <v>       0.99727045       0.50649702       0.65474253 </v>
    <v>       0.49667859       0.01235564       0.65429658 </v>
    <v>       0.50691321       0.48902462       0.65482348 </v>
    <v>       0.25978419       0.24647296       0.65433113 </v>
    <v>       0.25823687       0.75448250       0.65470846 </v>
    <v>       0.74570778       0.26697964       0.65429114 </v>
    <v>       0.74615039       0.74629621       0.65419902 </v>
    <v>       0.13487463       0.11191154       0.60720568 </v>
    <v>       0.14859680       0.60651963       0.60808220 </v>
    <v>       0.64751390       0.10495765       0.60962737 </v>
    <v>       0.61627717       0.62804789       0.60871428 </v>
    <v>       0.35810475       0.38765375       0.60468253 </v>
    <v>       0.37523196       0.87988090       0.60629424 </v>
    <v>       0.89002082       0.36469432       0.60891873 </v>
    <v>       0.86796657       0.87771477       0.60451233 </v>
    <v>       0.12097226       0.36782597       0.60955124 </v>
    <v>       0.12410278       0.86709741       0.60754797 </v>
    <v>       0.59365001       0.33877453       0.60114038 </v>
    <v>       0.61669308       0.87130359       0.61296458 </v>
    <v>       0.38674999       0.13505229       0.60506444 </v>
    <v>       0.38487096       0.62842862       0.61057348 </v>
    <v>       0.88674398       0.13296048       0.61057653 </v>
    <v>       0.89496802       0.64634267       0.60986771 </v>
    <v>       0.00000000       0.00000000       0.75492797 </v>
    <v>       0.00000000       0.50000000       0.75492797 </v>
    <v>       0.50000000       0.00000000       0.75492797 </v>
    <v>       0.49999999       0.50000000       0.75492797 </v>
    <v>       0.25000050       0.25000000       0.75493902 </v>
    <v>       0.25000051       0.74999997       0.75493902 </v>
    <v>       0.75000047       0.25000000       0.75493902 </v>
    <v>       0.75000046       0.74999997       0.75493902 </v>
    <v>       0.13579050       0.11421000       0.70478299 </v>
    <v>       0.13579050       0.61420998       0.70478299 </v>
    <v>       0.63579045       0.11421000       0.70478299 </v>
    <v>       0.63579049       0.61420998       0.70478299 </v>
    <v>       0.36420952       0.38578999       0.70478299 </v>
    <v>       0.36420950       0.88578996       0.70478299 </v>
    <v>       0.86420954       0.38578999       0.70478299 </v>
    <v>       0.86420953       0.88578996       0.70478299 </v>
    <v>       0.11421799       0.36421899       0.70478098 </v>
    <v>       0.11421799       0.86421899       0.70478098 </v>
    <v>       0.61421800       0.36421899       0.70478098 </v>
    <v>       0.61421799       0.86421899       0.70478098 </v>
    <v>       0.38578201       0.13578149       0.70478202 </v>
    <v>       0.38578200       0.63578149       0.70478202 </v>
    <v>       0.88578199       0.13578149       0.70478202 </v>
    <v>       0.88578203       0.63578149       0.70478202 </v>
    <v>       0.13466700       0.11533200       0.80125603 </v>
    <v>       0.13466699       0.61533199       0.80125603 </v>
    <v>       0.63466699       0.11533200       0.80125603 </v>
    <v>       0.63466698       0.61533199       0.80125603 </v>
    <v>       0.36533300       0.38466799       0.80125603 </v>
    <v>       0.36533299       0.88466796       0.80125603 </v>
    <v>       0.86533295       0.38466799       0.80125603 </v>
    <v>       0.86533294       0.88466796       0.80125603 </v>
    <v>       0.11532850       0.36533700       0.80126500 </v>
    <v>       0.11532850       0.86533698       0.80126500 </v>
    <v>       0.61532850       0.36533700       0.80126500 </v>
    <v>       0.61532849       0.86533698       0.80126500 </v>
    <v>       0.38467151       0.13466300       0.80126500 </v>
    <v>       0.38467150       0.63466297       0.80126500 </v>
    <v>       0.88467149       0.13466300       0.80126500 </v>
    <v>       0.88467153       0.63466297       0.80126500 </v>
    <v>       0.99979674       0.99886870       0.60445049 </v>
    <v>       0.00591999       0.50467561       0.60436685 </v>
    <v>       0.50577873       0.00645282       0.60378544 </v>
    <v>       0.49959737       0.49190215       0.60448290 </v>
    <v>       0.24860756       0.24677087       0.60239246 </v>
    <v>       0.25314976       0.74572320       0.60376303 </v>
    <v>       0.74483312       0.24536167       0.60240711 </v>
    <v>       0.73774651       0.75508302       0.60277150 </v>
    <v>       0.00000050       0.00000050       0.70482896 </v>
    <v>       0.00000050       0.50000048       0.70482896 </v>
    <v>       0.50000048       0.00000050       0.70482896 </v>
    <v>       0.50000046       0.50000048       0.70482896 </v>
    <v>       0.24999999       0.24999947       0.70482499 </v>
    <v>       0.25000001       0.74999950       0.70482499 </v>
    <v>       0.74999999       0.24999947       0.70482499 </v>
    <v>       0.74999998       0.74999950       0.70482499 </v>
    <v>       0.00000000       0.00000000       0.80731797 </v>
    <v>       0.00000000       0.50000000       0.80731797 </v>
    <v>       0.50000000       0.00000000       0.80731797 </v>
    <v>       0.49999999       0.50000000       0.80731797 </v>
    <v>       0.24999999       0.25000000       0.80731797 </v>
    <v>       0.25000001       0.74999997       0.80731797 </v>
    <v>       0.74999999       0.25000000       0.80731797 </v>
    <v>       0.74999998       0.74999997       0.80731797 </v>
   </varray>
  </structure>
  <varray name="primitive_index" >
   <v type="int" >        1 </v>
   <v type="int" >        2 </v>
   <v type="int" >        3 </v>
   <v type="int" >        4 </v>
   <v type="int" >        5 </v>
   <v type="int" >        6 </v>
   <v type="int" >        7 </v>
   <v type="int" >        8 </v>
   <v type="int" >        9 </v>
   <v type="int" >       10 </v>
   <v type="int" >       11 </v>
   <v type="int" >       12 </v>
   <v type="int" >       13 </v>
   <v type="int" >       14 </v>
   <v type="int" >       15 </v>
   <v type="int" >       16 </v>
   <v type="int" >       17 </v>
   <v type="int" >       18 </v>
   <v type="int" >       19 </v>
   <v type="int" >       20 </v>
   <v type="int" >       21 </v>
   <v type="int" >       22 </v>
   <v type="int" >       23 </v>
   <v type="int" >       24 </v>
   <v type="int" >       25 </v>
   <v type="int" >       26 </v>
   <v type="int" >       27 </v>
   <v type="int" >       28 </v>
   <v type="int" >       29 </v>
   <v type="int" >       30 </v>
   <v type="int" >       31 </v>
   <v type="int" >       32 </v>
   <v type="int" >       33 </v>
   <v type="int" >       34 </v>
   <v type="int" >       35 </v>
   <v type="int" >       36 </v>
   <v type="int" >       37 </v>
   <v type="int" >       38 </v>
   <v type="int" >       39 </v>
   <v type="int" >       40 </v>
   <v type="int" >       41 </v>
   <v type="int" >       42 </v>
   <v type="int" >       43 </v>
   <v type="int" >       44 </v>
   <v type="int" >       45 </v>
   <v type="int" >       46 </v>
   <v type="int" >       47 </v>
   <v type="int" >       48 </v>
   <v type="int" >       49 </v>
   <v type="int" >       50 </v>
   <v type="int" >       51 </v>
   <v type="int" >       52 </v>
   <v type="int" >       53 </v>
   <v type="int" >       54 </v>
   <v type="int" >       55 </v>
   <v type="int" >       56 </v>
   <v type="int" >       57 </v>
   <v type="int" >       58 </v>
   <v type="int" >       59 </v>
   <v type="int" >       60 </v>
   <v type="int" >       61 </v>
   <v type="int" >       62 </v>
   <v type="int" >       63 </v>
   <v type="int" >       64 </v>
   <v type="int" >       65 </v>
   <v type="int" >       66 </v>
   <v type="int" >       67 </v>
   <v type="int" >       68 </v>
   <v type="int" >       69 </v>
   <v type="int" >       70 </v>
   <v type="int" >       71 </v>
   <v type="int" >       72 </v>
   <v type="int" >       73 </v>
   <v type="int" >       74 </v>
   <v type="int" >       75 </v>
   <v type="int" >       76 </v>
   <v type="int" >       77 </v>
   <v type="int" >       78 </v>
   <v type="int" >       79 </v>
   <v type="int" >       80 </v>
   <v type="int" >       81 </v>
   <v type="int" >       82 </v>
   <v type="int" >       83 </v>
   <v type="int" >       84 </v>
   <v type="int" >       85 </v>
   <v type="int" >       86 </v>
   <v type="int" >       87 </v>
   <v type="int" >       88 </v>
   <v type="int" >       89 </v>
   <v type="int" >       90 </v>
   <v type="int" >       91 </v>
   <v type="int" >       92 </v>
   <v type="int" >       93 </v>
   <v type="int" >       94 </v>
   <v type="int" >       95 </v>
   <v type="int" >       96 </v>
   <v type="int" >       97 </v>
   <v type="int" >       98 </v>
   <v type="int" >       99 </v>
   <v type="int" >      100 </v>
   <v type="int" >      101 </v>
   <v type="int" >      102 </v>
   <v type="int" >      103 </v>
   <v type="int" >      104 </v>
   <v type="int" >      105 </v>
   <v type="int" >      106 </v>
   <v type="int" >      107 </v>
   <v type="int" >      108 </v>
   <v type="int" >      109 </v>
   <v type="int" >      110 </v>
   <v type="int" >      111 </v>
   <v type="int" >      112 </v>
   <v type="int" >      113 </v>
   <v type="int" >      114 </v>
   <v type="int" >      115 </v>
   <v type="int" >      116 </v>
   <v type="int" >      117 </v>
   <v type="int" >      118 </v>
   <v type="int" >      119 </v>
   <v type="int" >      120 </v>
   <v type="int" >      121 </v>
   <v type="int" >      122 </v>
   <v type="int" >      123 </v>
   <v type="int" >      124 </v>
   <v type="int" >      125 </v>
   <v type="int" >      126 </v>
   <v type="int" >      127 </v>
   <v type="int" >      128 </v>
   <v type="int" >      129 </v>
   <v type="int" >      130 </v>
   <v type="int" >      131 </v>
   <v type="int" >      132 </v>
   <v type="int" >      133 </v>
   <v type="int" >      134 </v>
   <v type="int" >      135 </v>
   <v type="int" >      136 </v>
   <v type="int" >      137 </v>
   <v type="int" >      138 </v>
   <v type="int" >      139 </v>
   <v type="int" >      140 </v>
   <v type="int" >      141 </v>
   <v type="int" >      142 </v>
   <v type="int" >      143 </v>
   <v type="int" >      144 </v>
   <v type="int" >      145 </v>
   <v type="int" >      146 </v>
   <v type="int" >      147 </v>
   <v type="int" >      148 </v>
   <v type="int" >      149 </v>
   <v type="int" >      150 </v>
   <v type="int" >      151 </v>
   <v type="int" >      152 </v>
   <v type="int" >      153 </v>
   <v type="int" >      154 </v>
   <v type="int" >      155 </v>
   <v type="int" >      156 </v>
   <v type="int" >      157 </v>
   <v type="int" >      158 </v>
   <v type="int" >      159 </v>
   <v type="int" >      160 </v>
   <v type="int" >      161 </v>
   <v type="int" >      162 </v>
   <v type="int" >      163 </v>
   <v type="int" >      164 </v>
   <v type="int" >      165 </v>
   <v type="int" >      166 </v>
   <v type="int" >      167 </v>
   <v type="int" >      168 </v>
   <v type="int" >      169 </v>
   <v type="int" >      170 </v>
   <v type="int" >      171 </v>
   <v type="int" >      172 </v>
   <v type="int" >      173 </v>
   <v type="int" >      174 </v>
   <v type="int" >      175 </v>
   <v type="int" >      176 </v>
   <v type="int" >      177 </v>
   <v type="int" >      178 </v>
   <v type="int" >      179 </v>
   <v type="int" >      180 </v>
   <v type="int" >      181 </v>
   <v type="int" >      182 </v>
   <v type="int" >      183 </v>
   <v type="int" >      184 </v>
   <v type="int" >      185 </v>
   <v type="int" >      186 </v>
   <v type="int" >      187 </v>
   <v type="int" >      188 </v>
   <v type="int" >      189 </v>
   <v type="int" >      190 </v>
   <v type="int" >      191 </v>
   <v type="int" >      192 </v>
   <v type="int" >      193 </v>
   <v type="int" >      194 </v>
   <v type="int" >      195 </v>
   <v type="int" >      196 </v>
   <v type="int" >      197 </v>
   <v type="int" >      198 </v>
   <v type="int" >      199 </v>
   <v type="int" >      200 </v>
   <v type="int" >      201 </v>
   <v type="int" >      202 </v>
   <v type="int" >      203 </v>
   <v type="int" >      204 </v>
   <v type="int" >      205 </v>
   <v type="int" >      206 </v>
   <v type="int" >      207 </v>
   <v type="int" >      208 </v>
   <v type="int" >      209 </v>
   <v type="int" >      210 </v>
   <v type="int" >      211 </v>
   <v type="int" >      212 </v>
   <v type="int" >      213 </v>
   <v type="int" >      214 </v>
   <v type="int" >      215 </v>
   <v type="int" >      216 </v>
   <v type="int" >      217 </v>
   <v type="int" >      218 </v>
   <v type="int" >      219 </v>
   <v type="int" >      220 </v>
   <v type="int" >      221 </v>
   <v type="int" >      222 </v>
   <v type="int" >      223 </v>
   <v type="int" >      224 </v>
   <v type="int" >      225 </v>
   <v type="int" >      226 </v>
   <v type="int" >      227 </v>
   <v type="int" >      228 </v>
   <v type="int" >      229 </v>
   <v type="int" >      230 </v>
   <v type="int" >      231 </v>
   <v type="int" >      232 </v>
   <v type="int" >      233 </v>
   <v type="int" >      234 </v>
   <v type="int" >      235 </v>
   <v type="int" >      236 </v>
   <v type="int" >      237 </v>
   <v type="int" >      238 </v>
   <v type="int" >      239 </v>
   <v type="int" >      240 </v>
   <v type="int" >      241 </v>
   <v type="int" >      242 </v>
   <v type="int" >      243 </v>
   <v type="int" >      244 </v>
   <v type="int" >      245 </v>
   <v type="int" >      246 </v>
   <v type="int" >      247 </v>
   <v type="int" >      248 </v>
   <v type="int" >      249 </v>
   <v type="int" >      250 </v>
   <v type="int" >      251 </v>
   <v type="int" >      252 </v>
   <v type="int" >      253 </v>
   <v type="int" >      254 </v>
   <v type="int" >      255 </v>
   <v type="int" >      256 </v>
   <v type="int" >      257 </v>
   <v type="int" >      258 </v>
   <v type="int" >      259 </v>
   <v type="int" >      260 </v>
   <v type="int" >      261 </v>
   <v type="int" >      262 </v>
   <v type="int" >      263 </v>
   <v type="int" >      264 </v>
   <v type="int" >      265 </v>
   <v type="int" >      266 </v>
   <v type="int" >      267 </v>
   <v type="int" >      268 </v>
   <v type="int" >      269 </v>
   <v type="int" >      270 </v>
   <v type="int" >      271 </v>
   <v type="int" >      272 </v>
   <v type="int" >      273 </v>
   <v type="int" >      274 </v>
   <v type="int" >      275 </v>
   <v type="int" >      276 </v>
   <v type="int" >      277 </v>
   <v type="int" >      278 </v>
   <v type="int" >      279 </v>
   <v type="int" >      280 </v>
   <v type="int" >      281 </v>
   <v type="int" >      282 </v>
   <v type="int" >      283 </v>
   <v type="int" >      284 </v>
   <v type="int" >      285 </v>
   <v type="int" >      286 </v>
   <v type="int" >      287 </v>
   <v type="int" >      288 </v>
   <v type="int" >      289 </v>
   <v type="int" >      290 </v>
   <v type="int" >      291 </v>
   <v type="int" >      292 </v>
   <v type="int" >      293 </v>
   <v type="int" >      294 </v>
   <v type="int" >      295 </v>
   <v type="int" >      296 </v>
   <v type="int" >      297 </v>
   <v type="int" >      298 </v>
   <v type="int" >      299 </v>
   <v type="int" >      300 </v>
   <v type="int" >      301 </v>
   <v type="int" >      302 </v>
   <v type="int" >      303 </v>
   <v type="int" >      304 </v>
   <v type="int" >      305 </v>
   <v type="int" >      306 </v>
   <v type="int" >      307 </v>
   <v type="int" >      308 </v>
   <v type="int" >      309 </v>
   <v type="int" >      310 </v>
   <v type="int" >      311 </v>
   <v type="int" >      312 </v>
   <v type="int" >      313 </v>
   <v type="int" >      314 </v>
   <v type="int" >      315 </v>
   <v type="int" >      316 </v>
   <v type="int" >      317 </v>
   <v type="int" >      318 </v>
   <v type="int" >      319 </v>
   <v type="int" >      320 </v>
   <v type="int" >      321 </v>
   <v type="int" >      322 </v>
   <v type="int" >      323 </v>
   <v type="int" >      324 </v>
   <v type="int" >      325 </v>
  </varray>
 </primitive_cell>
 <kpoints>
  <generation param="Gamma">
   <v type="int" name="divisions">       3        3        1 </v>
   <v name="usershift">      0.00000000       0.00000000       0.00000000 </v>
   <v name="genvec1">      0.33333333       0.00000000       0.00000000 </v>
   <v name="genvec2">      0.00000000       0.33333333       0.00000000 </v>
   <v name="genvec3">      0.00000000       0.00000000       1.00000000 </v>
   <v name="shift">      0.00000000       0.00000000       0.00000000 </v>
  </generation>
  <varray name="kpointlist" >
   <v>       0.00000000       0.00000000       0.00000000 </v>
   <v>       0.33333333       0.00000000       0.00000000 </v>
   <v>       0.00000000       0.33333333       0.00000000 </v>
   <v>       0.33333333       0.33333333       0.00000000 </v>
   <v>      -0.33333333       0.33333333       0.00000000 </v>
  </varray>
  <varray name="weights" >
   <v>       0.11111111 </v>
   <v>       0.22222222 </v>
   <v>       0.22222222 </v>
   <v>       0.22222222 </v>
   <v>       0.22222222 </v>
  </varray>
 </kpoints>
 <parameters>
  <separator name="general" >
   <i type="string" name="SYSTEM">PSC</i>
   <i type="logical" name="LCOMPAT"> F  </i>
  </separator>
  <separator name="electronic" >
   <i type="string" name="PREC">normal</i>
   <i name="ENMAX">    500.00000000</i>
   <i name="ENAUG">    644.87300000</i>
   <i name="EDIFF">      0.00010000</i>
   <i type="int" name="IALGO">    38</i>
   <i type="int" name="IWAVPR">    10</i>
   <i type="int" name="NBANDS">   732</i>
   <i type="int" name="NBANDSLOW">    -1</i>
   <i type="int" name="NBANDSHIGH">    -1</i>
   <i name="NELECT">   1134.00000000</i>
   <i type="int" name="TURBO">     0</i>
   <i type="int" name="IRESTART">     0</i>
   <i type="int" name="NREBOOT">     0</i>
   <i type="int" name="NMIN">     0</i>
   <i name="EREF">      0.00000000</i>
   <separator name="electronic smearing" >
    <i type="int" name="ISMEAR">     0</i>
    <i name="SIGMA">      0.05000000</i>
    <i name="KSPACING">      0.50000000</i>
    <i type="logical" name="KGAMMA"> T  </i>
    <i type="logical" name="KBLOWUP"> T  </i>
   </separator>
   <separator name="electronic projectors" >
    <i type="logical" name="LREAL"> T  </i>
    <v name="ROPT">     -0.00050000     -0.00050000     -0.00050000     -0.00050000     -0.00050000</v>
    <i type="int" name="LMAXPAW">  -100</i>
    <i type="int" name="LMAXMIX">     2</i>
    <i type="logical" name="NLSPLINE"> F  </i>
   </separator>
   <separator name="electronic startup" >
    <i type="int" name="ISTART">     0</i>
    <i type="int" name="ICHARG">     1</i>
    <i type="int" name="INIWAV">     1</i>
   </separator>
   <separator name="electronic spin" >
    <i type="int" name="ISPIN">     1</i>
    <i type="logical" name="LNONCOLLINEAR"> F  </i>
    <v name="MAGMOM">      1.00000000      1.00000000      1.00000000      1.00000000      1.00000000      1.00000000      1.00000000      1.00000000      1.00000000      1.00000000      1.00000000      1.00000000      1.00000000      1.00000000      1.00000000      1.00000000      1.00000000      1.00000000      1.00000000      1.00000000
      1.00000000      1.00000000      1.00000000      1.00000000      1.00000000      1.00000000      1.00000000      1.00000000      1.00000000      1.00000000      1.00000000      1.00000000      1.00000000      1.00000000      1.00000000      1.00000000      1.00000000      1.00000000      1.00000000      1.00000000
      1.00000000      1.00000000      1.00000000      1.00000000      1.00000000      1.00000000      1.00000000      1.00000000      1.00000000      1.00000000      1.00000000      1.00000000      1.00000000      1.00000000      1.00000000      1.00000000      1.00000000      1.00000000      1.00000000      1.00000000
      1.00000000      1.00000000      1.00000000      1.00000000      1.00000000      1.00000000      1.00000000      1.00000000      1.00000000      1.00000000      1.00000000      1.00000000      1.00000000      1.00000000      1.00000000      1.00000000      1.00000000      1.00000000      1.00000000      1.00000000
      1.00000000      1.00000000      1.00000000      1.00000000      1.00000000      1.00000000      1.00000000      1.00000000      1.00000000      1.00000000      1.00000000      1.00000000      1.00000000      1.00000000      1.00000000      1.00000000      1.00000000      1.00000000      1.00000000      1.00000000
      1.00000000      1.00000000      1.00000000      1.00000000      1.00000000      1.00000000      1.00000000      1.00000000      1.00000000      1.00000000      1.00000000      1.00000000      1.00000000      1.00000000      1.00000000      1.00000000      1.00000000      1.00000000      1.00000000      1.00000000
      1.00000000      1.00000000      1.00000000      1.00000000      1.00000000      1.00000000      1.00000000      1.00000000      1.00000000      1.00000000      1.00000000      1.00000000      1.00000000      1.00000000      1.00000000      1.00000000      1.00000000      1.00000000      1.00000000      1.00000000
      1.00000000      1.00000000      1.00000000      1.00000000      1.00000000      1.00000000      1.00000000      1.00000000      1.00000000      1.00000000      1.00000000      1.00000000      1.00000000      1.00000000      1.00000000      1.00000000      1.00000000      1.00000000      1.00000000      1.00000000
      1.00000000      1.00000000      1.00000000      1.00000000      1.00000000      1.00000000      1.00000000      1.00000000      1.00000000      1.00000000      1.00000000      1.00000000      1.00000000      1.00000000      1.00000000      1.00000000      1.00000000      1.00000000      1.00000000      1.00000000
      1.00000000      1.00000000      1.00000000      1.00000000      1.00000000      1.00000000      1.00000000      1.00000000      1.00000000      1.00000000      1.00000000      1.00000000      1.00000000      1.00000000      1.00000000      1.00000000      1.00000000      1.00000000      1.00000000      1.00000000
      1.00000000      1.00000000      1.00000000      1.00000000      1.00000000      1.00000000      1.00000000      1.00000000      1.00000000      1.00000000      1.00000000      1.00000000      1.00000000      1.00000000      1.00000000      1.00000000      1.00000000      1.00000000      1.00000000      1.00000000
      1.00000000      1.00000000      1.00000000      1.00000000      1.00000000      1.00000000      1.00000000      1.00000000      1.00000000      1.00000000      1.00000000      1.00000000      1.00000000      1.00000000      1.00000000      1.00000000      1.00000000      1.00000000      1.00000000      1.00000000
      1.00000000      1.00000000      1.00000000      1.00000000      1.00000000      1.00000000      1.00000000      1.00000000      1.00000000      1.00000000      1.00000000      1.00000000      1.00000000      1.00000000      1.00000000      1.00000000      1.00000000      1.00000000      1.00000000      1.00000000
      1.00000000      1.00000000      1.00000000      1.00000000      1.00000000      1.00000000      1.00000000      1.00000000      1.00000000      1.00000000      1.00000000      1.00000000      1.00000000      1.00000000      1.00000000      1.00000000      1.00000000      1.00000000      1.00000000      1.00000000
      1.00000000      1.00000000      1.00000000      1.00000000      1.00000000      1.00000000      1.00000000      1.00000000      1.00000000      1.00000000      1.00000000      1.00000000      1.00000000      1.00000000      1.00000000      1.00000000      1.00000000      1.00000000      1.00000000      1.00000000
      1.00000000      1.00000000      1.00000000      1.00000000      1.00000000      1.00000000      1.00000000      1.00000000      1.00000000      1.00000000      1.00000000      1.00000000      1.00000000      1.00000000      1.00000000      1.00000000      1.00000000      1.00000000      1.00000000      1.00000000
      1.00000000      1.00000000      1.00000000      1.00000000      1.00000000</v>
    <i name="NUPDOWN">     -1.00000000</i>
    <i type="logical" name="LSORBIT"> F  </i>
    <v name="SAXIS">      0.00000000      0.00000000      1.00000000</v>
    <i type="logical" name="LSPIRAL"> F  </i>
    <v name="QSPIRAL">      0.00000000      0.00000000      0.00000000</v>
    <i type="logical" name="LZEROZ"> F  </i>
   </separator>
   <separator name="electronic exchange-correlation" >
    <i type="logical" name="LASPH"> F  </i>
    <i type="logical" name="LMETAGGA"> F  </i>
   </separator>
   <separator name="electronic convergence" >
    <i type="int" name="NELM">   600</i>
    <i type="int" name="NELMDL">     0</i>
    <i type="int" name="NELMIN">     2</i>
    <i name="ENINI">    500.00000000</i>
    <separator name="electronic convergence detail" >
     <i type="logical" name="LDIAG"> T  </i>
     <i type="logical" name="LSUBROT"> F  </i>
     <i name="WEIMIN">      0.00000000</i>
     <i name="EBREAK">      0.00000003</i>
     <i name="DEPER">      0.30000000</i>
     <i type="int" name="NRMM">     4</i>
     <i name="TIME">      0.40000000</i>
    </separator>
   </separator>
   <separator name="electronic mixer" >
    <i name="AMIX">      0.40000000</i>
    <i name="BMIX">      0.01000000</i>
    <i name="AMIN">      0.01000000</i>
    <i name="AMIX_MAG">      1.60000000</i>
    <i name="BMIX_MAG">      0.01000000</i>
    <separator name="electronic mixer details" >
     <i type="int" name="IMIX">     4</i>
     <i type="logical" name="MIXFIRST"> F  </i>
     <i type="int" name="MAXMIX">   -45</i>
     <i name="WC">    100.00000000</i>
     <i type="int" name="INIMIX">     1</i>
     <i type="int" name="MIXPRE">     1</i>
     <i type="int" name="MREMOVE">     5</i>
    </separator>
   </separator>
   <separator name="electronic dipolcorrection" >
    <i type="logical" name="LDIPOL"> T  </i>
    <i type="logical" name="LMONO"> F  </i>
    <i type="int" name="IDIPOL">     3</i>
    <i name="EPSILON">      1.00000000</i>
    <v name="DIPOL">   -100.00000000   -100.00000000   -100.00000000</v>
    <i name="EFIELD">      0.00000000</i>
   </separator>
  </separator>
  <separator name="grids" >
   <i type="int" name="NGX">   100</i>
   <i type="int" name="NGY">   100</i>
   <i type="int" name="NGZ">   350</i>
   <i type="int" name="NGXF">   200</i>
   <i type="int" name="NGYF">   200</i>
   <i type="int" name="NGZF">   700</i>
   <i type="logical" name="ADDGRID"> F  </i>
  </separator>
  <separator name="ionic" >
   <i type="int" name="NSW">     0</i>
   <i type="int" name="IBRION">    -1</i>
   <i type="int" name="MDALGO">     0</i>
   <i type="int" name="ISIF">     2</i>
   <i name="PSTRESS">      0.00000000</i>
   <i name="EDIFFG">      0.00100000</i>
   <i type="int" name="NFREE">     0</i>
   <i name="POTIM">      0.50000000</i>
   <i name="SMASS">     -3.00000000</i>
   <i name="SCALEE">      1.00000000</i>
  </separator>
  <separator name="ionic md" >
   <i name="TEBEG">      0.00010000</i>
   <i name="TEEND">      0.00010000</i>
   <i type="int" name="NBLOCK">     1</i>
   <i type="int" name="KBLOCK">     1</i>
   <i type="int" name="NPACO">   256</i>
   <i name="APACO">     16.00000000</i>
  </separator>
  <separator name="symmetry" >
   <i type="int" name="ISYM">     0</i>
   <i name="SYMPREC">      0.00001000</i>
  </separator>
  <separator name="dos" >
   <i type="int" name="LORBIT">     0</i>
   <v name="RWIGS">     -1.00000000     -1.00000000     -1.00000000     -1.00000000     -1.00000000</v>
   <i type="int" name="NEDOS">   301</i>
   <i name="EMIN">     10.00000000</i>
   <i name="EMAX">    -10.00000000</i>
   <i name="EFERMI">      0.00000000</i>
  </separator>
  <separator name="writing" >
   <i type="int" name="NWRITE">     2</i>
   <i type="logical" name="LWAVE"> F  </i>
   <i type="logical" name="LDOWNSAMPLE"> F  </i>
   <i type="logical" name="LCHARG"> T  </i>
   <i type="logical" name="LPARD"> F  </i>
   <i type="logical" name="LVTOT"> T  </i>
   <i type="logical" name="LVHAR"> F  </i>
   <i type="logical" name="LELF"> F  </i>
   <i type="logical" name="LOPTICS"> F  </i>
   <v name="STM">      0.00000000      0.00000000      0.00000000      0.00000000      0.00000000      0.00000000      0.00000000</v>
  </separator>
  <separator name="performance" >
   <i type="int" name="NPAR">     4</i>
   <i type="int" name="NSIM">     4</i>
   <i type="int" name="NBLK">    -1</i>
   <i type="logical" name="LPLANE"> T  </i>
   <i type="logical" name="LSCALAPACK"> T  </i>
   <i type="logical" name="LSCAAWARE"> F  </i>
   <i type="logical" name="LSCALU"> F  </i>
   <i type="logical" name="LASYNC"> F  </i>
   <i type="logical" name="LORBITALREAL"> F  </i>
  </separator>
  <separator name="miscellaneous" >
   <i type="int" name="IDIOT">     3</i>
   <i type="int" name="PHON_NSTRUCT">    -1</i>
   <i type="logical" name="LMUSIC"> F  </i>
   <v name="POMASS">      1.00000000     12.01100000     14.00100000    126.90400000    207.20000000</v>
   <v name="DARWINR">      0.00000000      0.00000000      0.00000000      0.00000000      0.00000000</v>
   <v name="DARWINV">      1.00000000      1.00000000      1.00000000      1.00000000      1.00000000</v>
   <i type="logical" name="LCORR"> T  </i>
  </separator>
  <i type="logical" name="GGA_COMPAT"> F  </i>
  <i type="logical" name="LBERRY"> F  </i>
  <i type="int" name="ICORELEVEL">     0</i>
  <i type="logical" name="LDAU"> F  </i>
  <i type="int" name="I_CONSTRAINED_M">     0</i>
  <separator name="electronic exchange-correlation" >
   <i type="string" name="GGA">--</i>
   <i type="int" name="VOSKOWN">     0</i>
   <i type="logical" name="LHFCALC"> F  </i>
   <i type="string" name="PRECFOCK"></i>
   <i type="logical" name="LSYMGRAD"> F  </i>
   <i type="logical" name="LHFONE"> F  </i>
   <i type="logical" name="LRHFCALC"> F  </i>
   <i type="logical" name="LTHOMAS"> F  </i>
   <i type="logical" name="LMODELHF"> F  </i>
   <i type="logical" name="LFOCKACE"> F  </i>
   <i name="ENCUT4O">     -1.00000000</i>
   <i type="int" name="EXXOEP">     0</i>
   <i type="int" name="FOURORBIT">     0</i>
   <i name="AEXX">      0.00000000</i>
   <i name="HFALPHA">      0.00000000</i>
   <i name="MCALPHA">      0.00000000</i>
   <i name="ALDAX">      1.00000000</i>
   <i name="AGGAX">      1.00000000</i>
   <i name="ALDAC">      1.00000000</i>
   <i name="AGGAC">      1.00000000</i>
   <i type="int" name="NKREDX">     1</i>
   <i type="int" name="NKREDY">     1</i>
   <i type="int" name="NKREDZ">     1</i>
   <i type="logical" name="SHIFTRED"> F  </i>
   <i type="logical" name="ODDONLY"> F  </i>
   <i type="logical" name="EVENONLY"> F  </i>
   <i type="int" name="LMAXFOCK">     0</i>
   <i type="int" name="NMAXFOCKAE">     0</i>
   <i type="logical" name="LFOCKAEDFT"> F  </i>
   <i name="HFSCREEN">      0.00000000</i>
   <i name="HFSCREENC">      0.00000000</i>
   <i type="int" name="NBANDSGWLOW">     0</i>
  </separator>
  <separator name="vdW DFT" >
   <i type="logical" name="LUSE_VDW"> F  </i>
   <i name="Zab_VDW">     -0.84910000</i>
   <i name="PARAM1">      0.12340000</i>
   <i name="PARAM2">      1.00000000</i>
   <i name="PARAM3">      0.00000000</i>
  </separator>
  <separator name="model GW" >
   <i type="int" name="MODEL_GW">     0</i>
   <i name="MODEL_EPS0">     37.63423484</i>
   <i name="MODEL_ALPHA">      1.00000000</i>
  </separator>
  <separator name="linear response parameters" >
   <i type="logical" name="LEPSILON"> F  </i>
   <i type="logical" name="LRPA"> F  </i>
   <i type="logical" name="LNABLA"> F  </i>
   <i type="logical" name="LVEL"> F  </i>
   <i type="int" name="KINTER">     0</i>
   <i name="CSHIFT">      0.10000000</i>
   <i name="OMEGAMAX">     -1.00000000</i>
   <i name="DEG_THRESHOLD">      0.00200000</i>
   <i name="RTIME">     -0.10000000</i>
   <i name="WPLASMAI">      0.00000000</i>
   <v name="DFIELD">      0.00000000      0.00000000      0.00000000</v>
   <v name="WPLASMA">      0.00000000      0.00000000      0.00000000      0.00000000      0.00000000      0.00000000      0.00000000      0.00000000      0.00000000</v>
  </separator>
  <separator name="orbital magnetization" >
   <i type="logical" name="NUCIND"> F  </i>
   <v name="MAGPOS">      0.00000000      0.00000000      0.00000000</v>
   <i type="logical" name="LNICSALL"> T  </i>
   <i type="logical" name="ORBITALMAG"> F  </i>
   <i type="logical" name="LMAGBLOCH"> F  </i>
   <i type="logical" name="LCHIMAG"> F  </i>
   <i type="logical" name="LGAUGE"> T  </i>
   <i type="int" name="MAGATOM">     0</i>
   <v name="MAGDIPOL">      0.00000000      0.00000000      0.00000000</v>
   <v name="AVECCONST">      0.00000000      0.00000000      0.00000000</v>
  </separator>
  <separator name="response functions" >
   <i type="logical" name="LFINITE_TEMPERATURE"> F  </i>
   <i type="logical" name="LADDER"> F  </i>
   <i type="logical" name="LRPAFORCE"> F  </i>
   <i type="logical" name="LFXC"> F  </i>
   <i type="logical" name="LHARTREE"> T  </i>
   <i type="int" name="IBSE">     0</i>
   <v type="int" name="KPOINT">    -1     0     0     0</v>
   <i type="logical" name="LTCTC"> F  </i>
   <i type="logical" name="LTCTE"> F  </i>
   <i type="logical" name="LTETE"> F  </i>
   <i type="logical" name="LTRIPLET"> F  </i>
   <i type="logical" name="LFXCEPS"> F  </i>
   <i type="logical" name="LFXHEG"> F  </i>
   <i type="int" name="NATURALO">     2</i>
   <i type="logical" name="LHOLEGF"> F  </i>
   <i type="logical" name="L2ORDER"> F  </i>
   <i type="logical" name="LDMP1"> F  </i>
   <i type="logical" name="LMP2LT"> F  </i>
   <i type="logical" name="LSMP2LT"> F  </i>
   <i type="logical" name="LGWLF"> F  </i>
   <i name="ENCUTGW">     -2.00000000</i>
   <i name="ENCUTGWSOFT">     -2.00000000</i>
   <i name="ENCUTLF">     -1.00000000</i>
   <i type="logical" name="LESF_SPLINES"> F  </i>
   <i type="int" name="LMAXMP2">    -1</i>
   <i name="SCISSOR">      0.00000000</i>
   <i type="int" name="NOMEGA">     0</i>
   <i type="int" name="NOMEGAR">     0</i>
   <i type="int" name="NBANDSGW">    -1</i>
   <i type="int" name="NBANDSO">    -1</i>
   <i type="int" name="NBANDSV">    -1</i>
   <i type="int" name="NELM">   600</i>
   <i type="int" name="NELMHF">     1</i>
   <i type="int" name="DIM">     3</i>
   <i type="int" name="IESPILON">     4</i>
   <i type="int" name="ANTIRES">     0</i>
   <i name="OMEGAMAX">    -30.00000000</i>
   <i name="OMEGAMIN">    -30.00000000</i>
   <i name="OMEGATL">   -200.00000000</i>
   <i type="int" name="OMEGAGRID">     0</i>
   <i name="CSHIFT">     -0.10000000</i>
   <i type="logical" name="LSELFENERGY"> F  </i>
   <i type="logical" name="LSPECTRAL"> F  </i>
   <i type="logical" name="LSPECTRALGW"> F  </i>
   <i type="logical" name="LSINGLES"> F  </i>
   <i type="logical" name="LFERMIGW"> F  </i>
   <i type="logical" name="ODDONLYGW"> F  </i>
   <i type="logical" name="EVENONLYGW"> F  </i>
   <i type="int" name="NKREDLFX">     1</i>
   <i type="int" name="NKREDLFY">     1</i>
   <i type="int" name="NKREDLFZ">     1</i>
   <i type="int" name="MAXMEM">  2800</i>
   <i type="int" name="TELESCOPE">     0</i>
   <i type="int" name="NTAUPAR">    -1</i>
   <i type="int" name="NOMEGAPAR">    -1</i>
   <i name="DAMP_NEWTON">      0.80000001</i>
   <i name="LAMBDA">      1.00000000</i>
  </separator>
  <separator name="External order field" >
   <i name="OFIELD_KAPPA">      0.00000000</i>
   <v name="OFIELD_K">      0.00000000      0.00000000      0.00000000</v>
   <i name="OFIELD_Q6_NEAR">      0.00000000</i>
   <i name="OFIELD_Q6_FAR">      0.00000000</i>
   <i name="OFIELD_A">      0.00000000</i>
  </separator>
 </parameters>
 <atominfo>
  <atoms>     325 </atoms>
  <types>       5 </types>
  <array name="atoms" >
   <dimension dim="1">ion</dimension>
   <field type="string">element</field>
   <field type="int">atomtype</field>
   <set>
    <rc><c>H </c><c>   1</c></rc>
    <rc><c>H </c><c>   1</c></rc>
    <rc><c>H </c><c>   1</c></rc>
    <rc><c>H </c><c>   1</c></rc>
    <rc><c>H </c><c>   1</c></rc>
    <rc><c>H </c><c>   1</c></rc>
    <rc><c>H </c><c>   1</c></rc>
    <rc><c>H </c><c>   1</c></rc>
    <rc><c>H </c><c>   1</c></rc>
    <rc><c>H </c><c>   1</c></rc>
    <rc><c>H </c><c>   1</c></rc>
    <rc><c>H </c><c>   1</c></rc>
    <rc><c>H </c><c>   1</c></rc>
    <rc><c>H </c><c>   1</c></rc>
    <rc><c>H </c><c>   1</c></rc>
    <rc><c>H </c><c>   1</c></rc>
    <rc><c>H </c><c>   1</c></rc>
    <rc><c>H </c><c>   1</c></rc>
    <rc><c>H </c><c>   1</c></rc>
    <rc><c>H </c><c>   1</c></rc>
    <rc><c>H </c><c>   1</c></rc>
    <rc><c>H </c><c>   1</c></rc>
    <rc><c>H </c><c>   1</c></rc>
    <rc><c>H </c><c>   1</c></rc>
    <rc><c>H </c><c>   1</c></rc>
    <rc><c>H </c><c>   1</c></rc>
    <rc><c>H </c><c>   1</c></rc>
    <rc><c>H </c><c>   1</c></rc>
    <rc><c>H </c><c>   1</c></rc>
    <rc><c>H </c><c>   1</c></rc>
    <rc><c>H </c><c>   1</c></rc>
    <rc><c>H </c><c>   1</c></rc>
    <rc><c>H </c><c>   1</c></rc>
    <rc><c>H </c><c>   1</c></rc>
    <rc><c>H </c><c>   1</c></rc>
    <rc><c>H </c><c>   1</c></rc>
    <rc><c>H </c><c>   1</c></rc>
    <rc><c>H </c><c>   1</c></rc>
    <rc><c>H </c><c>   1</c></rc>
    <rc><c>H </c><c>   1</c></rc>
    <rc><c>H </c><c>   1</c></rc>
    <rc><c>H </c><c>   1</c></rc>
    <rc><c>H </c><c>   1</c></rc>
    <rc><c>H </c><c>   1</c></rc>
    <rc><c>H </c><c>   1</c></rc>
    <rc><c>H </c><c>   1</c></rc>
    <rc><c>H </c><c>   1</c></rc>
    <rc><c>H </c><c>   1</c></rc>
    <rc><c>H </c><c>   1</c></rc>
    <rc><c>H </c><c>   1</c></rc>
    <rc><c>H </c><c>   1</c></rc>
    <rc><c>H </c><c>   1</c></rc>
    <rc><c>H </c><c>   1</c></rc>
    <rc><c>H </c><c>   1</c></rc>
    <rc><c>H </c><c>   1</c></rc>
    <rc><c>H </c><c>   1</c></rc>
    <rc><c>H </c><c>   1</c></rc>
    <rc><c>H </c><c>   1</c></rc>
    <rc><c>H </c><c>   1</c></rc>
    <rc><c>H </c><c>   1</c></rc>
    <rc><c>H </c><c>   1</c></rc>
    <rc><c>H </c><c>   1</c></rc>
    <rc><c>H </c><c>   1</c></rc>
    <rc><c>H </c><c>   1</c></rc>
    <rc><c>H </c><c>   1</c></rc>
    <rc><c>H </c><c>   1</c></rc>
    <rc><c>H </c><c>   1</c></rc>
    <rc><c>H </c><c>   1</c></rc>
    <rc><c>H </c><c>   1</c></rc>
    <rc><c>H </c><c>   1</c></rc>
    <rc><c>H </c><c>   1</c></rc>
    <rc><c>H </c><c>   1</c></rc>
    <rc><c>H </c><c>   1</c></rc>
    <rc><c>H </c><c>   1</c></rc>
    <rc><c>H </c><c>   1</c></rc>
    <rc><c>H </c><c>   1</c></rc>
    <rc><c>H </c><c>   1</c></rc>
    <rc><c>H </c><c>   1</c></rc>
    <rc><c>H </c><c>   1</c></rc>
    <rc><c>H </c><c>   1</c></rc>
    <rc><c>H </c><c>   1</c></rc>
    <rc><c>H </c><c>   1</c></rc>
    <rc><c>H </c><c>   1</c></rc>
    <rc><c>H </c><c>   1</c></rc>
    <rc><c>H </c><c>   1</c></rc>
    <rc><c>H </c><c>   1</c></rc>
    <rc><c>H </c><c>   1</c></rc>
    <rc><c>H </c><c>   1</c></rc>
    <rc><c>H </c><c>   1</c></rc>
    <rc><c>H </c><c>   1</c></rc>
    <rc><c>H </c><c>   1</c></rc>
    <rc><c>H </c><c>   1</c></rc>
    <rc><c>H </c><c>   1</c></rc>
    <rc><c>H </c><c>   1</c></rc>
    <rc><c>H </c><c>   1</c></rc>
    <rc><c>H </c><c>   1</c></rc>
    <rc><c>H </c><c>   1</c></rc>
    <rc><c>H </c><c>   1</c></rc>
    <rc><c>H </c><c>   1</c></rc>
    <rc><c>H </c><c>   1</c></rc>
    <rc><c>H </c><c>   1</c></rc>
    <rc><c>H </c><c>   1</c></rc>
    <rc><c>H </c><c>   1</c></rc>
    <rc><c>H </c><c>   1</c></rc>
    <rc><c>H </c><c>   1</c></rc>
    <rc><c>H </c><c>   1</c></rc>
    <rc><c>H </c><c>   1</c></rc>
    <rc><c>H </c><c>   1</c></rc>
    <rc><c>H </c><c>   1</c></rc>
    <rc><c>H </c><c>   1</c></rc>
    <rc><c>H </c><c>   1</c></rc>
    <rc><c>H </c><c>   1</c></rc>
    <rc><c>H </c><c>   1</c></rc>
    <rc><c>H </c><c>   1</c></rc>
    <rc><c>H </c><c>   1</c></rc>
    <rc><c>H </c><c>   1</c></rc>
    <rc><c>H </c><c>   1</c></rc>
    <rc><c>H </c><c>   1</c></rc>
    <rc><c>H </c><c>   1</c></rc>
    <rc><c>H </c><c>   1</c></rc>
    <rc><c>H </c><c>   1</c></rc>
    <rc><c>H </c><c>   1</c></rc>
    <rc><c>H </c><c>   1</c></rc>
    <rc><c>H </c><c>   1</c></rc>
    <rc><c>H </c><c>   1</c></rc>
    <rc><c>H </c><c>   1</c></rc>
    <rc><c>H </c><c>   1</c></rc>
    <rc><c>H </c><c>   1</c></rc>
    <rc><c>H </c><c>   1</c></rc>
    <rc><c>H </c><c>   1</c></rc>
    <rc><c>H </c><c>   1</c></rc>
    <rc><c>H </c><c>   1</c></rc>
    <rc><c>H </c><c>   1</c></rc>
    <rc><c>H </c><c>   1</c></rc>
    <rc><c>H </c><c>   1</c></rc>
    <rc><c>H </c><c>   1</c></rc>
    <rc><c>H </c><c>   1</c></rc>
    <rc><c>H </c><c>   1</c></rc>
    <rc><c>H </c><c>   1</c></rc>
    <rc><c>H </c><c>   1</c></rc>
    <rc><c>H </c><c>   1</c></rc>
    <rc><c>H </c><c>   1</c></rc>
    <rc><c>H </c><c>   1</c></rc>
    <rc><c>C </c><c>   2</c></rc>
    <rc><c>C </c><c>   2</c></rc>
    <rc><c>C </c><c>   2</c></rc>
    <rc><c>C </c><c>   2</c></rc>
    <rc><c>C </c><c>   2</c></rc>
    <rc><c>C </c><c>   2</c></rc>
    <rc><c>C </c><c>   2</c></rc>
    <rc><c>C </c><c>   2</c></rc>
    <rc><c>C </c><c>   2</c></rc>
    <rc><c>C </c><c>   2</c></rc>
    <rc><c>C </c><c>   2</c></rc>
    <rc><c>C </c><c>   2</c></rc>
    <rc><c>C </c><c>   2</c></rc>
    <rc><c>C </c><c>   2</c></rc>
    <rc><c>C </c><c>   2</c></rc>
    <rc><c>C </c><c>   2</c></rc>
    <rc><c>C </c><c>   2</c></rc>
    <rc><c>C </c><c>   2</c></rc>
    <rc><c>C </c><c>   2</c></rc>
    <rc><c>C </c><c>   2</c></rc>
    <rc><c>C </c><c>   2</c></rc>
    <rc><c>C </c><c>   2</c></rc>
    <rc><c>C </c><c>   2</c></rc>
    <rc><c>C </c><c>   2</c></rc>
    <rc><c>C </c><c>   2</c></rc>
    <rc><c>C </c><c>   2</c></rc>
    <rc><c>C </c><c>   2</c></rc>
    <rc><c>C </c><c>   2</c></rc>
    <rc><c>C </c><c>   2</c></rc>
    <rc><c>C </c><c>   2</c></rc>
    <rc><c>C </c><c>   2</c></rc>
    <rc><c>C </c><c>   2</c></rc>
    <rc><c>C </c><c>   2</c></rc>
    <rc><c>C </c><c>   2</c></rc>
    <rc><c>C </c><c>   2</c></rc>
    <rc><c>C </c><c>   2</c></rc>
    <rc><c>C </c><c>   2</c></rc>
    <rc><c>C </c><c>   2</c></rc>
    <rc><c>C </c><c>   2</c></rc>
    <rc><c>N </c><c>   3</c></rc>
    <rc><c>N </c><c>   3</c></rc>
    <rc><c>N </c><c>   3</c></rc>
    <rc><c>N </c><c>   3</c></rc>
    <rc><c>N </c><c>   3</c></rc>
    <rc><c>N </c><c>   3</c></rc>
    <rc><c>N </c><c>   3</c></rc>
    <rc><c>N </c><c>   3</c></rc>
    <rc><c>N </c><c>   3</c></rc>
    <rc><c>N </c><c>   3</c></rc>
    <rc><c>N </c><c>   3</c></rc>
    <rc><c>N </c><c>   3</c></rc>
    <rc><c>N </c><c>   3</c></rc>
    <rc><c>N </c><c>   3</c></rc>
    <rc><c>N </c><c>   3</c></rc>
    <rc><c>N </c><c>   3</c></rc>
    <rc><c>N </c><c>   3</c></rc>
    <rc><c>N </c><c>   3</c></rc>
    <rc><c>N </c><c>   3</c></rc>
    <rc><c>N </c><c>   3</c></rc>
    <rc><c>N </c><c>   3</c></rc>
    <rc><c>N </c><c>   3</c></rc>
    <rc><c>N </c><c>   3</c></rc>
    <rc><c>N </c><c>   3</c></rc>
    <rc><c>N </c><c>   3</c></rc>
    <rc><c>N </c><c>   3</c></rc>
    <rc><c>N </c><c>   3</c></rc>
    <rc><c>N </c><c>   3</c></rc>
    <rc><c>N </c><c>   3</c></rc>
    <rc><c>N </c><c>   3</c></rc>
    <rc><c>N </c><c>   3</c></rc>
    <rc><c>N </c><c>   3</c></rc>
    <rc><c>N </c><c>   3</c></rc>
    <rc><c>N </c><c>   3</c></rc>
    <rc><c>N </c><c>   3</c></rc>
    <rc><c>N </c><c>   3</c></rc>
    <rc><c>N </c><c>   3</c></rc>
    <rc><c>N </c><c>   3</c></rc>
    <rc><c>N </c><c>   3</c></rc>
    <rc><c>N </c><c>   3</c></rc>
    <rc><c>N </c><c>   3</c></rc>
    <rc><c>N </c><c>   3</c></rc>
    <rc><c>N </c><c>   3</c></rc>
    <rc><c>N </c><c>   3</c></rc>
    <rc><c>N </c><c>   3</c></rc>
    <rc><c>N </c><c>   3</c></rc>
    <rc><c>N </c><c>   3</c></rc>
    <rc><c>I </c><c>   4</c></rc>
    <rc><c>I </c><c>   4</c></rc>
    <rc><c>I </c><c>   4</c></rc>
    <rc><c>I </c><c>   4</c></rc>
    <rc><c>I </c><c>   4</c></rc>
    <rc><c>I </c><c>   4</c></rc>
    <rc><c>I </c><c>   4</c></rc>
    <rc><c>I </c><c>   4</c></rc>
    <rc><c>I </c><c>   4</c></rc>
    <rc><c>I </c><c>   4</c></rc>
    <rc><c>I </c><c>   4</c></rc>
    <rc><c>I </c><c>   4</c></rc>
    <rc><c>I </c><c>   4</c></rc>
    <rc><c>I </c><c>   4</c></rc>
    <rc><c>I </c><c>   4</c></rc>
    <rc><c>I </c><c>   4</c></rc>
    <rc><c>I </c><c>   4</c></rc>
    <rc><c>I </c><c>   4</c></rc>
    <rc><c>I </c><c>   4</c></rc>
    <rc><c>I </c><c>   4</c></rc>
    <rc><c>I </c><c>   4</c></rc>
    <rc><c>I </c><c>   4</c></rc>
    <rc><c>I </c><c>   4</c></rc>
    <rc><c>I </c><c>   4</c></rc>
    <rc><c>I </c><c>   4</c></rc>
    <rc><c>I </c><c>   4</c></rc>
    <rc><c>I </c><c>   4</c></rc>
    <rc><c>I </c><c>   4</c></rc>
    <rc><c>I </c><c>   4</c></rc>
    <rc><c>I </c><c>   4</c></rc>
    <rc><c>I </c><c>   4</c></rc>
    <rc><c>I </c><c>   4</c></rc>
    <rc><c>I </c><c>   4</c></rc>
    <rc><c>I </c><c>   4</c></rc>
    <rc><c>I </c><c>   4</c></rc>
    <rc><c>I </c><c>   4</c></rc>
    <rc><c>I </c><c>   4</c></rc>
    <rc><c>I </c><c>   4</c></rc>
    <rc><c>I </c><c>   4</c></rc>
    <rc><c>I </c><c>   4</c></rc>
    <rc><c>I </c><c>   4</c></rc>
    <rc><c>I </c><c>   4</c></rc>
    <rc><c>I </c><c>   4</c></rc>
    <rc><c>I </c><c>   4</c></rc>
    <rc><c>I </c><c>   4</c></rc>
    <rc><c>I </c><c>   4</c></rc>
    <rc><c>I </c><c>   4</c></rc>
    <rc><c>I </c><c>   4</c></rc>
    <rc><c>I </c><c>   4</c></rc>
    <rc><c>I </c><c>   4</c></rc>
    <rc><c>I </c><c>   4</c></rc>
    <rc><c>I </c><c>   4</c></rc>
    <rc><c>I </c><c>   4</c></rc>
    <rc><c>I </c><c>   4</c></rc>
    <rc><c>I </c><c>   4</c></rc>
    <rc><c>I </c><c>   4</c></rc>
    <rc><c>I </c><c>   4</c></rc>
    <rc><c>I </c><c>   4</c></rc>
    <rc><c>I </c><c>   4</c></rc>
    <rc><c>I </c><c>   4</c></rc>
    <rc><c>I </c><c>   4</c></rc>
    <rc><c>I </c><c>   4</c></rc>
    <rc><c>I </c><c>   4</c></rc>
    <rc><c>I </c><c>   4</c></rc>
    <rc><c>I </c><c>   4</c></rc>
    <rc><c>I </c><c>   4</c></rc>
    <rc><c>I </c><c>   4</c></rc>
    <rc><c>I </c><c>   4</c></rc>
    <rc><c>I </c><c>   4</c></rc>
    <rc><c>I </c><c>   4</c></rc>
    <rc><c>I </c><c>   4</c></rc>
    <rc><c>I </c><c>   4</c></rc>
    <rc><c>Pb</c><c>   5</c></rc>
    <rc><c>Pb</c><c>   5</c></rc>
    <rc><c>Pb</c><c>   5</c></rc>
    <rc><c>Pb</c><c>   5</c></rc>
    <rc><c>Pb</c><c>   5</c></rc>
    <rc><c>Pb</c><c>   5</c></rc>
    <rc><c>Pb</c><c>   5</c></rc>
    <rc><c>Pb</c><c>   5</c></rc>
    <rc><c>Pb</c><c>   5</c></rc>
    <rc><c>Pb</c><c>   5</c></rc>
    <rc><c>Pb</c><c>   5</c></rc>
    <rc><c>Pb</c><c>   5</c></rc>
    <rc><c>Pb</c><c>   5</c></rc>
    <rc><c>Pb</c><c>   5</c></rc>
    <rc><c>Pb</c><c>   5</c></rc>
    <rc><c>Pb</c><c>   5</c></rc>
    <rc><c>Pb</c><c>   5</c></rc>
    <rc><c>Pb</c><c>   5</c></rc>
    <rc><c>Pb</c><c>   5</c></rc>
    <rc><c>Pb</c><c>   5</c></rc>
    <rc><c>Pb</c><c>   5</c></rc>
    <rc><c>Pb</c><c>   5</c></rc>
    <rc><c>Pb</c><c>   5</c></rc>
    <rc><c>Pb</c><c>   5</c></rc>
   </set>
  </array>
  <array name="atomtypes" >
   <dimension dim="1">type</dimension>
   <field type="int">atomspertype</field>
   <field type="string">element</field>
   <field>mass</field>
   <field>valence</field>
   <field type="string">pseudopotential</field>
   <set>
    <rc><c> 143</c><c>H </c><c>      1.00000000</c><c>      1.00000000</c><c>  PAW_PBE H 15Jun2001                   </c></rc>
    <rc><c>  39</c><c>C </c><c>     12.01100000</c><c>      4.00000000</c><c>  PAW_PBE C 08Apr2002                   </c></rc>
    <rc><c>  47</c><c>N </c><c>     14.00100000</c><c>      5.00000000</c><c>  PAW_PBE N 08Apr2002                   </c></rc>
    <rc><c>  72</c><c>I </c><c>    126.90400000</c><c>      7.00000000</c><c>  PAW_PBE I 08Apr2002                   </c></rc>
    <rc><c>  24</c><c>Pb</c><c>    207.20000000</c><c>      4.00000000</c><c>  PAW_PBE Pb 08Apr2002                  </c></rc>
   </set>
  </array>
 </atominfo>
 <structure name="initialpos" >
  <crystal>
   <varray name="basis" >
    <v>      18.06080055       0.00000000       0.00000000 </v>
    <v>      -0.00491865      18.06279945       0.00000000 </v>
    <v>       0.00000000       0.00000000      62.48749924 </v>
   </varray>
   <i name="volume">  20385.21054034 </i>
   <varray name="rec_basis" >
    <v>       0.05536853       0.00001508      -0.00000000 </v>
    <v>       0.00000000       0.05536240       0.00000000 </v>
    <v>       0.00000000      -0.00000000       0.01600320 </v>
   </varray>
  </crystal>
  <varray name="positions" >
   <v>       0.45283548       0.33611754       0.56398353 </v>
   <v>       0.43745815       0.82971806       0.57094073 </v>
   <v>       0.96145769       0.32788986       0.57560121 </v>
   <v>       0.94381253       0.81839095       0.57282795 </v>
   <v>       0.33467746       0.95397705       0.57215191 </v>
   <v>       0.34991435       0.55117349       0.55763943 </v>
   <v>       0.80632447       0.08826145       0.56303308 </v>
   <v>       0.01195962       0.14321835       0.55894822 </v>
   <v>       0.07159646       0.66360018       0.57046035 </v>
   <v>       0.55162593       0.15961635       0.55889566 </v>
   <v>       0.49605524       0.64285385       0.55881795 </v>
   <v>       0.36621689       0.02832978       0.55702444 </v>
   <v>       0.29306365       0.62880301       0.55255082 </v>
   <v>       0.87903556       0.02746140       0.55589335 </v>
   <v>       0.95527117       0.19156316       0.57697923 </v>
   <v>       0.99014034       0.69189378       0.58284839 </v>
   <v>       0.56646170       0.25124473       0.56733412 </v>
   <v>       0.43843735       0.69306620       0.57534304 </v>
   <v>       0.28072380       0.43965320       0.57218988 </v>
   <v>       0.20159266       0.92841654       0.57272979 </v>
   <v>       0.68411285       0.02959534       0.57027410 </v>
   <v>       0.37269471       0.29063467       0.55519912 </v>
   <v>       0.50220980       0.86832079       0.55371976 </v>
   <v>       0.01950928       0.36820424       0.55668660 </v>
   <v>       0.99439153       0.86672096       0.55394240 </v>
   <v>       0.18432289       0.44433227       0.56954116 </v>
   <v>       0.14340161       0.99161869       0.56012912 </v>
   <v>       0.67897191       0.93404073       0.56458979 </v>
   <v>       0.43053909       0.17929495       0.54978691 </v>
   <v>       0.54632406       0.75106385       0.54317004 </v>
   <v>       0.06336965       0.25168908       0.54493150 </v>
   <v>       0.08324383       0.77242949       0.55043517 </v>
   <v>       0.18402291       0.56255361       0.55697859 </v>
   <v>       0.24321385       0.06505756       0.54825022 </v>
   <v>       0.80039244       0.92452668       0.55530504 </v>
   <v>       0.48683431       0.33961296       0.65963993 </v>
   <v>       0.44797772       0.80963334       0.67379920 </v>
   <v>       0.96396921       0.28558626       0.67584483 </v>
   <v>       0.93061325       0.72409050       0.67265132 </v>
   <v>       0.30766113       0.05758376       0.66932241 </v>
   <v>       0.29815351       0.54948407       0.67495220 </v>
   <v>       0.80160416       0.05708118       0.67393332 </v>
   <v>       0.76670271       0.59707137       0.65602281 </v>
   <v>       0.08664228       0.16367284       0.64482575 </v>
   <v>       0.11779422       0.72234998       0.65171409 </v>
   <v>       0.56615914       0.15410839       0.65429780 </v>
   <v>       0.56616312       0.66662438       0.65000385 </v>
   <v>       0.17646831       0.41534532       0.64785480 </v>
   <v>       0.17142304       0.91925059       0.65128383 </v>
   <v>       0.69552555       0.40770824       0.65826728 </v>
   <v>       0.67394991       0.92043117       0.65083867 </v>
   <v>       0.06359545       0.18311583       0.67138276 </v>
   <v>       0.06026648       0.67675530       0.66956593 </v>
   <v>       0.59310666       0.24476165       0.65953865 </v>
   <v>       0.53617288       0.69556459       0.67511349 </v>
   <v>       0.19895067       0.44393122       0.67380634 </v>
   <v>       0.20614559       0.95538007       0.67503278 </v>
   <v>       0.66476373       0.49939948       0.65924581 </v>
   <v>       0.69762906       0.95737714       0.67562354 </v>
   <v>       0.39870340       0.30075757       0.65607678 </v>
   <v>       0.43188110       0.84331675       0.64816822 </v>
   <v>       0.93563448       0.32497907       0.65189101 </v>
   <v>       0.90569465       0.79522944       0.65524531 </v>
   <v>       0.32672689       0.07517130       0.64244228 </v>
   <v>       0.32816000       0.57780845       0.64985550 </v>
   <v>       0.83355171       0.07521326       0.64808452 </v>
   <v>       0.85596087       0.56196201       0.65262260 </v>
   <v>       0.00819038       0.25256312       0.63076929 </v>
   <v>       0.02339706       0.80230317       0.64002053 </v>
   <v>       0.44203616       0.18239193       0.65142784 </v>
   <v>       0.50427549       0.75632519       0.63141889 </v>
   <v>       0.24371073       0.99080923       0.62937747 </v>
   <v>       0.25618924       0.49538633       0.63120651 </v>
   <v>       0.75719628       0.99022936       0.63174495 </v>
   <v>       0.81821729       0.43932282       0.65373769 </v>
   <v>       0.44874502       0.30128397       0.76888902 </v>
   <v>       0.44874501       0.80128391       0.76888902 </v>
   <v>       0.94874497       0.30128397       0.76888902 </v>
   <v>       0.94874501       0.80128391       0.76888902 </v>
   <v>       0.30127600       0.05129450       0.76887296 </v>
   <v>       0.30127601       0.55129450       0.76887296 </v>
   <v>       0.80127594       0.05129450       0.76887296 </v>
   <v>       0.80127598       0.55129450       0.76887296 </v>
   <v>       0.07877100       0.17118050       0.74344197 </v>
   <v>       0.07877101       0.67118045       0.74344197 </v>
   <v>       0.57877100       0.17118050       0.74344197 </v>
   <v>       0.57877099       0.67118045       0.74344197 </v>
   <v>       0.17119950       0.42117448       0.74342103 </v>
   <v>       0.17119950       0.92117451       0.74342103 </v>
   <v>       0.67119951       0.42117448       0.74342103 </v>
   <v>       0.67119950       0.92117451       0.74342103 </v>
   <v>       0.05125600       0.19871499       0.76888902 </v>
   <v>       0.05125600       0.69871493       0.76888902 </v>
   <v>       0.55125603       0.19871499       0.76888902 </v>
   <v>       0.55125602       0.69871493       0.76888902 </v>
   <v>       0.19872349       0.44870397       0.76887205 </v>
   <v>       0.19872349       0.94870397       0.76887205 </v>
   <v>       0.69872352       0.44870397       0.76887205 </v>
   <v>       0.69872351       0.94870397       0.76887205 </v>
   <v>       0.42123152       0.32881747       0.74344197 </v>
   <v>       0.42123151       0.82881744       0.74344197 </v>
   <v>       0.92123147       0.32881747       0.74344197 </v>
   <v>       0.92123151       0.82881744       0.74344197 </v>
   <v>       0.32880050       0.07882500       0.74342103 </v>
   <v>       0.32880049       0.57882496       0.74342103 </v>
   <v>       0.82880048       0.07882500       0.74342103 </v>
   <v>       0.82880052       0.57882496       0.74342103 </v>
   <v>       0.00000350       0.25000148       0.72582199 </v>
   <v>       0.00000350       0.75000145       0.72582199 </v>
   <v>       0.50000351       0.25000148       0.72582199 </v>
   <v>       0.50000350       0.75000145       0.72582199 </v>
   <v>       0.25000050       0.00000000       0.72580398 </v>
   <v>       0.25000052       0.50000000       0.72580398 </v>
   <v>       0.75000050       0.00000000       0.72580398 </v>
   <v>       0.75000049       0.50000000       0.72580398 </v>
   <v>       0.77575682       0.55671239       0.51880006 </v>
   <v>       0.71914046       0.47905309       0.52441208 </v>
   <v>       0.86838044       0.50154940       0.53795599 </v>
   <v>       0.86024524       0.48321825       0.56549970 </v>
   <v>       0.74421929       0.64152693       0.55962450 </v>
   <v>       0.81379425       0.59793145       0.57528541 </v>
   <v>       0.66678380       0.54693964       0.56850366 </v>
   <v>       0.68165748       0.45476066       0.55989372 </v>
   <v>       0.61693241       0.55999070       0.53687130 </v>
   <v>       0.67411377       0.63961698       0.53436420 </v>
   <v>       0.60588139       0.64576585       0.50304678 </v>
   <v>       0.68694898       0.60215500       0.49379838 </v>
   <v>       0.78810155       0.38957081       0.52944134 </v>
   <v>       0.77698266       0.37216430       0.55735580 </v>
   <v>       0.86540888       0.36683649       0.54551615 </v>
   <v>       0.86266837       0.69643211       0.55218277 </v>
   <v>       0.83813038       0.64843546       0.52880297 </v>
   <v>       0.90639289       0.61019762       0.54649834 </v>
   <v>       0.77112053       0.52904465       0.59624059 </v>
   <v>       0.77435043       0.43467013       0.58864264 </v>
   <v>       0.69329290       0.47259757       0.59979086 </v>
   <v>       0.53887790       0.52784033       0.50478047 </v>
   <v>       0.57353596       0.54501448       0.47880771 </v>
   <v>       0.70371206       0.48025197       0.46993313 </v>
   <v>       0.55639400       0.41365070       0.52043173 </v>
   <v>       0.76592233       0.35800491       0.47158065 </v>
   <v>       0.61991030       0.29099713       0.52236449 </v>
   <v>       0.72541821       0.26358815       0.49833933 </v>
   <v>       0.01954555       0.25516644       0.55695185 </v>
   <v>       0.03516834       0.76477267       0.56077568 </v>
   <v>       0.46285726       0.22591379       0.55572224 </v>
   <v>       0.50128291       0.75517388       0.55470873 </v>
   <v>       0.23748243       0.53574568       0.55987071 </v>
   <v>       0.25366746       0.01460294       0.55753082 </v>
   <v>       0.77925222       0.97898740       0.56006527 </v>
   <v>       0.01068366       0.24462308       0.64803458 </v>
   <v>       0.01219220       0.76136616       0.65248939 </v>
   <v>       0.48140168       0.22642427       0.65504319 </v>
   <v>       0.49911581       0.75484290       0.64874359 </v>
   <v>       0.25259027       0.49605274       0.64862986 </v>
   <v>       0.24930927       0.99725303       0.64663013 </v>
   <v>       0.77739396       0.48329486       0.65526143 </v>
   <v>       0.75439422       0.99743994       0.64907721 </v>
   <v>       0.49998898       0.24999498       0.74327702 </v>
   <v>       0.49998903       0.74999496       0.74327702 </v>
   <v>       0.99998898       0.24999498       0.74327702 </v>
   <v>       0.99998903       0.74999496       0.74327702 </v>
   <v>       0.25000050       0.00000100       0.74325596 </v>
   <v>       0.25000052       0.50000100       0.74325596 </v>
   <v>       0.75000050       0.00000100       0.74325596 </v>
   <v>       0.75000049       0.50000100       0.74325596 </v>
   <v>       0.62631990       0.45575816       0.49546961 </v>
   <v>       0.68491863       0.43889648       0.48156559 </v>
   <v>       0.60234904       0.40126222       0.50976279 </v>
   <v>       0.72006723       0.37013077       0.48243817 </v>
   <v>       0.63754364       0.33276135       0.51083447 </v>
   <v>       0.69700226       0.31677112       0.49730574 </v>
   <v>       0.73154522       0.53583385       0.52927298 </v>
   <v>       0.83148257       0.47819291       0.55012645 </v>
   <v>       0.79302463       0.60535840       0.55892191 </v>
   <v>       0.70845173       0.50301311       0.56722362 </v>
   <v>       0.66261398       0.58446455       0.52759057 </v>
   <v>       0.63805190       0.59401835       0.50417595 </v>
   <v>       0.81312701       0.39796965       0.54527312 </v>
   <v>       0.85389820       0.64067446       0.54560412 </v>
   <v>       0.73937512       0.48417157       0.58898621 </v>
   <v>       0.58992104       0.53080456       0.49527875 </v>
   <v>       0.99366699       0.19287648       0.56485694 </v>
   <v>       0.03168209       0.70328795       0.57186810 </v>
   <v>       0.53310268       0.21299012       0.55987657 </v>
   <v>       0.47561909       0.69361324       0.56300720 </v>
   <v>       0.42880574       0.28956047       0.55766208 </v>
   <v>       0.47696836       0.82152344       0.55937452 </v>
   <v>       0.99612110       0.32086653       0.56275654 </v>
   <v>       0.98447861       0.81706483       0.56129330 </v>
   <v>       0.23491548       0.46670514       0.56633611 </v>
   <v>       0.19653019       0.97488487       0.56350730 </v>
   <v>       0.70833212       0.98217715       0.56470413 </v>
   <v>       0.32255446       0.99740701       0.56215626 </v>
   <v>       0.29819654       0.57380089       0.55630182 </v>
   <v>       0.82501165       0.03532843       0.56043595 </v>
   <v>       0.05592430       0.19372239       0.65554237 </v>
   <v>       0.06581230       0.71532783       0.65768886 </v>
   <v>       0.55133629       0.20804246       0.65654862 </v>
   <v>       0.53517596       0.70238653       0.65889424 </v>
   <v>       0.20622436       0.44964224       0.65752336 </v>
   <v>       0.20646133       0.95516748       0.65860762 </v>
   <v>       0.70756699       0.46300602       0.65717612 </v>
   <v>       0.70617840       0.95593777       0.65939525 </v>
   <v>       0.45465711       0.29330460       0.65708650 </v>
   <v>       0.45770767       0.80573787       0.65771700 </v>
   <v>       0.96751879       0.28737940       0.65967601 </v>
   <v>       0.94555767       0.76054584       0.66086900 </v>
   <v>       0.29749472       0.04561884       0.65347842 </v>
   <v>       0.29582511       0.54357558       0.65867471 </v>
   <v>       0.79869071       0.04616332       0.65776132 </v>
   <v>       0.80070061       0.55158985       0.65523823 </v>
   <v>       0.04586250       0.20411950       0.75272599 </v>
   <v>       0.04586250       0.70411946       0.75272599 </v>
   <v>       0.54586251       0.20411950       0.75272599 </v>
   <v>       0.54586250       0.70411946       0.75272599 </v>
   <v>       0.20411900       0.45410100       0.75270499 </v>
   <v>       0.20411899       0.95410095       0.75270499 </v>
   <v>       0.70411898       0.45410100       0.75270499 </v>
   <v>       0.70411896       0.95410095       0.75270499 </v>
   <v>       0.45414002       0.29588849       0.75272697 </v>
   <v>       0.45414001       0.79588852       0.75272697 </v>
   <v>       0.95414002       0.29588849       0.75272697 </v>
[...]
   <v>       0.55162593       0.15961635       0.55889566 </v>
   <v>       0.49605524       0.64285385       0.55881795 </v>
   <v>       0.36621689       0.02832978       0.55702444 </v>
   <v>       0.29306365       0.62880301       0.55255082 </v>
   <v>       0.87903556       0.02746140       0.55589335 </v>
   <v>       0.95527117       0.19156316       0.57697923 </v>
   <v>       0.99014034       0.69189378       0.58284839 </v>
   <v>       0.56646170       0.25124473       0.56733412 </v>
   <v>       0.43843735       0.69306620       0.57534304 </v>
   <v>       0.28072380       0.43965320       0.57218988 </v>
   <v>       0.20159266       0.92841654       0.57272979 </v>
   <v>       0.68411285       0.02959534       0.57027410 </v>
   <v>       0.37269471       0.29063467       0.55519912 </v>
   <v>       0.50220980       0.86832079       0.55371976 </v>
   <v>       0.01950928       0.36820424       0.55668660 </v>
   <v>       0.99439153       0.86672096       0.55394240 </v>
   <v>       0.18432289       0.44433227       0.56954116 </v>
   <v>       0.14340161       0.99161869       0.56012912 </v>
   <v>       0.67897191       0.93404073       0.56458979 </v>
   <v>       0.43053909       0.17929495       0.54978691 </v>
   <v>       0.54632406       0.75106385       0.54317004 </v>
   <v>       0.06336965       0.25168908       0.54493150 </v>
   <v>       0.08324383       0.77242949       0.55043517 </v>
   <v>       0.18402291       0.56255361       0.55697859 </v>
   <v>       0.24321385       0.06505756       0.54825022 </v>
   <v>       0.80039244       0.92452668       0.55530504 </v>
   <v>       0.48683431       0.33961296       0.65963993 </v>
   <v>       0.44797772       0.80963334       0.67379920 </v>
   <v>       0.96396921       0.28558626       0.67584483 </v>
   <v>       0.93061325       0.72409050       0.67265132 </v>
   <v>       0.30766113       0.05758376       0.66932241 </v>
   <v>       0.29815351       0.54948407       0.67495220 </v>
   <v>       0.80160416       0.05708118       0.67393332 </v>
   <v>       0.76670271       0.59707137       0.65602281 </v>
   <v>       0.08664228       0.16367284       0.64482575 </v>
   <v>       0.11779422       0.72234998       0.65171409 </v>
   <v>       0.56615914       0.15410839       0.65429780 </v>
   <v>       0.56616312       0.66662438       0.65000385 </v>
   <v>       0.17646831       0.41534532       0.64785480 </v>
   <v>       0.17142304       0.91925059       0.65128383 </v>
   <v>       0.69552555       0.40770824       0.65826728 </v>
   <v>       0.67394991       0.92043117       0.65083867 </v>
   <v>       0.06359545       0.18311583       0.67138276 </v>
   <v>       0.06026648       0.67675530       0.66956593 </v>
   <v>       0.59310666       0.24476165       0.65953865 </v>
   <v>       0.53617288       0.69556459       0.67511349 </v>
   <v>       0.19895067       0.44393122       0.67380634 </v>
   <v>       0.20614559       0.95538007       0.67503278 </v>
   <v>       0.66476373       0.49939948       0.65924581 </v>
   <v>       0.69762906       0.95737714       0.67562354 </v>
   <v>       0.39870340       0.30075757       0.65607678 </v>
   <v>       0.43188110       0.84331675       0.64816822 </v>
   <v>       0.93563448       0.32497907       0.65189101 </v>
   <v>       0.90569465       0.79522944       0.65524531 </v>
   <v>       0.32672689       0.07517130       0.64244228 </v>
   <v>       0.32816000       0.57780845       0.64985550 </v>
   <v>       0.83355171       0.07521326       0.64808452 </v>
   <v>       0.85596087       0.56196201       0.65262260 </v>
   <v>       0.00819038       0.25256312       0.63076929 </v>
   <v>       0.02339706       0.80230317       0.64002053 </v>
   <v>       0.44203616       0.18239193       0.65142784 </v>
   <v>       0.50427549       0.75632519       0.63141889 </v>
   <v>       0.24371073       0.99080923       0.62937747 </v>
   <v>       0.25618924       0.49538633       0.63120651 </v>
   <v>       0.75719628       0.99022936       0.63174495 </v>
   <v>       0.81821729       0.43932282       0.65373769 </v>
   <v>       0.44874502       0.30128397       0.76888902 </v>
   <v>       0.44874501       0.80128391       0.76888902 </v>
   <v>       0.94874497       0.30128397       0.76888902 </v>
   <v>       0.94874501       0.80128391       0.76888902 </v>
   <v>       0.30127600       0.05129450       0.76887296 </v>
   <v>       0.30127601       0.55129450       0.76887296 </v>
   <v>       0.80127594       0.05129450       0.76887296 </v>
   <v>       0.80127598       0.55129450       0.76887296 </v>
   <v>       0.07877100       0.17118050       0.74344197 </v>
   <v>       0.07877101       0.67118045       0.74344197 </v>
   <v>       0.57877100       0.17118050       0.74344197 </v>
   <v>       0.57877099       0.67118045       0.74344197 </v>
   <v>       0.17119950       0.42117448       0.74342103 </v>
   <v>       0.17119950       0.92117451       0.74342103 </v>
   <v>       0.67119951       0.42117448       0.74342103 </v>
   <v>       0.67119950       0.92117451       0.74342103 </v>
   <v>       0.05125600       0.19871499       0.76888902 </v>
   <v>       0.05125600       0.69871493       0.76888902 </v>
   <v>       0.55125603       0.19871499       0.76888902 </v>
   <v>       0.55125602       0.69871493       0.76888902 </v>
   <v>       0.19872349       0.44870397       0.76887205 </v>
   <v>       0.19872349       0.94870397       0.76887205 </v>
   <v>       0.69872352       0.44870397       0.76887205 </v>
   <v>       0.69872351       0.94870397       0.76887205 </v>
   <v>       0.42123152       0.32881747       0.74344197 </v>
   <v>       0.42123151       0.82881744       0.74344197 </v>
   <v>       0.92123147       0.32881747       0.74344197 </v>
   <v>       0.92123151       0.82881744       0.74344197 </v>
   <v>       0.32880050       0.07882500       0.74342103 </v>
   <v>       0.32880049       0.57882496       0.74342103 </v>
   <v>       0.82880048       0.07882500       0.74342103 </v>
   <v>       0.82880052       0.57882496       0.74342103 </v>
   <v>       0.00000350       0.25000148       0.72582199 </v>
   <v>       0.00000350       0.75000145       0.72582199 </v>
   <v>       0.50000351       0.25000148       0.72582199 </v>
   <v>       0.50000350       0.75000145       0.72582199 </v>
   <v>       0.25000050       0.00000000       0.72580398 </v>
   <v>       0.25000052       0.50000000       0.72580398 </v>
   <v>       0.75000050       0.00000000       0.72580398 </v>
   <v>       0.75000049       0.50000000       0.72580398 </v>
   <v>       0.77575682       0.55671239       0.51880006 </v>
   <v>       0.71914046       0.47905309       0.52441208 </v>
   <v>       0.86838044       0.50154940       0.53795599 </v>
   <v>       0.86024524       0.48321825       0.56549970 </v>
   <v>       0.74421929       0.64152693       0.55962450 </v>
   <v>       0.81379425       0.59793145       0.57528541 </v>
   <v>       0.66678380       0.54693964       0.56850366 </v>
   <v>       0.68165748       0.45476066       0.55989372 </v>
   <v>       0.61693241       0.55999070       0.53687130 </v>
   <v>       0.67411377       0.63961698       0.53436420 </v>
   <v>       0.60588139       0.64576585       0.50304678 </v>
   <v>       0.68694898       0.60215500       0.49379838 </v>
   <v>       0.78810155       0.38957081       0.52944134 </v>
   <v>       0.77698266       0.37216430       0.55735580 </v>
   <v>       0.86540888       0.36683649       0.54551615 </v>
   <v>       0.86266837       0.69643211       0.55218277 </v>
   <v>       0.83813038       0.64843546       0.52880297 </v>
   <v>       0.90639289       0.61019762       0.54649834 </v>
   <v>       0.77112053       0.52904465       0.59624059 </v>
   <v>       0.77435043       0.43467013       0.58864264 </v>
   <v>       0.69329290       0.47259757       0.59979086 </v>
   <v>       0.53887790       0.52784033       0.50478047 </v>
   <v>       0.57353596       0.54501448       0.47880771 </v>
   <v>       0.70371206       0.48025197       0.46993313 </v>
   <v>       0.55639400       0.41365070       0.52043173 </v>
   <v>       0.76592233       0.35800491       0.47158065 </v>
   <v>       0.61991030       0.29099713       0.52236449 </v>
   <v>       0.72541821       0.26358815       0.49833933 </v>
   <v>       0.01954555       0.25516644       0.55695185 </v>
   <v>       0.03516834       0.76477267       0.56077568 </v>
   <v>       0.46285726       0.22591379       0.55572224 </v>
   <v>       0.50128291       0.75517388       0.55470873 </v>
   <v>       0.23748243       0.53574568       0.55987071 </v>
   <v>       0.25366746       0.01460294       0.55753082 </v>
   <v>       0.77925222       0.97898740       0.56006527 </v>
   <v>       0.01068366       0.24462308       0.64803458 </v>
   <v>       0.01219220       0.76136616       0.65248939 </v>
   <v>       0.48140168       0.22642427       0.65504319 </v>
   <v>       0.49911581       0.75484290       0.64874359 </v>
   <v>       0.25259027       0.49605274       0.64862986 </v>
   <v>       0.24930927       0.99725303       0.64663013 </v>
   <v>       0.77739396       0.48329486       0.65526143 </v>
   <v>       0.75439422       0.99743994       0.64907721 </v>
   <v>       0.49998898       0.24999498       0.74327702 </v>
   <v>       0.49998903       0.74999496       0.74327702 </v>
   <v>       0.99998898       0.24999498       0.74327702 </v>
   <v>       0.99998903       0.74999496       0.74327702 </v>
   <v>       0.25000050       0.00000100       0.74325596 </v>
   <v>       0.25000052       0.50000100       0.74325596 </v>
   <v>       0.75000050       0.00000100       0.74325596 </v>
   <v>       0.75000049       0.50000100       0.74325596 </v>
   <v>       0.62631990       0.45575816       0.49546961 </v>
   <v>       0.68491863       0.43889648       0.48156559 </v>
   <v>       0.60234904       0.40126222       0.50976279 </v>
   <v>       0.72006723       0.37013077       0.48243817 </v>
   <v>       0.63754364       0.33276135       0.51083447 </v>
   <v>       0.69700226       0.31677112       0.49730574 </v>
   <v>       0.73154522       0.53583385       0.52927298 </v>
   <v>       0.83148257       0.47819291       0.55012645 </v>
   <v>       0.79302463       0.60535840       0.55892191 </v>
   <v>       0.70845173       0.50301311       0.56722362 </v>
   <v>       0.66261398       0.58446455       0.52759057 </v>
   <v>       0.63805190       0.59401835       0.50417595 </v>
   <v>       0.81312701       0.39796965       0.54527312 </v>
   <v>       0.85389820       0.64067446       0.54560412 </v>
   <v>       0.73937512       0.48417157       0.58898621 </v>
   <v>       0.58992104       0.53080456       0.49527875 </v>
   <v>       0.99366699       0.19287648       0.56485694 </v>
   <v>       0.03168209       0.70328795       0.57186810 </v>
   <v>       0.53310268       0.21299012       0.55987657 </v>
   <v>       0.47561909       0.69361324       0.56300720 </v>
   <v>       0.42880574       0.28956047       0.55766208 </v>
   <v>       0.47696836       0.82152344       0.55937452 </v>
   <v>       0.99612110       0.32086653       0.56275654 </v>
   <v>       0.98447861       0.81706483       0.56129330 </v>
   <v>       0.23491548       0.46670514       0.56633611 </v>
   <v>       0.19653019       0.97488487       0.56350730 </v>
   <v>       0.70833212       0.98217715       0.56470413 </v>
   <v>       0.32255446       0.99740701       0.56215626 </v>
   <v>       0.29819654       0.57380089       0.55630182 </v>
   <v>       0.82501165       0.03532843       0.56043595 </v>
   <v>       0.05592430       0.19372239       0.65554237 </v>
   <v>       0.06581230       0.71532783       0.65768886 </v>
   <v>       0.55133629       0.20804246       0.65654862 </v>
   <v>       0.53517596       0.70238653       0.65889424 </v>
   <v>       0.20622436       0.44964224       0.65752336 </v>
   <v>       0.20646133       0.95516748       0.65860762 </v>
   <v>       0.70756699       0.46300602       0.65717612 </v>
   <v>       0.70617840       0.95593777       0.65939525 </v>
   <v>       0.45465711       0.29330460       0.65708650 </v>
   <v>       0.45770767       0.80573787       0.65771700 </v>
   <v>       0.96751879       0.28737940       0.65967601 </v>
   <v>       0.94555767       0.76054584       0.66086900 </v>
   <v>       0.29749472       0.04561884       0.65347842 </v>
   <v>       0.29582511       0.54357558       0.65867471 </v>
   <v>       0.79869071       0.04616332       0.65776132 </v>
   <v>       0.80070061       0.55158985       0.65523823 </v>
   <v>       0.04586250       0.20411950       0.75272599 </v>
   <v>       0.04586250       0.70411946       0.75272599 </v>
   <v>       0.54586251       0.20411950       0.75272599 </v>
   <v>       0.54586250       0.70411946       0.75272599 </v>
   <v>       0.20411900       0.45410100       0.75270499 </v>
   <v>       0.20411899       0.95410095       0.75270499 </v>
   <v>       0.70411898       0.45410100       0.75270499 </v>
   <v>       0.70411896       0.95410095       0.75270499 </v>
   <v>       0.45414002       0.29588849       0.75272697 </v>
   <v>       0.45414001       0.79588852       0.75272697 </v>
   <v>       0.95414002       0.29588849       0.75272697 </v>
   <v>       0.95414006       0.79588852       0.75272697 </v>
   <v>       0.29588249       0.04590050       0.75270499 </v>
   <v>       0.29588248       0.54590053       0.75270499 </v>
   <v>       0.79588244       0.04590050       0.75270499 </v>
   <v>       0.79588248       0.54590053       0.75270499 </v>
   <v>       0.76571015       0.53013841       0.55137499 </v>
   <v>       0.51448539       0.01592156       0.55215347 </v>
   <v>       0.48263760       0.49455920       0.55443908 </v>
   <v>       0.01328077       0.00581479       0.54840943 </v>
   <v>       0.03743308       0.50831300       0.55333730 </v>
   <v>       0.23703257       0.24124957       0.55204175 </v>
   <v>       0.25570376       0.76556537       0.55358295 </v>
   <v>       0.73837173       0.20513230       0.55438658 </v>
   <v>       0.70085521       0.79155499       0.55426235 </v>
   <v>       0.00201080       0.98330657       0.65350901 </v>
   <v>       0.99727045       0.50649702       0.65474253 </v>
   <v>       0.49667859       0.01235564       0.65429658 </v>
   <v>       0.50691321       0.48902462       0.65482348 </v>
   <v>       0.25978419       0.24647296       0.65433113 </v>
   <v>       0.25823687       0.75448250       0.65470846 </v>
   <v>       0.74570778       0.26697964       0.65429114 </v>
   <v>       0.74615039       0.74629621       0.65419902 </v>
   <v>       0.13487463       0.11191154       0.60720568 </v>
   <v>       0.14859680       0.60651963       0.60808220 </v>
   <v>       0.64751390       0.10495765       0.60962737 </v>
   <v>       0.61627717       0.62804789       0.60871428 </v>
   <v>       0.35810475       0.38765375       0.60468253 </v>
   <v>       0.37523196       0.87988090       0.60629424 </v>
   <v>       0.89002082       0.36469432       0.60891873 </v>
   <v>       0.86796657       0.87771477       0.60451233 </v>
   <v>       0.12097226       0.36782597       0.60955124 </v>
   <v>       0.12410278       0.86709741       0.60754797 </v>
   <v>       0.59365001       0.33877453       0.60114038 </v>
   <v>       0.61669308       0.87130359       0.61296458 </v>
   <v>       0.38674999       0.13505229       0.60506444 </v>
   <v>       0.38487096       0.62842862       0.61057348 </v>
   <v>       0.88674398       0.13296048       0.61057653 </v>
   <v>       0.89496802       0.64634267       0.60986771 </v>
   <v>       0.00000000       0.00000000       0.75492797 </v>
   <v>       0.00000000       0.50000000       0.75492797 </v>
   <v>       0.50000000       0.00000000       0.75492797 </v>
   <v>       0.49999999       0.50000000       0.75492797 </v>
   <v>       0.25000050       0.25000000       0.75493902 </v>
   <v>       0.25000051       0.74999997       0.75493902 </v>
   <v>       0.75000047       0.25000000       0.75493902 </v>
   <v>       0.75000046       0.74999997       0.75493902 </v>
   <v>       0.13579050       0.11421000       0.70478299 </v>
   <v>       0.13579050       0.61420998       0.70478299 </v>
   <v>       0.63579045       0.11421000       0.70478299 </v>
   <v>       0.63579049       0.61420998       0.70478299 </v>
   <v>       0.36420952       0.38578999       0.70478299 </v>
   <v>       0.36420950       0.88578996       0.70478299 </v>
   <v>       0.86420954       0.38578999       0.70478299 </v>
   <v>       0.86420953       0.88578996       0.70478299 </v>
   <v>       0.11421799       0.36421899       0.70478098 </v>
   <v>       0.11421799       0.86421899       0.70478098 </v>
   <v>       0.61421800       0.36421899       0.70478098 </v>
   <v>       0.61421799       0.86421899       0.70478098 </v>
   <v>       0.38578201       0.13578149       0.70478202 </v>
   <v>       0.38578200       0.63578149       0.70478202 </v>
   <v>       0.88578199       0.13578149       0.70478202 </v>
   <v>       0.88578203       0.63578149       0.70478202 </v>
   <v>       0.13466700       0.11533200       0.80125603 </v>
   <v>       0.13466699       0.61533199       0.80125603 </v>
   <v>       0.63466699       0.11533200       0.80125603 </v>
   <v>       0.63466698       0.61533199       0.80125603 </v>
   <v>       0.36533300       0.38466799       0.80125603 </v>
   <v>       0.36533299       0.88466796       0.80125603 </v>
   <v>       0.86533295       0.38466799       0.80125603 </v>
   <v>       0.86533294       0.88466796       0.80125603 </v>
   <v>       0.11532850       0.36533700       0.80126500 </v>
   <v>       0.11532850       0.86533698       0.80126500 </v>
   <v>       0.61532850       0.36533700       0.80126500 </v>
   <v>       0.61532849       0.86533698       0.80126500 </v>
   <v>       0.38467151       0.13466300       0.80126500 </v>
   <v>       0.38467150       0.63466297       0.80126500 </v>
   <v>       0.88467149       0.13466300       0.80126500 </v>
   <v>       0.88467153       0.63466297       0.80126500 </v>
   <v>       0.99979674       0.99886870       0.60445049 </v>
   <v>       0.00591999       0.50467561       0.60436685 </v>
   <v>       0.50577873       0.00645282       0.60378544 </v>
   <v>       0.49959737       0.49190215       0.60448290 </v>
   <v>       0.24860756       0.24677087       0.60239246 </v>
   <v>       0.25314976       0.74572320       0.60376303 </v>
   <v>       0.74483312       0.24536167       0.60240711 </v>
   <v>       0.73774651       0.75508302       0.60277150 </v>
   <v>       0.00000050       0.00000050       0.70482896 </v>
   <v>       0.00000050       0.50000048       0.70482896 </v>
   <v>       0.50000048       0.00000050       0.70482896 </v>
   <v>       0.50000046       0.50000048       0.70482896 </v>
   <v>       0.24999999       0.24999947       0.70482499 </v>
   <v>       0.25000001       0.74999950       0.70482499 </v>
   <v>       0.74999999       0.24999947       0.70482499 </v>
   <v>       0.74999998       0.74999950       0.70482499 </v>
   <v>       0.00000000       0.00000000       0.80731797 </v>
   <v>       0.00000000       0.50000000       0.80731797 </v>
   <v>       0.50000000       0.00000000       0.80731797 </v>
   <v>       0.49999999       0.50000000       0.80731797 </v>
   <v>       0.24999999       0.25000000       0.80731797 </v>
   <v>       0.25000001       0.74999997       0.80731797 </v>
   <v>       0.74999999       0.25000000       0.80731797 </v>
   <v>       0.74999998       0.74999997       0.80731797 </v>
  </varray>
 </structure>
</modeling>
