 vasp.6.2.1 16May21 (build Nov 15 2021 14:57:28) complex                         
 executed on             LinuxPGI date 2023.07.30  21:43:49
 running on    4 total cores
 distrk:  each k-point on    4 cores,    1 groups
 distr:  one band on NCORE=   1 cores,    4 groups


--------------------------------------------------------------------------------------------------------


 INCAR:
   SYSTEM = PSC
   ISTART = 1
   ICHARG = 1
   PREC = Normal
   ENCUT = 500
   GGA_COMPAT = F
   NELM = 600
   ISYM = 0
   LREAL = Auto
   ISMEAR = 0
   SIGMA = 0.05
   AMIN = 0.01
   BMIX = 0.01
   LVTOT = T
   LWAVE = F
   LDIPOL = T
   IDIPOL = 3
   LVDW = T
   IVDW = 12

 POTCAR:    PAW_PBE H 15Jun2001                   
 POTCAR:    PAW_PBE C 08Apr2002                   
 POTCAR:    PAW_PBE N 08Apr2002                   
 POTCAR:    PAW_PBE I 08Apr2002                   
 POTCAR:    PAW_PBE Pb 08Apr2002                  
 WARNING: For LVTOT=.TRUE., VASP.5.x writes the TOTAL local potential to the
     file LOCPOT. If you want only the Hartree contributions, use LVHAR=.TRUE.
     instead. 

 POTCAR:    PAW_PBE H 15Jun2001                   
   SHA256 =  030f79b5d3ab3cf0e668861823c8fb652ff669f3e15e46930bd03bfd63a607b6 H/POTCAR              
   COPYR  = (c) Copyright 15Jun2001 Georg Kresse                                                    
   COPYR  = This file is part of the software VASP. Any use, copying, and all other rights are regul
   COPYR  = If you do not have a valid VASP license, you may not use, copy or distribute this file. 
   VRHFIN =H: ultrasoft test                                                                        
   LEXCH  = PE                                                                                      
   EATOM  =    12.4884 eV,    0.9179 Ry                                                             
                                                                                                    
   TITEL  = PAW_PBE H 15Jun2001                                                                     
   LULTRA =        F    use ultrasoft PP ?                                                          
   IUNSCR =        0    unscreen: 0-lin 1-nonlin 2-no                                               
   RPACOR =    0.000    partial core radius                                                         
   POMASS =    1.000; ZVAL   =    1.000    mass and valenz                                          
   RCORE  =    1.100    outmost cutoff radius                                                       
   RWIGS  =    0.700; RWIGS  =    0.370    wigner-seitz radius (au A)                               
   ENMAX  =  250.000; ENMIN  =  200.000 eV                                                          
   RCLOC  =    0.701    cutoff for local pot                                                        
   LCOR   =        T    correct aug charges                                                         
   LPAW   =        T    paw PP                                                                      
   EAUG   =  400.000                                                                                
   RMAX   =    1.123    core radius for proj-oper                                                   
   RAUG   =    1.200    factor for augmentation sphere                                              
   RDEP   =    1.112    radius for radial grids                                                     
   RDEPT  =    0.926    core radius for aug-charge                                                  
                                                                                                    
   Atomic configuration                                                                             
    2 entries                                                                                       
     n  l   j            E        occ.                                                              
     1  0  0.50        -6.4927   1.0000                                                             
     2  1  0.50        -3.4015   0.0000                                                             
   Description                                                                                      
     l       E           TYP  RCUT    TYP  RCUT                                                     
     0     -6.4927494     23  1.100                                                                 
     0      6.8029130     23  1.100                                                                 
     1     -4.0817478     23  1.100                                                                 
  local pseudopotential read in
  atomic valenz-charges read in
  non local Contribution for L=            0  read in
    real space projection operators read in
  non local Contribution for L=            0  read in
    real space projection operators read in
  non local Contribution for L=            1  read in
    real space projection operators read in
    PAW grid and wavefunctions read in
 
   number of l-projection  operators is LMAX  =            3
   number of lm-projection operators is LMMAX =            5
 
 POTCAR:    PAW_PBE C 08Apr2002                   
   SHA256 =  253f7b50bb8d59471dbedb8285d89021f4a42ed1a2c5d38a03a736e69125dd95 C/POTCAR              
   COPYR  = (c) Copyright 08Apr2002 Georg Kresse                                                    
   COPYR  = This file is part of the software VASP. Any use, copying, and all other rights are regul
   COPYR  = If you do not have a valid VASP license, you may not use, copy or distribute this file. 
   VRHFIN =C: s2p2                                                                                  
   LEXCH  = PE                                                                                      
   EATOM  =   147.1560 eV,   10.8157 Ry                                                             
                                                                                                    
   TITEL  = PAW_PBE C 08Apr2002                                                                     
   LULTRA =        F    use ultrasoft PP ?                                                          
   IUNSCR =        1    unscreen: 0-lin 1-nonlin 2-no                                               
   RPACOR =    1.200    partial core radius                                                         
   POMASS =   12.011; ZVAL   =    4.000    mass and valenz                                          
   RCORE  =    1.500    outmost cutoff radius                                                       
   RWIGS  =    1.630; RWIGS  =    0.863    wigner-seitz radius (au A)                               
   ENMAX  =  400.000; ENMIN  =  300.000 eV                                                          
   ICORE  =        2    local potential                                                             
   LCOR   =        T    correct aug charges                                                         
   LPAW   =        T    paw PP                                                                      
   EAUG   =  644.873                                                                                
   DEXC   =    0.000                                                                                
   RMAX   =    1.529    core radius for proj-oper                                                   
   RAUG   =    1.300    factor for augmentation sphere                                              
   RDEP   =    1.501    radius for radial grids                                                     
   RDEPT  =    1.300    core radius for aug-charge                                                  
                                                                                                    
   Atomic configuration                                                                             
    4 entries                                                                                       
     n  l   j            E        occ.                                                              
     1  0  0.50      -273.3789   2.0000                                                             
     2  0  0.50       -13.7508   2.0000                                                             
     2  1  0.50        -5.2854   2.0000                                                             
     3  2  1.50        -5.4423   0.0000                                                             
   Description                                                                                      
     l       E           TYP  RCUT    TYP  RCUT                                                     
     0    -13.7508458     23  1.200                                                                 
     0     -8.2022199     23  1.200                                                                 
     1     -5.2854383     23  1.500                                                                 
     1     34.0145650     23  1.500                                                                 
     2     -5.4423304      7  1.500                                                                 
  local pseudopotential read in
  partial core-charges read in
  partial kinetic energy density read in
  atomic valenz-charges read in
  non local Contribution for L=            0  read in
    real space projection operators read in
  non local Contribution for L=            0  read in
    real space projection operators read in
  non local Contribution for L=            1  read in
    real space projection operators read in
  non local Contribution for L=            1  read in
    real space projection operators read in
    PAW grid and wavefunctions read in
 
   number of l-projection  operators is LMAX  =            4
   number of lm-projection operators is LMMAX =            8
 
 POTCAR:    PAW_PBE N 08Apr2002                   
   SHA256 =  e053789ff3a61a86a1b75d8a110fcc91f86041011e7b0817c7c99e4e8a6349d7 N/POTCAR              
   COPYR  = (c) Copyright 08Apr2002 Georg Kresse                                                    
   COPYR  = This file is part of the software VASP. Any use, copying, and all other rights are regul
   COPYR  = If you do not have a valid VASP license, you may not use, copy or distribute this file. 
   VRHFIN =N: s2p3                                                                                  
   LEXCH  = PE                                                                                      
   EATOM  =   264.5486 eV,   19.4438 Ry                                                             
                                                                                                    
   TITEL  = PAW_PBE N 08Apr2002                                                                     
   LULTRA =        F    use ultrasoft PP ?                                                          
   IUNSCR =        1    unscreen: 0-lin 1-nonlin 2-no                                               
   RPACOR =    1.200    partial core radius                                                         
   POMASS =   14.001; ZVAL   =    5.000    mass and valenz                                          
   RCORE  =    1.500    outmost cutoff radius                                                       
   RWIGS  =    1.400; RWIGS  =    0.741    wigner-seitz radius (au A)                               
   ENMAX  =  400.000; ENMIN  =  300.000 eV                                                          
   ICORE  =        2    local potential                                                             
   LCOR   =        T    correct aug charges                                                         
   LPAW   =        T    paw PP                                                                      
   EAUG   =  627.112                                                                                
   DEXC   =    0.000                                                                                
   RMAX   =    1.529    core radius for proj-oper                                                   
   RAUG   =    1.300    factor for augmentation sphere                                              
   RDEP   =    1.514    radius for radial grids                                                     
   RDEPT  =    1.338    core radius for aug-charge                                                  
                                                                                                    
   Atomic configuration                                                                             
    4 entries                                                                                       
     n  l   j            E        occ.                                                              
     1  0  0.50      -384.7179   2.0000                                                             
     2  0  0.50       -18.5828   2.0000                                                             
     2  1  0.50        -7.0898   3.0000                                                             
     3  2  1.50        -6.8029   0.0000                                                             
   Description                                                                                      
     l       E           TYP  RCUT    TYP  RCUT                                                     
     0    -18.5828119     23  1.200                                                                 
     0    -13.5018863     23  1.200                                                                 
     1     -7.0897853     23  1.500                                                                 
     1      9.5240782     23  1.500                                                                 
     2     -6.8029130      7  1.500                                                                 
  local pseudopotential read in
  partial core-charges read in
  partial kinetic energy density read in
  atomic valenz-charges read in
  non local Contribution for L=            0  read in
    real space projection operators read in
  non local Contribution for L=            0  read in
    real space projection operators read in
  non local Contribution for L=            1  read in
    real space projection operators read in
  non local Contribution for L=            1  read in
    real space projection operators read in
    PAW grid and wavefunctions read in
 
   number of l-projection  operators is LMAX  =            4
   number of lm-projection operators is LMMAX =            8
 
 POTCAR:    PAW_PBE I 08Apr2002                   
   SHA256 =  e40f3f59b681c1fc3e3091736183c4589116986673d2b852a5012aec72758799 I/POTCAR              
   COPYR  = (c) Copyright 08Apr2002 Georg Kresse                                                    
   COPYR  = This file is part of the software VASP. Any use, copying, and all other rights are regul
   COPYR  = If you do not have a valid VASP license, you may not use, copy or distribute this file. 
   VRHFIN =I : s2p5                                                                                 
   LEXCH  = PE                                                                                      
   EATOM  =   315.8678 eV,   23.2156 Ry                                                             
                                                                                                    
   TITEL  = PAW_PBE I 08Apr2002                                                                     
   LULTRA =        F    use ultrasoft PP ?                                                          
   IUNSCR =        1    unscreen: 0-lin 1-nonlin 2-no                                               
   RPACOR =    2.200    partial core radius                                                         
   POMASS =  126.904; ZVAL   =    7.000    mass and valenz                                          
   RCORE  =    2.300    outmost cutoff radius                                                       
   RWIGS  =    2.810; RWIGS  =    1.487    wigner-seitz radius (au A)                               
   ENMAX  =  175.647; ENMIN  =  131.735 eV                                                          
   ICORE  =        3    local potential                                                             
   LCOR   =        T    correct aug charges                                                         
   LPAW   =        T    paw PP                                                                      
   EAUG   =  370.139                                                                                
   DEXC   =    0.000                                                                                
   RMAX   =    2.359    core radius for proj-oper                                                   
   RAUG   =    1.300    factor for augmentation sphere                                              
   RDEP   =    2.392    radius for radial grids                                                     
   RDEPT  =    2.170    core radius for aug-charge                                                  
                                                                                                    
   Atomic configuration                                                                             
   13 entries                                                                                       
     n  l   j            E        occ.                                                              
     1  0  0.50    -32976.3739   2.0000                                                             
     2  0  0.50     -5094.5933   2.0000                                                             
     2  1  1.50     -4572.0131   6.0000                                                             
     3  0  0.50     -1028.2813   2.0000                                                             
     3  1  1.50      -859.0250   6.0000                                                             
     3  2  2.50      -605.7620  10.0000                                                             
     4  0  0.50      -180.5540   2.0000                                                             
     4  1  1.50      -127.5306   6.0000                                                             
     4  2  2.50       -50.2720  10.0000                                                             
     5  0  0.50       -17.4058   2.0000                                                             
     5  1  0.50        -7.0851   5.0000                                                             
     5  2  1.50        -7.0750   0.0000                                                             
     4  3  2.50        -7.0750   0.0000                                                             
   Description                                                                                      
     l       E           TYP  RCUT    TYP  RCUT                                                     
     0    -17.4058016     23  2.300                                                                 
     0    -18.7663842     23  2.300                                                                 
     1     -7.0850686     23  2.300                                                                 
     1     -4.2150896     23  2.300                                                                 
     2     -7.0750295     23  2.300                                                                 
     3     -1.3605826     23  2.300                                                                 
  local pseudopotential read in
  partial core-charges read in
  partial kinetic energy density read in
  atomic valenz-charges read in
  non local Contribution for L=            0  read in
    real space projection operators read in
  non local Contribution for L=            0  read in
    real space projection operators read in
  non local Contribution for L=            1  read in
    real space projection operators read in
  non local Contribution for L=            1  read in
    real space projection operators read in
  non local Contribution for L=            2  read in
    real space projection operators read in
    PAW grid and wavefunctions read in
 
   number of l-projection  operators is LMAX  =            5
   number of lm-projection operators is LMMAX =           13
 
 POTCAR:    PAW_PBE Pb 08Apr2002                  
   SHA256 =  797118a27cf1bcd06b9881c67a26cdde129e3cd1a551dd4a281f9681ce847303 Pb/POTCAR             
   COPYR  = (c) Copyright 08Apr2002 Georg Kresse                                                    
   COPYR  = This file is part of the software VASP. Any use, copying, and all other rights are regul
   COPYR  = If you do not have a valid VASP license, you may not use, copy or distribute this file. 
   VRHFIN =Pb:                                                                                      
   LEXCH  = PE                                                                                      
   EATOM  =    96.9868 eV,    7.1283 Ry                                                             
                                                                                                    
   TITEL  = PAW_PBE Pb 08Apr2002                                                                    
   LULTRA =        F    use ultrasoft PP ?                                                          
   IUNSCR =        1    unscreen: 0-lin 1-nonlin 2-no                                               
   RPACOR =    2.200    partial core radius                                                         
   POMASS =  207.200; ZVAL   =    4.000    mass and valenz                                          
   RCORE  =    3.100    outmost cutoff radius                                                       
   RWIGS  =    3.260; RWIGS  =    1.725    wigner-seitz radius (au A)                               
   ENMAX  =   97.973; ENMIN  =   73.480 eV                                                          
   ICORE  =        3    local potential                                                             
   LCOR   =        T    correct aug charges                                                         
   LPAW   =        T    paw PP                                                                      
   EAUG   =  234.873                                                                                
   DEXC   =    0.000                                                                                
   RMAX   =    3.158    core radius for proj-oper                                                   
   RAUG   =    1.300    factor for augmentation sphere                                              
   RDEP   =    3.202    radius for radial grids                                                     
   RDEPT  =    2.659    core radius for aug-charge                                                  
                                                                                                    
   Atomic configuration                                                                             
   17 entries                                                                                       
     n  l   j            E        occ.                                                              
     1  0  0.50    -88091.8466   2.0000                                                             
     2  0  0.50    -15753.4197   2.0000                                                             
     2  1  1.50    -13508.1797   6.0000                                                             
     3  0  0.50     -3781.7194   2.0000                                                             
     3  1  1.50     -3138.2529   6.0000                                                             
     3  2  2.50     -2483.2977  10.0000                                                             
     4  0  0.50      -856.2895   2.0000                                                             
     4  1  1.50      -645.4943   6.0000                                                             
     4  2  2.50      -401.8768  10.0000                                                             
     4  3  3.50      -132.9059  14.0000                                                             
     5  0  0.50      -144.0950   2.0000                                                             
     5  1  1.50       -85.7879   6.0000                                                             
     5  2  2.50       -21.1769  10.0000                                                             
     6  0  0.50       -12.0372   2.0000                                                             
     6  1  1.50        -3.4971   2.0000                                                             
     6  2  2.50        -1.3606   0.0000                                                             
     5  3  2.50        -2.7212   0.0000                                                             
   Description                                                                                      
     l       E           TYP  RCUT    TYP  RCUT                                                     
     0    -12.0371566     23  3.100                                                                 
     0    -13.3977392     23  3.100                                                                 
     1     -3.4971341     23  3.100                                                                 
     1     -5.4423304     23  3.100                                                                 
     2     -1.3605826     23  3.100                                                                 
     3     -1.3605826     23  3.100                                                                 
  local pseudopotential read in
  partial core-charges read in
  partial kinetic energy density read in
  atomic valenz-charges read in
  non local Contribution for L=            0  read in
    real space projection operators read in
  non local Contribution for L=            0  read in
    real space projection operators read in
  non local Contribution for L=            1  read in
    real space projection operators read in
  non local Contribution for L=            1  read in
    real space projection operators read in
  non local Contribution for L=            2  read in
    real space projection operators read in
    PAW grid and wavefunctions read in
 
   number of l-projection  operators is LMAX  =            5
   number of lm-projection operators is LMMAX =           13
 
 Optimization of the real space projectors (new method)

 maximal supplied QI-value         = 34.20
 optimisation between [QCUT,QGAM] = [ 11.29, 22.57] = [ 35.68,142.71] Ry 
 Optimized for a Real-space Cutoff    1.16 Angstroem

   l    n(q)    QCUT    max X(q) W(low)/X(q) W(high)/X(q)  e(spline) 
   0      8    11.287    19.460    0.40E-03    0.73E-03    0.16E-06
   0      8    11.287    12.209    0.38E-03    0.70E-03    0.15E-06
   1      7    11.287     4.655    0.22E-03    0.25E-04    0.22E-06
 Optimization of the real space projectors (new method)

 maximal supplied QI-value         = 25.13
 optimisation between [QCUT,QGAM] = [ 11.31, 22.87] = [ 35.82,146.48] Ry 
 Optimized for a Real-space Cutoff    1.00 Angstroem

   l    n(q)    QCUT    max X(q) W(low)/X(q) W(high)/X(q)  e(spline) 
   0      7    11.310   115.676    0.43E-03    0.13E-02    0.19E-06
   0      7    11.310    87.132    0.43E-03    0.13E-02    0.18E-06
   1      6    11.310     4.429    0.42E-03    0.74E-03    0.11E-06
   1      6    11.310     2.733    0.34E-03    0.55E-03    0.92E-07
 Optimization of the real space projectors (new method)

 maximal supplied QI-value         = 25.13
 optimisation between [QCUT,QGAM] = [ 11.31, 22.87] = [ 35.82,146.48] Ry 
 Optimized for a Real-space Cutoff    1.27 Angstroem

   l    n(q)    QCUT    max X(q) W(low)/X(q) W(high)/X(q)  e(spline) 
   0      9    11.310    79.467    0.75E-04    0.16E-03    0.36E-06
   0      9    11.310    66.151    0.74E-04    0.16E-03    0.36E-06
   1      8    11.310    17.416    0.35E-03    0.12E-03    0.95E-06
   1      8    11.310    12.382    0.37E-03    0.13E-03    0.98E-06
 Optimization of the real space projectors (new method)

 maximal supplied QI-value         = 16.25
 optimisation between [QCUT,QGAM] = [ 11.38, 22.75] = [ 36.24,144.96] Ry 
 Optimized for a Real-space Cutoff    1.31 Angstroem

   l    n(q)    QCUT    max X(q) W(low)/X(q) W(high)/X(q)  e(spline) 
   0      9    11.376   194.483    0.24E-03    0.23E-03    0.67E-07
   0      9    11.376   190.334    0.23E-03    0.22E-03    0.65E-07
   1      8    11.376   116.687    0.25E-03    0.63E-04    0.16E-06
   1      8    11.376    88.696    0.25E-03    0.61E-04    0.16E-06
   2      8    11.376     4.877    0.17E-03    0.14E-03    0.29E-07
 Optimization of the real space projectors (new method)

 maximal supplied QI-value         = 12.09
 optimisation between [QCUT,QGAM] = [ 11.37, 22.86] = [ 36.19,146.31] Ry 
 Optimized for a Real-space Cutoff    1.66 Angstroem

   l    n(q)    QCUT    max X(q) W(low)/X(q) W(high)/X(q)  e(spline) 
   0     11    11.369   135.111    0.12E-03    0.69E-04    0.19E-05
   0     11    11.369   146.850    0.11E-03    0.65E-04    0.18E-05
   1     11    11.369   148.016    0.17E-03    0.32E-03    0.89E-06
   1     11    11.369   122.989    0.17E-03    0.32E-03    0.91E-06
   2     10    11.369     8.916    0.12E-03    0.45E-04    0.33E-06
  PAW_PBE H 15Jun2001                   :
 energy of atom  1       EATOM=  -12.4884
 kinetic energy error for atom=    0.0020 (will be added to EATOM!!)
  PAW_PBE C 08Apr2002                   :
 energy of atom  2       EATOM= -147.1560
 kinetic energy error for atom=    0.0076 (will be added to EATOM!!)
  PAW_PBE N 08Apr2002                   :
 energy of atom  3       EATOM= -264.5486
 kinetic energy error for atom=    0.0138 (will be added to EATOM!!)
  PAW_PBE I 08Apr2002                   :
 energy of atom  4       EATOM= -315.8678
 kinetic energy error for atom=    0.0009 (will be added to EATOM!!)
  PAW_PBE Pb 08Apr2002                  :
 energy of atom  5       EATOM=  -96.9868
 kinetic energy error for atom=    0.0000 (will be added to EATOM!!)
 
 
 POSCAR:  H  C  N  I Pb
  positions in cartesian coordinates
  No initial velocities read in
 exchange correlation table for  LEXCH =        8
   RHO(1)=    0.500       N(1)  =     2000
   RHO(2)=  100.500       N(2)  =     4000
 


--------------------------------------------------------------------------------------------------------


 ion  position               nearest neighbor table
   1  0.470  0.339  0.565- 187 1.02
   2  0.441  0.827  0.575- 188 1.03
   3  0.923  0.267  0.579- 189 1.03
   4  0.938  0.819  0.573- 190 1.03
   5  0.320  0.079  0.570- 194 1.02
   6  0.349  0.544  0.559- 195 1.03
   7  0.804  0.093  0.567- 196 1.02
   8  0.107  0.249  0.557- 183 1.03
   9  0.076  0.674  0.576- 184 1.02
  10  0.546  0.152  0.561- 185 1.02
  11  0.504  0.644  0.558- 186 1.03
  12  0.373  0.015  0.556- 194 1.04
  13  0.298  0.625  0.553- 195 1.03
  14  0.876  0.034  0.558- 196 1.04
  15  0.058  0.270  0.580- 183 1.02
  16  0.988  0.697  0.586- 184 1.03
  17  0.573  0.243  0.568- 185 1.02
  18  0.450  0.689  0.577- 186 1.03
  19  0.272  0.437  0.573- 191 1.02
  20  0.185  0.059  0.572- 192 1.03
  21  0.682  0.031  0.574- 193 1.02
  22  0.384  0.304  0.557- 187 1.03
  23  0.499  0.870  0.556- 188 1.02
  24  0.880  0.240  0.555- 189 1.03
  25  0.990  0.867  0.554- 190 1.03
  26  0.176  0.446  0.569- 191 1.03
  27  0.148  0.983  0.559- 192 1.03
  28  0.677  0.937  0.567- 193 1.03
  29  0.428  0.186  0.552- 146 1.09
  30  0.545  0.758  0.543- 147 1.09
  31  0.996  0.227  0.537- 144 1.10
  32  0.083  0.777  0.554- 145 1.10
  33  0.184  0.566  0.556- 148 1.09
  34  0.267  0.942  0.547- 149 1.10
  35  0.798  0.931  0.556- 150 1.09
  36  0.449  0.302  0.673- 205 1.02
  37  0.448  0.809  0.673- 206 1.02
  38  0.942  0.279  0.675- 207 1.02
  39  0.923  0.730  0.670- 208 1.02
  40  0.303  0.052  0.672- 209 1.02
  41  0.295  0.556  0.675- 210 1.02
  42  0.804  0.054  0.675- 211 1.03
  43  0.842  0.470  0.663- 212 1.02
  44  0.090  0.172  0.649- 197 1.01
  45  0.114  0.718  0.652- 198 1.02
  46  0.580  0.169  0.650- 199 1.02
  47  0.569  0.668  0.649- 200 1.02
  48  0.185  0.412  0.648- 201 1.02
  49  0.167  0.927  0.648- 202 1.03
  50  0.642  0.475  0.656- 203 1.03
  51  0.675  0.921  0.651- 204 1.03
  52  0.052  0.187  0.674- 197 1.02
  53  0.049  0.672  0.668- 198 1.02
  54  0.552  0.202  0.674- 199 1.02
  55  0.541  0.699  0.674- 200 1.01
  56  0.202  0.447  0.674- 201 1.02
  57  0.197  0.953  0.673- 202 1.02
  58  0.714  0.418  0.665- 203 1.02
  59  0.702  0.952  0.676- 204 1.02
  60  0.419  0.324  0.647- 205 1.02
  61  0.425  0.837  0.647- 206 1.02
  62  0.922  0.317  0.650- 207 1.02
  63  0.911  0.811  0.656- 208 1.02
  64  0.332  0.078  0.647- 209 1.02
  65  0.326  0.585  0.650- 210 1.01
  66  0.830  0.080  0.649- 211 1.02
  67  0.850  0.557  0.651- 212 1.02
  68  0.013  0.254  0.632- 151 1.09
  69  0.032  0.811  0.643- 152 1.10
  70  0.500  0.242  0.630- 153 1.09
  71  0.498  0.751  0.631- 154 1.10
  72  0.248  0.001  0.630- 156 1.09
  73  0.263  0.495  0.631- 155 1.09
  74  0.753  0.999  0.632- 158 1.09
  75  0.723  0.570  0.646- 157 1.11
  76  0.449  0.301  0.769- 221 1.02
  77  0.449  0.801  0.769- 222 1.02
  78  0.949  0.301  0.769- 223 1.02
  79  0.949  0.801  0.769- 224 1.02
  80  0.301  0.051  0.769- 225 1.02
  81  0.301  0.551  0.769- 226 1.02
  82  0.801  0.051  0.769- 227 1.02
  83  0.801  0.551  0.769- 228 1.02
  84  0.079  0.171  0.743- 213 1.02
  85  0.079  0.671  0.743- 214 1.02
  86  0.579  0.171  0.743- 215 1.02
  87  0.579  0.671  0.743- 216 1.02
  88  0.171  0.421  0.743- 217 1.02
  89  0.171  0.921  0.743- 218 1.02
  90  0.671  0.421  0.743- 219 1.02
  91  0.671  0.921  0.743- 220 1.02
  92  0.051  0.199  0.769- 213 1.02
  93  0.051  0.699  0.769- 214 1.02
  94  0.551  0.199  0.769- 215 1.02
  95  0.551  0.699  0.769- 216 1.02
  96  0.199  0.449  0.769- 217 1.02
  97  0.199  0.949  0.769- 218 1.02
  98  0.699  0.449  0.769- 219 1.02
  99  0.699  0.949  0.769- 220 1.02
 100  0.421  0.329  0.743- 221 1.02
 101  0.421  0.829  0.743- 222 1.02
 102  0.921  0.329  0.743- 223 1.02
 103  0.921  0.829  0.743- 224 1.02
 104  0.329  0.079  0.743- 225 1.02
 105  0.329  0.579  0.743- 226 1.02
 106  0.829  0.079  0.743- 227 1.02
 107  0.829  0.579  0.743- 228 1.02
 108  0.000  0.250  0.726- 161 1.09
 109  0.000  0.750  0.726- 162 1.09
 110  0.500  0.250  0.726- 159 1.09
 111  0.500  0.750  0.726- 160 1.09
 112  0.250  0.000  0.726- 163 1.09
 113  0.250  0.500  0.726- 164 1.09
 114  0.750  0.000  0.726- 165 1.09
 115  0.750  0.500  0.726- 166 1.09
 116  0.720  0.443  0.540- 173 1.10
 117  0.739  0.494  0.517- 173 1.09
 118  0.661  0.552  0.557- 174 1.10
 119  0.708  0.638  0.556- 174 1.10
 120  0.851  0.508  0.568- 175 1.09
 121  0.791  0.577  0.578- 175 1.09
 122  0.876  0.561  0.531- 176 1.09
 123  0.805  0.623  0.522- 176 1.09
 124  0.873  0.462  0.518- 177 1.10
 125  0.862  0.423  0.544- 177 1.10
 126  0.873  0.326  0.518- 178 1.10
 127  0.784  0.323  0.530- 178 1.10
 128  0.637  0.551  0.518- 179 1.09
 129  0.692  0.633  0.515- 179 1.10
 130  0.610  0.636  0.530- 179 1.09
 131  0.758  0.466  0.596- 180 1.10
 132  0.754  0.412  0.573- 180 1.10
 133  0.686  0.480  0.578- 180 1.09
 134  0.818  0.691  0.558- 181 1.10
 135  0.897  0.691  0.542- 181 1.10
 136  0.894  0.630  0.564- 181 1.10
 137  0.821  0.382  0.485- 182 1.11
 138  0.787  0.293  0.491- 182 1.11
 139  0.663  0.304  0.518- 168 1.09
 140  0.733  0.463  0.471- 169 1.09
 141  0.536  0.355  0.517- 170 1.09
 142  0.605  0.514  0.469- 171 1.09
 143  0.507  0.462  0.493- 172 1.09
 144  0.994  0.243  0.554-  31 1.10 183 1.31 189 1.31
 145  0.034  0.768  0.563-  32 1.10 184 1.31 190 1.32
 146  0.466  0.229  0.558-  29 1.09 187 1.31 185 1.31
 147  0.504  0.757  0.556-  30 1.09 186 1.31 188 1.32
 148  0.235  0.536  0.560-  33 1.09 191 1.32 195 1.32
 149  0.261  0.994  0.556-  34 1.10 194 1.31 192 1.31
 150  0.776  0.984  0.562-  35 1.09 193 1.31 196 1.31
 151  0.006  0.245  0.649-  68 1.09 207 1.31 197 1.31
 152  0.013  0.767  0.653-  69 1.10 208 1.31 198 1.32
 153  0.500  0.247  0.648-  70 1.09 205 1.31 199 1.32
 154  0.496  0.752  0.648-  71 1.10 206 1.31 200 1.32
 155  0.257  0.498  0.649-  73 1.09 201 1.32 210 1.32
 156  0.249  0.002  0.647-  72 1.09 202 1.31 209 1.31
 157  0.745  0.519  0.653-  75 1.11 203 1.31 212 1.31
 158  0.753  0.000  0.650-  74 1.09 204 1.31 211 1.31
 159  0.500  0.250  0.743- 110 1.09 221 1.31 215 1.31
 160  0.500  0.750  0.743- 111 1.09 222 1.31 216 1.31
 161  1.000  0.250  0.743- 108 1.09 223 1.31 213 1.31
 162  1.000  0.750  0.743- 109 1.09 224 1.31 214 1.31
 163  0.250  0.000  0.743- 112 1.09 225 1.31 218 1.31
 164  0.250  0.500  0.743- 113 1.09 226 1.31 217 1.31
 165  0.750  0.000  0.743- 114 1.09 227 1.31 220 1.31
 166  0.750  0.500  0.743- 115 1.09 228 1.31 219 1.31
 167  0.707  0.380  0.495- 168 1.40 169 1.40 182 1.51
 168  0.651  0.350  0.507- 139 1.09 170 1.40 167 1.40
 169  0.689  0.439  0.481- 140 1.09 171 1.39 167 1.40
 170  0.579  0.379  0.507- 141 1.09 168 1.40 172 1.40
 171  0.618  0.468  0.480- 142 1.09 169 1.39 172 1.40
 172  0.562  0.438  0.493- 143 1.09 170 1.40 171 1.40
 173  0.762  0.477  0.532- 117 1.09 116 1.10 229 1.52 177 1.53
 174  0.697  0.586  0.547- 118 1.10 119 1.10 179 1.51 229 1.53
 175  0.793  0.526  0.568- 120 1.09 121 1.09 180 1.51 229 1.52
 176  0.830  0.597  0.536- 122 1.09 123 1.09 181 1.52 229 1.52
 177  0.833  0.432  0.529- 124 1.10 125 1.10 173 1.53 178 1.53
 178  0.819  0.355  0.519- 126 1.10 127 1.10 177 1.53 182 1.54
 179  0.658  0.601  0.526- 130 1.09 128 1.09 129 1.10 174 1.51
 180  0.745  0.468  0.579- 133 1.09 132 1.10 131 1.10 175 1.51
 181  0.861  0.655  0.551- 134 1.10 136 1.10 135 1.10 176 1.52
 182  0.786  0.352  0.496- 138 1.11 137 1.11 167 1.51 178 1.54
 183  0.057  0.253  0.564-  15 1.02   8 1.03 144 1.31
 184  0.031  0.709  0.575-   9 1.02  16 1.03 145 1.31
 185  0.533  0.208  0.562-  17 1.02  10 1.02 146 1.31
 186  0.484  0.694  0.564-  11 1.03  18 1.03 147 1.31
 187  0.440  0.296  0.559-   1 1.02  22 1.03 146 1.31
 188  0.477  0.822  0.562-  23 1.02   2 1.03 147 1.32
 189  0.929  0.250  0.563-   3 1.03  24 1.03 144 1.31
 190  0.980  0.818  0.562-  25 1.03   4 1.03 145 1.32
 191  0.229  0.467  0.566-  19 1.02  26 1.03 148 1.32
 192  0.194  0.013  0.563-  27 1.03  20 1.03 149 1.31
 193  0.706  0.986  0.568-  21 1.02  28 1.03 150 1.31
 194  0.321  0.032  0.560-   5 1.02  12 1.04 149 1.31
 195  0.299  0.570  0.557-  13 1.03   6 1.03 148 1.32
 196  0.822  0.041  0.563-   7 1.02  14 1.04 150 1.31
 197  0.052  0.198  0.658-  44 1.01  52 1.02 151 1.31
 198  0.061  0.714  0.658-  53 1.02  45 1.02 152 1.32
 199  0.547  0.204  0.658-  46 1.02  54 1.02 153 1.32
 200  0.537  0.703  0.658-  55 1.01  47 1.02 154 1.32
 201  0.213  0.449  0.658-  56 1.02  48 1.02 155 1.32
 202  0.202  0.959  0.657-  57 1.02  49 1.03 156 1.31
 203  0.697  0.467  0.659-  58 1.02  50 1.03 157 1.31
 204  0.708  0.955  0.660-  59 1.02  51 1.03 158 1.31
 205  0.454  0.294  0.657-  60 1.02  36 1.02 153 1.31
 206  0.454  0.802  0.657-  61 1.02  37 1.02 154 1.31
 207  0.954  0.283  0.659-  38 1.02  62 1.02 151 1.31
 208  0.945  0.770  0.660-  63 1.02  39 1.02 152 1.31
 209  0.298  0.046  0.656-  64 1.02  40 1.02 156 1.31
 210  0.295  0.549  0.659-  65 1.01  41 1.02 155 1.32
 211  0.798  0.048  0.659-  66 1.02  42 1.03 158 1.31
 212  0.817  0.515  0.656-  43 1.02  67 1.02 157 1.31
 213  0.046  0.204  0.753-  92 1.02  84 1.02 161 1.31
 214  0.046  0.704  0.753-  93 1.02  85 1.02 162 1.31
 215  0.546  0.204  0.753-  94 1.02  86 1.02 159 1.31
 216  0.546  0.704  0.753-  95 1.02  87 1.02 160 1.31
 217  0.204  0.454  0.753-  96 1.02  88 1.02 164 1.31
 218  0.204  0.954  0.753-  97 1.02  89 1.02 163 1.31
 219  0.704  0.454  0.753-  98 1.02  90 1.02 166 1.31
 220  0.704  0.954  0.753-  99 1.02  91 1.02 165 1.31
 221  0.454  0.296  0.753-  76 1.02 100 1.02 159 1.31
 222  0.454  0.796  0.753-  77 1.02 101 1.02 160 1.31
 223  0.954  0.296  0.753-  78 1.02 102 1.02 161 1.31
 224  0.954  0.796  0.753-  79 1.02 103 1.02 162 1.31
 225  0.296  0.046  0.753-  80 1.02 104 1.02 163 1.31
 226  0.296  0.546  0.753-  81 1.02 105 1.02 164 1.31
 227  0.796  0.046  0.753-  82 1.02 106 1.02 165 1.31
 228  0.796  0.546  0.753-  83 1.02 107 1.02 166 1.31
 229  0.771  0.546  0.546- 175 1.52 173 1.52 176 1.52 174 1.53
 230  0.514  0.013  0.553- 304 3.28
 231  0.486  0.499  0.554- 305 3.17
 232  0.006  0.008  0.550- 302 3.35
 233  0.027  0.502  0.555- 303 3.13
 234  0.251  0.242  0.553- 306 3.21
 235  0.253  0.764  0.553- 307 3.14
 236  0.735  0.212  0.556- 308 3.18
 237  0.699  0.796  0.555- 309 3.25
 238  0.996  0.987  0.654- 302 3.14 310 3.19
 239  0.015  0.496  0.655- 311 3.11 303 3.18
 240  0.497  0.004  0.655- 312 3.12 304 3.12
 241  0.502  0.496  0.654- 305 3.14 313 3.15
 242  0.254  0.247  0.655- 314 3.14 306 3.16
 243  0.255  0.755  0.654- 315 3.16 307 3.21
 244  0.747  0.266  0.655- 316 3.11 308 3.13
 245  0.746  0.741  0.655- 317 3.14 309 3.16
 246  0.129  0.123  0.607- 302 3.21 306 3.22
 247  0.154  0.605  0.608- 307 3.20 303 3.22
 248  0.640  0.114  0.611- 308 3.17 304 3.20
 249  0.631  0.619  0.608- 309 3.20 305 3.21
 250  0.362  0.388  0.606- 306 3.18 305 3.21
 251  0.371  0.884  0.607- 304 3.21 307 3.23
 252  0.888  0.370  0.608- 303 3.25 308 3.33
 253  0.867  0.882  0.606- 309 3.18 302 3.23
 254  0.123  0.364  0.608- 306 3.15 303 3.27
 255  0.123  0.875  0.607- 307 3.21 302 3.26
 256  0.596  0.348  0.601- 308 3.23 305 3.23
 257  0.616  0.867  0.614- 309 3.10 304 3.20
 258  0.387  0.133  0.607- 304 3.18 306 3.21
 259  0.386  0.635  0.609- 305 3.24 307 3.27
 260  0.884  0.137  0.612- 302 3.19 308 3.27
 261  0.899  0.641  0.614- 303 3.23 309 3.55
 262  0.000  0.000  0.755- 310 3.13 318 3.27
 263  0.000  0.500  0.755- 311 3.13 319 3.27
 264  0.500  0.000  0.755- 312 3.13 320 3.27
 265  0.500  0.500  0.755- 313 3.13 321 3.27
 266  0.250  0.250  0.755- 314 3.13 322 3.27
 267  0.250  0.750  0.755- 315 3.13 323 3.27
 268  0.750  0.250  0.755- 316 3.13 324 3.27
 269  0.750  0.750  0.755- 317 3.13 325 3.27
 270  0.136  0.114  0.705- 310 3.20 314 3.20
 271  0.136  0.614  0.705- 311 3.20 315 3.20
 272  0.636  0.114  0.705- 312 3.20 316 3.20
 273  0.636  0.614  0.705- 313 3.20 317 3.20
 274  0.364  0.386  0.705- 313 3.20 314 3.20
 275  0.364  0.886  0.705- 312 3.20 315 3.20
 276  0.864  0.386  0.705- 311 3.20 316 3.20
 277  0.864  0.886  0.705- 310 3.20 317 3.20
 278  0.114  0.364  0.705- 314 3.21 311 3.21
 279  0.114  0.864  0.705- 315 3.21 310 3.21
 280  0.614  0.364  0.705- 316 3.21 313 3.21
 281  0.614  0.864  0.705- 317 3.21 312 3.21
 282  0.386  0.136  0.705- 314 3.21 312 3.21
 283  0.386  0.636  0.705- 315 3.21 313 3.21
 284  0.886  0.136  0.705- 316 3.21 310 3.21
 285  0.886  0.636  0.705- 317 3.21 311 3.21
 286  0.135  0.115  0.801- 318 3.22 322 3.22
 287  0.135  0.615  0.801- 319 3.22 323 3.22
 288  0.635  0.115  0.801- 320 3.22 324 3.22
 289  0.635  0.615  0.801- 321 3.22 325 3.22
 290  0.365  0.385  0.801- 321 3.22 322 3.22
 291  0.365  0.885  0.801- 320 3.22 323 3.22
 292  0.865  0.385  0.801- 319 3.22 324 3.22
 293  0.865  0.885  0.801- 318 3.22 325 3.22
 294  0.115  0.365  0.801- 319 3.23 322 3.23
 295  0.115  0.865  0.801- 318 3.23 323 3.23
 296  0.615  0.365  0.801- 321 3.23 324 3.23
 297  0.615  0.865  0.801- 320 3.23 325 3.23
 298  0.385  0.135  0.801- 320 3.23 322 3.23
 299  0.385  0.635  0.801- 321 3.23 323 3.23
 300  0.885  0.135  0.801- 318 3.23 324 3.23
 301  0.885  0.635  0.801- 319 3.23 325 3.23
 302  0.997  0.004  0.604- 238 3.14 260 3.19 246 3.21 253 3.23 255 3.26 232 3.35
 303  0.008  0.503  0.604- 233 3.13 239 3.18 247 3.22 261 3.23 252 3.25 254 3.27
 304  0.504  0.001  0.605- 240 3.12 258 3.18 248 3.20 257 3.20 251 3.21 230 3.28
 305  0.501  0.499  0.604- 241 3.14 231 3.17 250 3.21 249 3.21 256 3.23 259 3.24
 306  0.254  0.250  0.604- 254 3.15 242 3.16 250 3.18 234 3.21 258 3.21 246 3.22
 307  0.250  0.752  0.603- 235 3.14 247 3.20 243 3.21 255 3.21 251 3.23 259 3.27
 308  0.746  0.252  0.605- 244 3.13 248 3.17 236 3.18 256 3.23 260 3.27 252 3.33
 309  0.743  0.757  0.604- 257 3.10 245 3.16 253 3.18 249 3.20 237 3.25 261 3.55
 310  0.000  0.000  0.705- 262 3.13 238 3.19 270 3.20 277 3.20 279 3.21 284 3.21
 311  0.000  0.500  0.705- 239 3.11 263 3.13 271 3.20 276 3.20 278 3.21 285 3.21
 312  0.500  0.000  0.705- 240 3.12 264 3.13 272 3.20 275 3.20 281 3.21 282 3.21
 313  0.500  0.500  0.705- 265 3.13 241 3.15 273 3.20 274 3.20 280 3.21 283 3.21
 314  0.250  0.250  0.705- 266 3.13 242 3.14 270 3.20 274 3.20 282 3.21 278 3.21
 315  0.250  0.750  0.705- 267 3.13 243 3.16 271 3.20 275 3.20 283 3.21 279 3.21
 316  0.750  0.250  0.705- 244 3.11 268 3.13 272 3.20 276 3.20 284 3.21 280 3.21
 317  0.750  0.750  0.705- 269 3.13 245 3.14 273 3.20 277 3.20 285 3.21 281 3.21
 318  0.000  0.000  0.807- 286 3.22 293 3.22 300 3.23 295 3.23 262 3.27
 319  0.000  0.500  0.807- 287 3.22 292 3.22 301 3.23 294 3.23 263 3.27
 320  0.500  0.000  0.807- 288 3.22 291 3.22 298 3.23 297 3.23 264 3.27
 321  0.500  0.500  0.807- 289 3.22 290 3.22 299 3.23 296 3.23 265 3.27
 322  0.250  0.250  0.807- 290 3.22 286 3.22 294 3.23 298 3.23 266 3.27
 323  0.250  0.750  0.807- 291 3.22 287 3.22 299 3.23 295 3.23 267 3.27
 324  0.750  0.250  0.807- 292 3.22 288 3.22 296 3.23 300 3.23 268 3.27
 325  0.750  0.750  0.807- 293 3.22 289 3.22 297 3.23 301 3.23 269 3.27
 

IMPORTANT INFORMATION: All symmetrisations will be switched off!
NOSYMM: (Re-)initialisation of all symmetry stuff for point group C_1.


----------------------------------------------------------------------------------------

                                     Primitive cell                                     

  volume of cell :   20385.2105

  direct lattice vectors                    reciprocal lattice vectors
    18.060800552  0.000000000  0.000000000     0.055368531  0.000015077 -0.000000000
    -0.004918649 18.062799454  0.000000000     0.000000000  0.055362404  0.000000000
     0.000000000  0.000000000 62.487499237     0.000000000 -0.000000000  0.016003201

  length of vectors
    18.060800552 18.062800123 62.487499237     0.055368533  0.055362404  0.016003201

  position of ions in fractional coordinates (direct lattice)
     0.470277727  0.338911648  0.565479008
     0.441355140  0.826838477  0.574601255
     0.923077513  0.266899251  0.578835195
     0.937751472  0.818945484  0.573121162
     0.319527703  0.078548872  0.569824055
     0.349486459  0.543802189  0.558676745
     0.803618225  0.092677411  0.567499615
     0.107359565  0.249445492  0.556921328
     0.075877699  0.673788866  0.576101006
     0.546143350  0.152471635  0.561017606
     0.503575308  0.644416131  0.558196546
     0.372961946  0.014897324  0.555725715
     0.298365031  0.625361334  0.553100800
     0.875991286  0.034287970  0.558144289
     0.058195167  0.269733379  0.580008465
     0.988330921  0.697141448  0.585811200
     0.572544153  0.242948867  0.568044280
     0.449601814  0.689473585  0.577117933
     0.272257333  0.437238711  0.572558000
     0.185028951  0.059154335  0.571976890
     0.681803408  0.031240414  0.574276483
     0.384376953  0.303654979  0.556686356
     0.498704524  0.870199699  0.555944814
     0.879607891  0.239755424  0.555471208
     0.989788588  0.866887171  0.554350928
     0.176071789  0.446289055  0.568959746
     0.148089177  0.982580167  0.558962263
     0.677341126  0.936573941  0.566962093
     0.427995152  0.185728802  0.551837425
     0.545035588  0.757614300  0.542854488
     0.996030610  0.226698711  0.537362423
     0.083421862  0.776992852  0.553784226
     0.184135594  0.565691271  0.556436001
     0.266529981  0.941600250  0.547429744
     0.797882678  0.931460768  0.556209515
     0.449349926  0.302220835  0.672935987
     0.448302880  0.808641115  0.673218087
     0.942081193  0.279212969  0.674556184
     0.922892182  0.730308014  0.670037946
     0.303410106  0.052079753  0.672468120
     0.294933402  0.556221000  0.674852508
     0.803896216  0.053634058  0.675102863
     0.841892132  0.470356994  0.663171522
     0.090457985  0.172316971  0.648911162
     0.114155869  0.717685509  0.652256497
     0.579924711  0.169445199  0.649691836
     0.569358308  0.667968130  0.649212980
     0.185086779  0.412110647  0.648008882
     0.167456410  0.926647716  0.647683927
     0.641574873  0.474684716  0.656290324
     0.674971026  0.921015607  0.650547903
     0.052462564  0.187093042  0.674156446
     0.049245454  0.671606156  0.667898664
     0.551700510  0.201756403  0.674483660
     0.541403902  0.698806951  0.674262668
     0.201604765  0.446552410  0.673624296
     0.197187028  0.953222536  0.673019866
     0.713728290  0.417721776  0.665067104
     0.702298291  0.951665855  0.675759550
     0.419408792  0.323866784  0.647287791
     0.424519118  0.836796018  0.647370388
     0.922162456  0.317464429  0.649676330
     0.910669382  0.810963739  0.655541211
     0.331569010  0.077625057  0.646833476
     0.326147030  0.584623472  0.649882243
     0.830496624  0.080149718  0.649255225
     0.850029551  0.556918194  0.651011680
     0.012678107  0.254353831  0.631845920
     0.032290859  0.811327356  0.642573713
     0.500022851  0.242121896  0.630465700
     0.497704064  0.750988188  0.630580286
     0.247964527  0.001058261  0.629631916
     0.262821669  0.494967640  0.631304613
     0.752860075  0.998826322  0.632210373
     0.722814166  0.570006850  0.645966298
     0.448745018  0.301283966  0.768889017
     0.448745007  0.801283913  0.768889017
     0.948744965  0.301283966  0.768889017
     0.948745007  0.801283913  0.768889017
     0.301275995  0.051294496  0.768872961
     0.301276011  0.551294499  0.768872961
     0.801275943  0.051294496  0.768872961
     0.801275984  0.551294499  0.768872961
     0.078771004  0.171180501  0.743441971
     0.078771006  0.671180448  0.743441971
     0.578771004  0.171180501  0.743441971
     0.578770992  0.671180448  0.743441971
     0.171199499  0.421174482  0.743421032
     0.171199501  0.921174508  0.743421032
     0.671199512  0.421174482  0.743421032
     0.671199501  0.921174508  0.743421032
     0.051256000  0.198714991  0.768889017
     0.051256002  0.698714925  0.768889017
     0.551256027  0.198714991  0.768889017
     0.551256016  0.698714925  0.768889017
     0.198723491  0.448703970  0.768872046
     0.198723493  0.948703970  0.768872046
     0.698723518  0.448703970  0.768872046
     0.698723507  0.948703970  0.768872046
     0.421231519  0.328817467  0.743441971
     0.421231508  0.828817440  0.743441971
     0.921231466  0.328817467  0.743441971
     0.921231508  0.828817440  0.743441971
     0.328800503  0.078824997  0.743421032
     0.328800492  0.578824964  0.743421032
     0.828800477  0.078824997  0.743421032
     0.828800519  0.578824964  0.743421032
     0.000003500  0.250001478  0.725821992
     0.000003500  0.750001452  0.725821992
     0.500003506  0.250001478  0.725821992
     0.500003495  0.750001452  0.725821992
     0.250000502  0.000000000  0.725803983
     0.250000517  0.500000000  0.725803983
     0.750000502  0.000000000  0.725803983
     0.750000490  0.500000000  0.725803983
     0.720424285  0.443035978  0.540107357
     0.738743610  0.494343993  0.516726826
     0.661088009  0.551686997  0.557188898
     0.708097248  0.637521120  0.555848054
     0.851096583  0.508363420  0.567676225
     0.790584464  0.577021817  0.577648984
     0.875704618  0.561483664  0.531221790
     0.805420516  0.623159670  0.522055406
     0.872834989  0.461749226  0.518315889
     0.861957780  0.422988215  0.543850171
     0.872591449  0.326183336  0.518423637
     0.783985698  0.323174712  0.530127272
     0.637428347  0.550802530  0.518406239
     0.691673848  0.632798999  0.514649567
     0.610220609  0.635634500  0.529992846
     0.758208081  0.466135765  0.595942438
     0.754205433  0.411725356  0.572528514
     0.685889395  0.480271241  0.577986637
     0.818011787  0.691027632  0.558140688
     0.897246082  0.690977738  0.541928155
     0.893760964  0.630173053  0.564196953
     0.820808124  0.381652075  0.484634622
     0.786639911  0.292889950  0.491446470
     0.662851522  0.303630111  0.517739418
     0.732949721  0.463053276  0.470910380
     0.536133979  0.354955339  0.516758326
     0.604852155  0.513984105  0.469478789
     0.506555283  0.461796849  0.492894666
     0.994011859  0.242721863  0.554316314
     0.033613538  0.768439782  0.563499548
     0.465720359  0.228590532  0.557593337
     0.503959085  0.757455326  0.555696473
     0.235423496  0.535792355  0.559958190
     0.260808945  0.993528016  0.556366102
     0.776380480  0.984343627  0.562077388
     0.006457589  0.245178461  0.648977338
     0.013148888  0.767032618  0.653237223
     0.499927683  0.246909750  0.647895639
     0.496396420  0.752091185  0.648126215
     0.256678796  0.497589362  0.648705799
     0.249450014  0.001898001  0.647069363
     0.744731342  0.518657652  0.653237711
     0.753005461  0.000442837  0.649695743
     0.499988984  0.249994984  0.743277021
     0.499989025  0.749994958  0.743277021
     0.999988984  0.249994984  0.743277021
     0.999989025  0.749994958  0.743277021
     0.250000502  0.000001000  0.743255960
     0.250000517  0.500001003  0.743255960
     0.750000502  0.000001000  0.743255960
     0.750000491  0.500001003  0.743255960
     0.707133289  0.379926435  0.494545601
     0.650568219  0.349639561  0.507060494
     0.689365353  0.438996399  0.480907070
     0.579009222  0.378719849  0.506596107
     0.617831802  0.467862672  0.480114950
     0.562048958  0.438139545  0.493174965
     0.762475028  0.476793667  0.532018825
     0.696898908  0.586038028  0.547115839
     0.793065096  0.525545324  0.568427413
     0.829816283  0.596987902  0.536181095
     0.833425890  0.431828213  0.528537232
     0.818892112  0.354959510  0.518966471
     0.658080752  0.601168846  0.526095277
     0.744836432  0.467510934  0.578840140
     0.860689179  0.654897531  0.551320964
     0.785579511  0.351641702  0.496372810
     0.056695618  0.252932939  0.564367153
     0.031271817  0.708759371  0.575473012
     0.533475225  0.207636681  0.562050710
     0.483927775  0.693781930  0.563956060
     0.439944578  0.296183418  0.559235572
     0.477430076  0.821900888  0.561886554
     0.928662938  0.249732263  0.563257861
     0.980189906  0.817829605  0.562152660
     0.228849166  0.466774670  0.566398321
     0.194167260  0.013379012  0.562582555
     0.706261223  0.985886963  0.567575436
     0.320555397  0.032129897  0.560476482
     0.298957289  0.569861762  0.556909362
     0.821682518  0.041061671  0.563158964
     0.052056385  0.198116661  0.658102087
     0.061000560  0.714176152  0.657765716
     0.546805156  0.204116222  0.658216124
     0.537432176  0.703066564  0.658202144
     0.212610669  0.448620760  0.657679090
     0.202107336  0.958583489  0.656873631
     0.697454850  0.466892039  0.658588147
     0.708163087  0.954811278  0.659621923
     0.453882304  0.293827452  0.656794636
     0.453917506  0.802141929  0.657068617
     0.954266483  0.283008279  0.658672331
     0.944989641  0.769652651  0.660329340
     0.297802441  0.046040758  0.656257785
     0.295032048  0.549174566  0.658701939
     0.797818921  0.048097374  0.658870124
     0.816718007  0.514633517  0.656080565
     0.045862501  0.204119496  0.752725994
     0.045862500  0.704119456  0.752725994
     0.545862507  0.204119496  0.752725994
     0.545862496  0.704119456  0.752725994
     0.204119002  0.454101003  0.752704994
     0.204118991  0.954100951  0.752704994
     0.704118976  0.454101003  0.752704994
     0.704118964  0.954100951  0.752704994
     0.454140018  0.295888490  0.752726971
     0.454140007  0.795888516  0.752726971
     0.954140018  0.295888490  0.752726971
     0.954140060  0.795888516  0.752726971
     0.295882492  0.045900498  0.752704994
     0.295882481  0.545900528  0.752704994
     0.795882439  0.045900498  0.752704994
     0.795882481  0.545900528  0.752704994
     0.771165865  0.546037643  0.545669993
     0.514046595  0.013405106  0.552797212
     0.486463101  0.498985017  0.553634110
     0.006244212  0.008488841  0.550427170
     0.026901244  0.501684880  0.554601222
     0.250662477  0.241985889  0.552728717
     0.252856457  0.763524580  0.552779264
     0.735024405  0.211506739  0.555815088
     0.699133529  0.796317867  0.555201257
     0.996381337  0.986518862  0.653935666
     0.014934902  0.496118630  0.655263873
     0.497200108  0.003547806  0.654969869
     0.501714905  0.495791706  0.654463481
     0.254018543  0.246656216  0.654521232
     0.254523316  0.755220135  0.654219658
     0.747194004  0.266248493  0.655228405
     0.746022001  0.741369239  0.654624524
     0.129048898  0.123367653  0.607436009
     0.153626114  0.605193351  0.607836724
     0.640065349  0.113556138  0.611150008
     0.631484874  0.619395986  0.607799912
     0.362388393  0.388284100  0.606031309
     0.370730950  0.884322556  0.606567915
     0.888015710  0.369524337  0.608301966
     0.866970031  0.881850568  0.605934915
     0.122705108  0.363794942  0.608362708
     0.123157901  0.875188501  0.606840431
     0.596073849  0.347503841  0.600801320
     0.616140798  0.867188963  0.613833284
     0.387347660  0.132959900  0.606687263
     0.386175153  0.634824689  0.609463941
     0.884001212  0.137040688  0.611741741
     0.898883980  0.641092674  0.614061235
     0.000000000  0.000000000  0.754927972
     0.000000000  0.500000000  0.754927972
     0.500000000  0.000000000  0.754927972
     0.499999989  0.500000000  0.754927972
     0.250000496  0.250000000  0.754939022
     0.250000511  0.749999974  0.754939022
     0.750000470  0.250000000  0.754939022
     0.750000458  0.749999974  0.754939022
     0.135790500  0.114209997  0.704782994
     0.135790502  0.614209984  0.704782994
     0.635790447  0.114209997  0.704782994
     0.635790488  0.614209984  0.704782994
     0.364209516  0.385789989  0.704782994
     0.364209505  0.885789963  0.704782994
     0.864209542  0.385789989  0.704782994
     0.864209531  0.885789963  0.704782994
     0.114217990  0.364218986  0.704780979
     0.114217992  0.864218986  0.704780979
     0.614218004  0.364218986  0.704780979
     0.614217992  0.864218986  0.704780979
     0.385782012  0.135781489  0.704782017
     0.385782001  0.635781489  0.704782017
     0.885781985  0.135781489  0.704782017
     0.885782027  0.635781489  0.704782017
     0.134667000  0.115332001  0.801256025
     0.134666989  0.615331988  0.801256025
     0.634666987  0.115332001  0.801256025
     0.634666976  0.615331988  0.801256025
     0.365333002  0.384667985  0.801256025
     0.365332990  0.884667959  0.801256025
     0.865332949  0.384667985  0.801256025
     0.865332938  0.884667959  0.801256025
     0.115328503  0.365337004  0.801264999
     0.115328505  0.865336978  0.801264999
     0.615328503  0.365337004  0.801264999
     0.615328492  0.865336978  0.801264999
     0.384671513  0.134662996  0.801264999
     0.384671501  0.634662970  0.801264999
     0.884671486  0.134662996  0.801264999
     0.884671528  0.634662970  0.801264999
     0.997410931  0.004204677  0.604021752
     0.008034374  0.503108834  0.604468557
     0.504415450  0.001420468  0.605022806
     0.501284180  0.498868862  0.604147265
     0.253794357  0.250018453  0.604031092
     0.250468134  0.752307444  0.602941091
     0.746324643  0.252084902  0.605255458
     0.743344397  0.756534428  0.604219606
     0.000000500  0.000000500  0.704828963
     0.000000500  0.500000475  0.704828963
     0.500000475  0.000000500  0.704828963
     0.500000464  0.500000475  0.704828963
     0.249999994  0.249999472  0.704824995
     0.250000010  0.749999498  0.704824995
     0.749999994  0.249999472  0.704824995
     0.749999983  0.749999498  0.704824995
     0.000000000  0.000000000  0.807317968
     0.000000000  0.500000000  0.807317968
     0.500000000  0.000000000  0.807317968
     0.499999989  0.500000000  0.807317968
     0.249999994  0.250000000  0.807317968
     0.250000010  0.749999974  0.807317968
     0.749999994  0.250000000  0.807317968
     0.749999983  0.749999974  0.807317968

  ion indices of the primitive-cell ions
   primitive index   ion index
                 1           1
                 2           2
                 3           3
                 4           4
                 5           5
                 6           6
                 7           7
                 8           8
                 9           9
                10          10
                11          11
                12          12
                13          13
                14          14
                15          15
                16          16
                17          17
                18          18
                19          19
                20          20
                21          21
                22          22
                23          23
                24          24
                25          25
                26          26
                27          27
                28          28
                29          29
                30          30
                31          31
                32          32
                33          33
                34          34
                35          35
                36          36
                37          37
                38          38
                39          39
                40          40
                41          41
                42          42
                43          43
                44          44
                45          45
                46          46
                47          47
                48          48
                49          49
                50          50
                51          51
                52          52
                53          53
                54          54
                55          55
                56          56
                57          57
                58          58
                59          59
                60          60
                61          61
                62          62
                63          63
                64          64
                65          65
                66          66
                67          67
                68          68
                69          69
                70          70
                71          71
                72          72
                73          73
                74          74
                75          75
                76          76
                77          77
                78          78
                79          79
                80          80
                81          81
                82          82
                83          83
                84          84
                85          85
                86          86
                87          87
                88          88
                89          89
                90          90
                91          91
                92          92
                93          93
                94          94
                95          95
                96          96
                97          97
                98          98
                99          99
               100         100
               101         101
               102         102
               103         103
               104         104
               105         105
               106         106
               107         107
               108         108
               109         109
               110         110
               111         111
               112         112
               113         113
               114         114
               115         115
               116         116
               117         117
               118         118
               119         119
               120         120
               121         121
               122         122
               123         123
               124         124
               125         125
               126         126
               127         127
               128         128
               129         129
               130         130
               131         131
               132         132
               133         133
               134         134
               135         135
               136         136
               137         137
               138         138
               139         139
               140         140
               141         141
               142         142
               143         143
               144         144
               145         145
               146         146
               147         147
               148         148
               149         149
               150         150
               151         151
               152         152
               153         153
               154         154
               155         155
               156         156
               157         157
               158         158
               159         159
               160         160
               161         161
               162         162
               163         163
               164         164
               165         165
               166         166
               167         167
               168         168
               169         169
               170         170
               171         171
               172         172
               173         173
               174         174
               175         175
               176         176
               177         177
               178         178
               179         179
               180         180
               181         181
               182         182
               183         183
               184         184
               185         185
               186         186
               187         187
               188         188
               189         189
               190         190
               191         191
               192         192
               193         193
               194         194
               195         195
               196         196
               197         197
               198         198
               199         199
               200         200
               201         201
               202         202
               203         203
               204         204
               205         205
               206         206
               207         207
               208         208
               209         209
               210         210
               211         211
               212         212
               213         213
               214         214
               215         215
               216         216
               217         217
               218         218
               219         219
               220         220
               221         221
               222         222
               223         223
               224         224
               225         225
               226         226
               227         227
               228         228
               229         229
               230         230
               231         231
               232         232
               233         233
               234         234
               235         235
               236         236
               237         237
               238         238
               239         239
               240         240
               241         241
               242         242
               243         243
               244         244
               245         245
               246         246
               247         247
               248         248
               249         249
               250         250
               251         251
               252         252
               253         253
               254         254
               255         255
               256         256
               257         257
               258         258
               259         259
               260         260
               261         261
               262         262
               263         263
               264         264
               265         265
               266         266
               267         267
               268         268
               269         269
               270         270
               271         271
               272         272
               273         273
               274         274
               275         275
               276         276
               277         277
               278         278
               279         279
               280         280
               281         281
               282         282
               283         283
               284         284
               285         285
               286         286
               287         287
               288         288
               289         289
               290         290
               291         291
               292         292
               293         293
               294         294
               295         295
               296         296
               297         297
               298         298
               299         299
               300         300
               301         301
               302         302
               303         303
               304         304
               305         305
               306         306
               307         307
               308         308
               309         309
               310         310
               311         311
               312         312
               313         313
               314         314
               315         315
               316         316
               317         317
               318         318
               319         319
               320         320
               321         321
               322         322
               323         323
               324         324
               325         325

----------------------------------------------------------------------------------------

 
 
 KPOINTS: Automatic Mesh                          

Automatic generation of k-mesh.
 Grid dimensions read from file:
 generate k-points for:    3    3    1

 Generating k-lattice:

  Cartesian coordinates                     Fractional coordinates (reciprocal lattice)
     0.018456177  0.000005026 -0.000000000     0.333333333  0.000000000  0.000000000
     0.000000000  0.018454135  0.000000000     0.000000000  0.333333333  0.000000000
     0.000000000 -0.000000000  0.016003201     0.000000000  0.000000000  1.000000000

  Length of vectors
     0.018456178  0.018454135  0.016003201

  Shift w.r.t. Gamma in fractional coordinates (k-lattice)
     0.000000000  0.000000000  0.000000000

 
 Subroutine IBZKPT returns following result:
 ===========================================
 
 Found      5 irreducible k-points:
 
 Following reciprocal coordinates:
            Coordinates               Weight
  0.000000  0.000000  0.000000      1.000000
  0.333333  0.000000  0.000000      2.000000
  0.000000  0.333333  0.000000      2.000000
  0.333333  0.333333  0.000000      2.000000
 -0.333333  0.333333  0.000000      2.000000
 
 Following cartesian coordinates:
            Coordinates               Weight
  0.000000  0.000000  0.000000      1.000000
  0.018456  0.000005  0.000000      2.000000
  0.000000  0.018454  0.000000      2.000000
  0.018456  0.018459  0.000000      2.000000
 -0.018456  0.018449  0.000000      2.000000
 


--------------------------------------------------------------------------------------------------------




 Dimension of arrays:
   k-points           NKPTS =      5   k-points in BZ     NKDIM =      5   number of bands    NBANDS=    732
   number of dos      NEDOS =    301   number of ions     NIONS =    325
   non local maximal  LDIM  =      5   non local SUM 2l+1 LMDIM =     13
   total plane-waves  NPLWV = ******
   max r-space proj   IRMAX =   3336   max aug-charges    IRDMAX=  19845
   dimension x,y,z NGX =   100 NGY =  100 NGZ =  350
   dimension x,y,z NGXF=   200 NGYF=  200 NGZF=  700
   support grid    NGXF=   200 NGYF=  200 NGZF=  700
   ions per type =             143  39  47  72  24
   NGX,Y,Z   is equivalent  to a cutoff of   9.20,  9.20,  9.31 a.u.
   NGXF,Y,Z  is equivalent  to a cutoff of  18.41, 18.41, 18.62 a.u.

 SYSTEM =  PSC                                     
 POSCAR =   H  C  N  I Pb                          

 Startparameter for this run:
   NWRITE =      2    write-flag & timer
   PREC   = normal    normal or accurate (medium, high low for compatibility)
   ISTART =      0    job   : 0-new  1-cont  2-samecut
   ICHARG =      1    charge: 1-file 2-atom 10-const
   ISPIN  =      1    spin polarized calculation?
   LNONCOLLINEAR =      F non collinear calculations
   LSORBIT =      F    spin-orbit coupling
   INIWAV =      1    electr: 0-lowe 1-rand  2-diag
   LASPH  =      F    aspherical Exc in radial PAW
 Electronic Relaxation 1
   ENCUT  =  500.0 eV  36.75 Ry    6.06 a.u.  32.93 32.93113.93*2*pi/ulx,y,z
   ENINI  =  500.0     initial cutoff
   ENAUG  =  644.9 eV  augmentation charge cutoff
   NELM   =    600;   NELMIN=  2; NELMDL=  0     # of ELM steps 
   EDIFF  = 0.1E-03   stopping-criterion for ELM
   LREAL  =      T    real-space projection
   NLSPLINE    = F    spline interpolate recip. space projectors
   LCOMPAT=      F    compatible to vasp.4.4
   GGA_COMPAT  = F    GGA compatible to vasp.4.4-vasp.4.6
   LMAXPAW     = -100 max onsite density
   LMAXMIX     =    2 max onsite mixed and CHGCAR
   VOSKOWN=      0    Vosko Wilk Nusair interpolation
   ROPT   =   -0.00050  -0.00050  -0.00050  -0.00050
   ROPT   =   -0.00050
 Ionic relaxation
   EDIFFG = 0.1E-02   stopping-criterion for IOM
   NSW    =      0    number of steps for IOM
   NBLOCK =      1;   KBLOCK =      1    inner block; outer block 
   IBRION =     -1    ionic relax: 0-MD 1-quasi-New 2-CG
   NFREE  =      0    steps in history (QN), initial steepest desc. (CG)
   ISIF   =      2    stress and relaxation
   IWAVPR =     10    prediction:  0-non 1-charg 2-wave 3-comb
   ISYM   =      0    0-nonsym 1-usesym 2-fastsym
   LCORR  =      T    Harris-Foulkes like correction to forces

   POTIM  = 0.5000    time-step for ionic-motion
   TEIN   =    0.0    initial temperature
   TEBEG  =    0.0;   TEEND  =   0.0 temperature during run
   SMASS  =  -3.00    Nose mass-parameter (am)
   estimated Nose-frequenzy (Omega)   =  0.10E-29 period in steps = 0.13E+47 mass=  -0.745E-26a.u.
   SCALEE = 1.0000    scale energy and forces
   NPACO  =    256;   APACO  = 16.0  distance and # of slots for P.C.
   PSTRESS=    0.0 pullay stress

  Mass of Ions in am
   POMASS =   1.00 12.01 14.00126.90207.20
  Ionic Valenz
   ZVAL   =   1.00  4.00  5.00  7.00  4.00
  Atomic Wigner-Seitz radii
   RWIGS  =  -1.00 -1.00 -1.00 -1.00 -1.00
  virtual crystal weights 
   VCA    =   1.00  1.00  1.00  1.00  1.00
   NELECT =    1134.0000    total number of electrons
   NUPDOWN=      -1.0000    fix difference up-down

 DOS related values:
   EMIN   =  10.00;   EMAX   =-10.00  energy-range for DOS
   EFERMI =   0.00
   ISMEAR =     0;   SIGMA  =   0.05  broadening in eV -4-tet -1-fermi 0-gaus

 Electronic relaxation 2 (details)
   IALGO  =     38    algorithm
   LDIAG  =      T    sub-space diagonalisation (order eigenvalues)
   LSUBROT=      F    optimize rotation matrix (better conditioning)
   TURBO    =      0    0=normal 1=particle mesh
   IRESTART =      0    0=no restart 2=restart with 2 vectors
   NREBOOT  =      0    no. of reboots
   NMIN     =      0    reboot dimension
   EREF     =   0.00    reference energy to select bands
   IMIX   =      4    mixing-type and parameters
     AMIX     =   0.40;   BMIX     =  0.01
     AMIX_MAG =   1.60;   BMIX_MAG =  0.01
     AMIN     =   0.01
     WC   =   100.;   INIMIX=   1;  MIXPRE=   1;  MAXMIX= -45

 Intra band minimization:
   WEIMIN = 0.0000     energy-eigenvalue tresh-hold
   EBREAK =  0.34E-07  absolut break condition
   DEPER  =   0.30     relativ break condition  

   TIME   =   0.40     timestep for ELM

  volume/ion in A,a.u.               =      62.72       423.28
  Fermi-wavevector in a.u.,A,eV,Ry     =   0.624944  1.180972  5.313816  0.390554
  Thomas-Fermi vector in A             =   1.685677
 
 Write flags
   LWAVE        =      F    write WAVECAR
   LDOWNSAMPLE  =      F    k-point downsampling of WAVECAR
   LCHARG       =      T    write CHGCAR
   LVTOT        =      T    write LOCPOT, total local potential
   LVHAR        =      F    write LOCPOT, Hartree potential only
   LELF         =      F    write electronic localiz. function (ELF)
   LORBIT       =      0    0 simple, 1 ext, 2 COOP (PROOUT), +10 PAW based schemes


 Dipole corrections
   LMONO  =      F    monopole corrections only (constant potential shift)
   LDIPOL =      T    correct potential (dipole corrections)
   IDIPOL =      3    1-x, 2-y, 3-z, 4-all directions 
   EPSILON=  1.0000000 bulk dielectric constant

 Exchange correlation treatment:
   GGA     =    --    GGA type
   LEXCH   =     8    internal setting for exchange type
   VOSKOWN=      0    Vosko Wilk Nusair interpolation
   LHFCALC =     F    Hartree Fock is set to
   LHFONE  =     F    Hartree Fock one center treatment
   AEXX    =    0.0000 exact exchange contribution

 Linear response parameters
   LEPSILON=     F    determine dielectric tensor
   LRPA    =     F    only Hartree local field effects (RPA)
   LNABLA  =     F    use nabla operator in PAW spheres
   LVEL    =     F    velocity operator in full k-point grid
   LINTERFAST=   F  fast interpolation
   KINTER  =     0    interpolate to denser k-point grid
   CSHIFT  =0.1000    complex shift for real part using Kramers Kronig
   OMEGAMAX=  -1.0    maximum frequency
   DEG_THRESHOLD= 0.2000000E-02 threshold for treating states as degnerate
   RTIME   =   -0.100 relaxation time in fs
  (WPLASMAI=    0.000 imaginary part of plasma frequency in eV, 0.658/RTIME)
   DFIELD  = 0.0000000 0.0000000 0.0000000 field for delta impulse in time
 
 Orbital magnetization related:
   ORBITALMAG=     F  switch on orbital magnetization
   LCHIMAG   =     F  perturbation theory with respect to B field
   DQ        =  0.001000  dq finite difference perturbation B field
   LLRAUG    =     F  two centre corrections for induced B field



--------------------------------------------------------------------------------------------------------


 Static calculation
 charge density and potential will be updated during run
 non-spin polarized calculation
 Variant of blocked Davidson
 Davidson routine will perform the subspace rotation
 perform sub-space diagonalisation
    after iterative eigenvector-optimisation
 modified Broyden-mixing scheme, WC =      100.0
 initial mixing is a Kerker type mixing with AMIX =  0.4000 and BMIX =      0.0100
 Hartree-type preconditioning will be used
 using additional bands           165
 real space projection scheme for non local part
[...]
     13.54561      0.00000     45.35368         0.003636     -0.009710      0.013168
     13.54315      9.03140     45.35368        -0.007199      0.002762     -0.011671
     13.00926      8.00247     33.74996        -0.027418      0.030041     -0.044215
     13.33987      8.92924     32.28897         0.074876      0.064558      0.037763
     11.93707      9.96501     34.81734         0.017678      0.003971     -0.021362
     12.78567     11.51542     34.73355        -0.011567      0.031866     -0.047721
     15.36899      9.18247     35.47267         0.127998     -0.063285      0.061613
     14.27575     10.42263     36.09584         0.013739      0.037180      0.006047
     15.81316     10.14197     33.19472         0.005377     -0.088088     -0.082557
     14.54347     11.25601     32.62194        -0.099156     -0.086495     -0.087718
     15.76183      8.34048     32.38826        -0.016829      0.043964     -0.053139
     15.56557      7.64035     33.98384         0.045908      0.059655      0.066884
     15.75810      5.89178     32.39500         0.025537     -0.034848      0.037174
     14.15782      5.83744     33.12633         0.022950      0.022841     -0.110329
     11.50976      9.94904     32.39391        -0.054498     -0.006567     -0.021498
     12.48907     11.43012     32.15916         0.024825      0.006724      0.017821
     11.01795     11.48134     33.11793        -0.155334      0.082404     -0.029371
     13.69155      8.41972     37.23895         0.077029      0.005238     -0.021991
     13.61953      7.43691     35.77588        -0.005159     -0.048504     -0.031992
     12.38535      8.67504     36.11694        -0.146298     -0.017039     -0.052853
     14.77055     12.48189     34.87682        -0.057902      0.009480      0.005920
     16.20158     12.48099     33.86374         0.038503     -0.019798     -0.040924
     16.13894     11.38269     35.25526        -0.030208      0.027532     -0.078319
     14.82257      6.89370     30.28361        -0.093317     -0.115051      0.279213
     14.20591      5.29041     30.70926        -0.005070      0.063692     -0.026034
     11.97014      5.48441     32.35224         0.024692     -0.115727      0.084990
     13.23538      8.36404     29.42601        -0.048037     -0.015132      0.016468
      9.68126      6.41149     32.29094        -0.026006     -0.009025      0.044621
     10.92159      9.28399     29.33656         0.050285      0.002052     -0.017083
      9.14652      8.34134     30.79976        -0.027983     -0.033772      0.021357
     17.95146      4.38424     34.63784        -0.125761     -0.176665     -0.407329
      0.60331     13.88017     35.21168         0.079972     -0.138712      0.058947
      8.41016      4.12898     34.84261         0.128566     -0.224090      0.053460
      9.09818     13.68176     34.72408        -0.147436      0.236497      0.000248
      4.24930      9.67791     34.99039         0.227317     -0.012886     -0.063754
      4.70553     17.94590     34.76593        -0.216074     -0.013492      0.032725
     14.01721     17.78000     35.12281         0.121698      0.139161      0.075715
      0.11542      4.42861     40.55297         0.050274     -0.075918      0.144337
      0.23371     13.85476     40.81916         0.440748     -0.247153     -0.071346
      9.02788      4.45988     40.48538         0.230585     -0.257830      0.104300
      8.96162     13.58487     40.49979         0.052313     -0.065658     -0.192709
      4.63338      8.98786     40.53600         0.043673      0.053291      0.037871
      4.50526      0.03428     40.43375         0.092241      0.105764      0.081002
     13.44789      9.36841     40.81919        -0.045323      0.448774     -0.063158
     13.59988      0.00800     40.59786         0.023361      0.046730      0.029554
      9.02897      4.51561     46.44552         0.008133      0.006866      0.025204
      9.02651     13.54701     46.44552         0.021931     -0.005767      0.039108
     18.05937      4.51561     46.44552         0.018723      0.002235      0.035743
     18.05691     13.54701     46.44552         0.014051      0.005393      0.002374
      4.51521      0.00002     46.44421        -0.004218     -0.006494      0.049404
      4.51275      9.03142     46.44421        -0.007103     -0.007306      0.043247
     13.54561      0.00002     46.44421        -0.015170     -0.017560      0.035668
     13.54315      9.03142     46.44421        -0.011226     -0.004987      0.011776
     12.76952      6.86253     30.90292         0.035571      0.120936     -0.056979
     11.74806      6.31547     31.68494        -0.115252     -0.033256      0.128621
     12.44833      7.92950     30.05068         0.190607      0.014707     -0.074344
     10.45551      6.84074     31.65592        -0.075106     -0.023145     -0.034744
     11.15624      8.45091     30.00118        -0.339263     -0.055285      0.125168
     10.14890      7.91403     30.81727         0.230516      0.119226     -0.196518
     13.76856      8.61223     33.24453         0.158916     -0.057933     -0.063026
     12.58367     10.58549     34.18790         0.101663     -0.036602     -0.067699
     14.32081      9.49282     35.51961        -0.003664      0.014049      0.063139
     14.98421     10.78327     33.50462         0.173638      0.026963      0.127460
     15.05021      7.80003     33.02697        -0.108785      0.027532      0.060230
     14.78810      6.41156     32.42892         0.001591      0.148076     -0.038409
     11.88251     10.85879     32.87438         0.175766      0.048024     -0.016673
     13.45004      8.44456     36.17027         0.041172     -0.034326      0.029355
     15.54151     11.82928     34.45067        -0.014588      0.062365      0.037263
     14.18647      6.35163     31.01710         0.054651     -0.011215     -0.319313
      1.02272      4.56868     35.26589         0.141901      0.106915      0.038289
      0.56131     12.80218     35.95987         0.125420      0.115060     -0.215358
      9.63397      3.75050     35.12114         0.079770     -0.010884     -0.056273
      8.73671     12.53164     35.24020         0.000176     -0.108607      0.018670
      7.94429      5.34990     34.94523        -0.056855      0.134540     -0.023736
      8.61873     14.84583     35.11089         0.067838     -0.277627      0.056845
     16.77117      4.51086     35.19658        -0.168354      0.071409      0.048611
     17.69899     14.77229     35.12751        -0.059397     -0.081454      0.065104
      4.13090      8.43126     35.39281        -0.608359     -0.192857      0.034664
      3.50675      0.24166     35.15438        -0.015582     -0.169450     -0.061682
     12.75079     17.80788     35.46637        -0.169070     -0.424783     -0.002550
      5.78933      0.58036     35.02277         0.584287     -0.115330     -0.222147
      5.39661     10.29330     34.79987        -0.021378      0.043143     -0.069195
     14.84004      0.74169     35.19040         0.210791     -0.257562     -0.243769
      0.93921      3.57854     41.12315        -0.317603      0.233209      0.120316
      1.09821     12.90002     41.10213        -0.371504      0.251645     -0.096122
      9.87473      3.68691     41.13028        -0.151600      0.146575      0.049716
      9.70300     12.69935     41.12941         0.061805     -0.028413     -0.693591
      3.83771      8.10335     41.09672         0.156697      0.160435     -0.349987
      3.64551     17.31470     41.04639        -0.212589     -0.216615     -0.226737
     12.59430      8.43338     41.15353        -0.106265      0.008933     -0.081208
     12.78530     17.24656     41.21812        -0.119684     -0.126806     -0.331208
      8.19603      5.30735     41.04145        -0.051457      0.060541      0.025507
      8.19417     14.48893     41.05857         0.042799     -0.064517     -0.010278
     17.23342      5.11192     41.15879        -0.007311      0.033132     -0.002169
     17.06348     13.90208     41.26233        -0.037567      0.245140     -0.145599
      5.37832      0.83162     41.00791        -0.049894     -0.021162      0.003811
      5.32581      9.91963     41.16064        -0.310324     -0.408416     -0.118518
     14.40901      0.86877     41.17115        -0.039238     -0.037516      0.053375
     14.74805      9.29572     40.99683         0.069709      0.060504     -0.054187
      0.82731      3.68697     47.03596         0.015297     -0.023897     -0.090148
      0.82485     12.71837     47.03596         0.024736     -0.026054     -0.066897
      9.85771      3.68697     47.03596         0.024185     -0.028159     -0.081159
      9.85525     12.71837     47.03596         0.011872     -0.015509     -0.077387
      3.68432      8.20234     47.03465        -0.005508     -0.007898     -0.064944
      3.68186     17.23373     47.03465        -0.008582     -0.004307     -0.062375
     12.71472      8.20234     47.03465        -0.006369     -0.011876     -0.055719
     12.71226     17.23373     47.03465        -0.006996     -0.000204     -0.073452
      8.20068      5.34457     47.03603        -0.021583      0.016532     -0.081201
      8.19822     14.37597     47.03603        -0.025817      0.024064     -0.082589
     17.23108      5.34457     47.03603        -0.029753      0.020808     -0.100972
     17.22862     14.37597     47.03603        -0.020542      0.023261     -0.066369
      5.34365      0.82909     47.03465         0.011968      0.013847     -0.065020
      5.34119      9.86049     47.03465         0.017296      0.015518     -0.068051
     14.37405      0.82909     47.03465         0.023084      0.026726     -0.072237
     14.37159      9.86049     47.03465         0.023510      0.020650     -0.067261
     13.92519      9.86297     34.09755        -0.152657     -0.055226      0.014764
      9.28403      0.24213     34.54292         0.007528     -0.030049     -0.019923
      8.78346      9.01307     34.59521         0.039278     -0.032001     -0.063755
      0.11273      0.15333     34.39482         0.024372     -0.004634      0.005054
      0.48339      9.06183     34.65564        -0.050838     -0.001537      0.001770
      4.52597      4.37094     34.53864         0.012739     -0.017356      0.011497
      4.56303     13.79139     34.54179        -0.019512      0.002510     -0.062052
     13.27409      3.82040     34.73149        -0.037321      0.036177      0.017925
     12.62299     14.38373     34.69314         0.049960     -0.035222     -0.017414
     17.99059     17.81929     40.86280         0.024953      0.002724     -0.011037
      0.26730      8.96129     40.94580        -0.020904      0.014139      0.059851
      8.97981      0.06408     40.92743        -0.008663      0.011490     -0.033581
      9.05893      8.95539     40.89579        -0.015610     -0.015152      0.020569
      4.58657      4.45530     40.89939         0.004442     -0.007121      0.005031
      4.59318     13.64139     40.88055         0.011684      0.000356      0.017972
     13.49361      4.80919     40.94358         0.002018      0.028135     -0.024649
     13.47011     13.39120     40.90585         0.012433      0.002491     -0.002445
      2.33012      2.22837     37.95716         0.020272     -0.041939     -0.007120
      2.77163     10.93149     37.98220        -0.027168      0.047300      0.014959
     11.55953      2.05114     38.18924        -0.012579      0.006759      0.002585
     11.40208     11.18803     37.97990        -0.057960     -0.034402     -0.026040
      6.54311      7.01350     37.86938        -0.005271      0.013923      0.020366
      6.69135     15.97334     37.90291         0.001479      0.024871      0.042777
     16.03646      6.67464     38.01127         0.005095     -0.074795      0.013515
     15.65384     15.92869     37.86336         0.026871      0.017270      0.011018
      2.21436      6.57116     38.01506        -0.022610      0.043858      0.023593
      2.22003     15.80835     37.91994         0.000505      0.004828     -0.002773
     10.76386      6.27689     37.54257         0.005271     -0.006922      0.031069
     11.12373     15.66386     38.35691         0.007418     -0.001897      0.005328
      6.99515      2.40163     37.91037        -0.020139      0.026455      0.006514
      6.97151     11.46671     38.08388        -0.042564     -0.002124      0.048242
     15.96510      2.47534     38.22621        -0.018886     -0.022184      0.008790
     16.23141     11.57993     38.37115        -0.089105     -0.017192     -0.169503
      0.00000      0.00000     47.17356        -0.002010      0.007079      0.350746
     -0.00246      9.03140     47.17356        -0.003563     -0.003121      0.468899
      9.03040      0.00000     47.17356         0.001669      0.001654      0.417791
      9.02794      9.03140     47.17356        -0.003321     -0.000664      0.401191
      4.51398      4.51570     47.17425        -0.000818     -0.003809      0.417316
      4.51152     13.54710     47.17425         0.003545      0.000039      0.413966
     13.54438      4.51570     47.17425         0.006327     -0.000152      0.410313
     13.54192     13.54710     47.17425        -0.001422     -0.002640      0.415817
      2.45192      2.06295     44.04013         0.000549     -0.034338     -0.021913
      2.44946     11.09435     44.04013         0.041534     -0.027079     -0.025168
     11.48232      2.06295     44.04013         0.033965      0.013015     -0.049377
     11.47986     11.09435     44.04013        -0.078792      0.025949     -0.014166
      6.57602      6.96845     44.04013         0.012958     -0.021575     -0.063154
      6.57356     15.99985     44.04013         0.020339      0.011770     -0.030721
     15.60642      6.96845     44.04013         0.006943     -0.023464     -0.089006
     15.60396     15.99985     44.04013        -0.044578      0.042586     -0.026005
      2.06108      6.57881     44.04000         0.045998     -0.022885     -0.015952
      2.05862     15.61021     44.04000         0.049681      0.070099     -0.026579
     11.09148      6.57881     44.04000        -0.031841     -0.045183     -0.004132
     11.08902     15.61021     44.04000        -0.024276      0.004788     -0.032199
      6.96686      2.45259     44.04007        -0.013292     -0.017567     -0.041505
      6.96440     11.48399     44.04007         0.012871      0.012373     -0.032624
     15.99726      2.45259     44.04007         0.031472      0.042067     -0.054086
     15.99481     11.48399     44.04007         0.035962      0.013717     -0.095762
      2.43163      2.08322     50.06849         0.004307     -0.014574      0.023192
      2.42917     11.11462     50.06849         0.014396     -0.007227      0.026070
     11.46203      2.08322     50.06849         0.011955     -0.009087      0.023706
     11.45957     11.11462     50.06849         0.008627     -0.011549      0.025880
      6.59631      6.94818     50.06849        -0.011775      0.008476      0.025092
      6.59385     15.97958     50.06849        -0.008252      0.012638      0.024605
     15.62671      6.94818     50.06849        -0.015268      0.002476      0.022791
     15.62425     15.97958     50.06849        -0.004938      0.018476      0.026464
      2.08113      6.59901     50.06905        -0.005907     -0.016131      0.024606
      2.07867     15.63041     50.06905        -0.016041     -0.002523      0.025405
     11.11153      6.59901     50.06905        -0.008157     -0.013210      0.025511
     11.10907     15.63041     50.06905        -0.011461     -0.007570      0.024885
      6.94681      2.43239     50.06905         0.010534      0.008973      0.024750
      6.94435     11.46379     50.06905         0.010169      0.009677      0.025633
     15.97721      2.43239     50.06905         0.013844      0.006613      0.023234
     15.97475     11.46379     50.06905         0.006082      0.012563      0.026145
     18.01402      0.07595     37.74381        -0.001898     -0.015470      0.021737
      0.14263      9.08755     37.77173        -0.066294      0.050173     -0.011306
      9.11014      0.02566     37.80636        -0.013733      0.006627      0.022322
      9.05114      9.01097     37.75165         0.043264      0.018671     -0.064732
      4.58250      4.51603     37.74439         0.001797     -0.031793      0.006065
      4.51995     13.58878     37.67628        -0.021010     -0.001082      0.055366
     13.47798      4.55336     37.82090         0.009326      0.016498     -0.018560
     13.42167     13.66513     37.75617        -0.006914     -0.012644     -0.085536
      0.00001      0.00001     44.04300        -0.002068     -0.150188      0.079028
     -0.00245      9.03141     44.04300         0.061055      0.011703      0.125845
      9.03041      0.00001     44.04300        -0.012231     -0.013234      0.166575
      9.02795      9.03141     44.04300         0.062352     -0.002911      0.201548
      4.51397      4.51569     44.04275         0.002172      0.043099      0.096849
      4.51151     13.54709     44.04275        -0.060268      0.023478      0.083020
     13.54437      4.51569     44.04275        -0.102790      0.025753      0.236070
     13.54191     13.54709     44.04275        -0.010729      0.007944      0.142821
      0.00000      0.00000     50.44728         0.000070     -0.005322     -0.613613
     -0.00246      9.03140     50.44728         0.000812      0.004778     -0.644900
      9.03040      0.00000     50.44728        -0.001594     -0.002572     -0.631102
      9.02794      9.03140     50.44728        -0.000010      0.002871     -0.630249
      4.51397      4.51570     50.44728         0.001349      0.006898     -0.631717
      4.51151     13.54710     50.44728        -0.000005     -0.007339     -0.633384
     13.54437      4.51570     50.44728        -0.002528      0.007491     -0.627289
     13.54191     13.54710     50.44728         0.000732     -0.007407     -0.635320
 -----------------------------------------------------------------------------------
    total drift:                                0.046177      0.019247      0.712054


--------------------------------------------------------------------------------------------------------



  FREE ENERGIE OF THE ION-ELECTRON SYSTEM (eV)
  ---------------------------------------------------
  free  energy   TOTEN  =     -1576.02571013 eV

  energy  without entropy=    -1576.02571013  energy(sigma->0) =    -1576.02571013
 


--------------------------------------------------------------------------------------------------------


    POTLOK:  cpu time    0.5016: real time    0.5017


--------------------------------------------------------------------------------------------------------


     LOOP+:  cpu time  266.6014: real time  267.2074
 vacuum level on the upper side and lower side of the slab         2.329         1.526
    4ORBIT:  cpu time    0.0000: real time    0.0000

 total amount of memory used by VASP MPI-rank0  8653577. kBytes
=======================================================================

   base      :      30000. kBytes
   nonlr-proj:      53615. kBytes
   fftplans  :     249280. kBytes
   grid      :     701440. kBytes
   one-center:       2636. kBytes
   wavefun   :    7616606. kBytes
 
  
  
 General timing and accounting informations for this job:
 ========================================================
  
                  Total CPU time used (sec):      477.042
                            User time (sec):      388.860
                          System time (sec):       88.182
                         Elapsed time (sec):      478.345
  
                   Maximum memory used (kb):    10308676.
                   Average memory used (kb):          N/A
  
                          Minor page faults:      3542758
                          Major page faults:           12
                 Voluntary context switches:        11188
