 vasp.6.2.1 16May21 (build Nov 15 2021 14:57:28) complex                         
 executed on             LinuxPGI date 2023.07.30  19:28:45
 running on    4 total cores
 distrk:  each k-point on    4 cores,    1 groups
 distr:  one band on NCORE=   1 cores,    4 groups


--------------------------------------------------------------------------------------------------------


 INCAR:
   SYSTEM = PSC
   ISTART = 1
   ICHARG = 1
   PREC = Normal
   ENCUT = 500
   GGA_COMPAT = F
   NELM = 600
   ISYM = 0
   LREAL = Auto
   ISMEAR = 0
   SIGMA = 0.05
   AMIN = 0.01
   BMIX = 0.01
   LVTOT = T
   LWAVE = F
   LDIPOL = T
   IDIPOL = 3
   LVDW = T
   IVDW = 12

 POTCAR:    PAW_PBE H 15Jun2001                   
 POTCAR:    PAW_PBE C 08Apr2002                   
 POTCAR:    PAW_PBE N 08Apr2002                   
 POTCAR:    PAW_PBE I 08Apr2002                   
 POTCAR:    PAW_PBE Pb 08Apr2002                  
 WARNING: For LVTOT=.TRUE., VASP.5.x writes the TOTAL local potential to the
     file LOCPOT. If you want only the Hartree contributions, use LVHAR=.TRUE.
     instead. 

 POTCAR:    PAW_PBE H 15Jun2001                   
   SHA256 =  030f79b5d3ab3cf0e668861823c8fb652ff669f3e15e46930bd03bfd63a607b6 H/POTCAR              
   COPYR  = (c) Copyright 15Jun2001 Georg Kresse                                                    
   COPYR  = This file is part of the software VASP. Any use, copying, and all other rights are regul
   COPYR  = If you do not have a valid VASP license, you may not use, copy or distribute this file. 
   VRHFIN =H: ultrasoft test                                                                        
   LEXCH  = PE                                                                                      
   EATOM  =    12.4884 eV,    0.9179 Ry                                                             
                                                                                                    
   TITEL  = PAW_PBE H 15Jun2001                                                                     
   LULTRA =        F    use ultrasoft PP ?                                                          
   IUNSCR =        0    unscreen: 0-lin 1-nonlin 2-no                                               
   RPACOR =    0.000    partial core radius                                                         
   POMASS =    1.000; ZVAL   =    1.000    mass and valenz                                          
   RCORE  =    1.100    outmost cutoff radius                                                       
   RWIGS  =    0.700; RWIGS  =    0.370    wigner-seitz radius (au A)                               
   ENMAX  =  250.000; ENMIN  =  200.000 eV                                                          
   RCLOC  =    0.701    cutoff for local pot                                                        
   LCOR   =        T    correct aug charges                                                         
   LPAW   =        T    paw PP                                                                      
   EAUG   =  400.000                                                                                
   RMAX   =    1.123    core radius for proj-oper                                                   
   RAUG   =    1.200    factor for augmentation sphere                                              
   RDEP   =    1.112    radius for radial grids                                                     
   RDEPT  =    0.926    core radius for aug-charge                                                  
                                                                                                    
   Atomic configuration                                                                             
    2 entries                                                                                       
     n  l   j            E        occ.                                                              
     1  0  0.50        -6.4927   1.0000                                                             
     2  1  0.50        -3.4015   0.0000                                                             
   Description                                                                                      
     l       E           TYP  RCUT    TYP  RCUT                                                     
     0     -6.4927494     23  1.100                                                                 
     0      6.8029130     23  1.100                                                                 
     1     -4.0817478     23  1.100                                                                 
  local pseudopotential read in
  atomic valenz-charges read in
  non local Contribution for L=            0  read in
    real space projection operators read in
  non local Contribution for L=            0  read in
    real space projection operators read in
  non local Contribution for L=            1  read in
    real space projection operators read in
    PAW grid and wavefunctions read in
 
   number of l-projection  operators is LMAX  =            3
   number of lm-projection operators is LMMAX =            5
 
 POTCAR:    PAW_PBE C 08Apr2002                   
   SHA256 =  253f7b50bb8d59471dbedb8285d89021f4a42ed1a2c5d38a03a736e69125dd95 C/POTCAR              
   COPYR  = (c) Copyright 08Apr2002 Georg Kresse                                                    
   COPYR  = This file is part of the software VASP. Any use, copying, and all other rights are regul
   COPYR  = If you do not have a valid VASP license, you may not use, copy or distribute this file. 
   VRHFIN =C: s2p2                                                                                  
   LEXCH  = PE                                                                                      
   EATOM  =   147.1560 eV,   10.8157 Ry                                                             
                                                                                                    
   TITEL  = PAW_PBE C 08Apr2002                                                                     
   LULTRA =        F    use ultrasoft PP ?                                                          
   IUNSCR =        1    unscreen: 0-lin 1-nonlin 2-no                                               
   RPACOR =    1.200    partial core radius                                                         
   POMASS =   12.011; ZVAL   =    4.000    mass and valenz                                          
   RCORE  =    1.500    outmost cutoff radius                                                       
   RWIGS  =    1.630; RWIGS  =    0.863    wigner-seitz radius (au A)                               
   ENMAX  =  400.000; ENMIN  =  300.000 eV                                                          
   ICORE  =        2    local potential                                                             
   LCOR   =        T    correct aug charges                                                         
   LPAW   =        T    paw PP                                                                      
   EAUG   =  644.873                                                                                
   DEXC   =    0.000                                                                                
   RMAX   =    1.529    core radius for proj-oper                                                   
   RAUG   =    1.300    factor for augmentation sphere                                              
   RDEP   =    1.501    radius for radial grids                                                     
   RDEPT  =    1.300    core radius for aug-charge                                                  
                                                                                                    
   Atomic configuration                                                                             
    4 entries                                                                                       
     n  l   j            E        occ.                                                              
     1  0  0.50      -273.3789   2.0000                                                             
     2  0  0.50       -13.7508   2.0000                                                             
     2  1  0.50        -5.2854   2.0000                                                             
     3  2  1.50        -5.4423   0.0000                                                             
   Description                                                                                      
     l       E           TYP  RCUT    TYP  RCUT                                                     
     0    -13.7508458     23  1.200                                                                 
     0     -8.2022199     23  1.200                                                                 
     1     -5.2854383     23  1.500                                                                 
     1     34.0145650     23  1.500                                                                 
     2     -5.4423304      7  1.500                                                                 
  local pseudopotential read in
  partial core-charges read in
  partial kinetic energy density read in
  atomic valenz-charges read in
  non local Contribution for L=            0  read in
    real space projection operators read in
  non local Contribution for L=            0  read in
    real space projection operators read in
  non local Contribution for L=            1  read in
    real space projection operators read in
  non local Contribution for L=            1  read in
    real space projection operators read in
    PAW grid and wavefunctions read in
 
   number of l-projection  operators is LMAX  =            4
   number of lm-projection operators is LMMAX =            8
 
 POTCAR:    PAW_PBE N 08Apr2002                   
   SHA256 =  e053789ff3a61a86a1b75d8a110fcc91f86041011e7b0817c7c99e4e8a6349d7 N/POTCAR              
   COPYR  = (c) Copyright 08Apr2002 Georg Kresse                                                    
   COPYR  = This file is part of the software VASP. Any use, copying, and all other rights are regul
   COPYR  = If you do not have a valid VASP license, you may not use, copy or distribute this file. 
   VRHFIN =N: s2p3                                                                                  
   LEXCH  = PE                                                                                      
   EATOM  =   264.5486 eV,   19.4438 Ry                                                             
                                                                                                    
   TITEL  = PAW_PBE N 08Apr2002                                                                     
   LULTRA =        F    use ultrasoft PP ?                                                          
   IUNSCR =        1    unscreen: 0-lin 1-nonlin 2-no                                               
   RPACOR =    1.200    partial core radius                                                         
   POMASS =   14.001; ZVAL   =    5.000    mass and valenz                                          
   RCORE  =    1.500    outmost cutoff radius                                                       
   RWIGS  =    1.400; RWIGS  =    0.741    wigner-seitz radius (au A)                               
   ENMAX  =  400.000; ENMIN  =  300.000 eV                                                          
   ICORE  =        2    local potential                                                             
   LCOR   =        T    correct aug charges                                                         
   LPAW   =        T    paw PP                                                                      
   EAUG   =  627.112                                                                                
   DEXC   =    0.000                                                                                
   RMAX   =    1.529    core radius for proj-oper                                                   
   RAUG   =    1.300    factor for augmentation sphere                                              
   RDEP   =    1.514    radius for radial grids                                                     
   RDEPT  =    1.338    core radius for aug-charge                                                  
                                                                                                    
   Atomic configuration                                                                             
    4 entries                                                                                       
     n  l   j            E        occ.                                                              
     1  0  0.50      -384.7179   2.0000                                                             
     2  0  0.50       -18.5828   2.0000                                                             
     2  1  0.50        -7.0898   3.0000                                                             
     3  2  1.50        -6.8029   0.0000                                                             
   Description                                                                                      
     l       E           TYP  RCUT    TYP  RCUT                                                     
     0    -18.5828119     23  1.200                                                                 
     0    -13.5018863     23  1.200                                                                 
     1     -7.0897853     23  1.500                                                                 
     1      9.5240782     23  1.500                                                                 
     2     -6.8029130      7  1.500                                                                 
  local pseudopotential read in
  partial core-charges read in
  partial kinetic energy density read in
  atomic valenz-charges read in
  non local Contribution for L=            0  read in
    real space projection operators read in
  non local Contribution for L=            0  read in
    real space projection operators read in
  non local Contribution for L=            1  read in
    real space projection operators read in
  non local Contribution for L=            1  read in
    real space projection operators read in
    PAW grid and wavefunctions read in
 
   number of l-projection  operators is LMAX  =            4
   number of lm-projection operators is LMMAX =            8
 
 POTCAR:    PAW_PBE I 08Apr2002                   
   SHA256 =  e40f3f59b681c1fc3e3091736183c4589116986673d2b852a5012aec72758799 I/POTCAR              
   COPYR  = (c) Copyright 08Apr2002 Georg Kresse                                                    
   COPYR  = This file is part of the software VASP. Any use, copying, and all other rights are regul
   COPYR  = If you do not have a valid VASP license, you may not use, copy or distribute this file. 
   VRHFIN =I : s2p5                                                                                 
   LEXCH  = PE                                                                                      
   EATOM  =   315.8678 eV,   23.2156 Ry                                                             
                                                                                                    
   TITEL  = PAW_PBE I 08Apr2002                                                                     
   LULTRA =        F    use ultrasoft PP ?                                                          
   IUNSCR =        1    unscreen: 0-lin 1-nonlin 2-no                                               
   RPACOR =    2.200    partial core radius                                                         
   POMASS =  126.904; ZVAL   =    7.000    mass and valenz                                          
   RCORE  =    2.300    outmost cutoff radius                                                       
   RWIGS  =    2.810; RWIGS  =    1.487    wigner-seitz radius (au A)                               
   ENMAX  =  175.647; ENMIN  =  131.735 eV                                                          
   ICORE  =        3    local potential                                                             
   LCOR   =        T    correct aug charges                                                         
   LPAW   =        T    paw PP                                                                      
   EAUG   =  370.139                                                                                
   DEXC   =    0.000                                                                                
   RMAX   =    2.359    core radius for proj-oper                                                   
   RAUG   =    1.300    factor for augmentation sphere                                              
   RDEP   =    2.392    radius for radial grids                                                     
   RDEPT  =    2.170    core radius for aug-charge                                                  
                                                                                                    
   Atomic configuration                                                                             
   13 entries                                                                                       
     n  l   j            E        occ.                                                              
     1  0  0.50    -32976.3739   2.0000                                                             
     2  0  0.50     -5094.5933   2.0000                                                             
     2  1  1.50     -4572.0131   6.0000                                                             
     3  0  0.50     -1028.2813   2.0000                                                             
     3  1  1.50      -859.0250   6.0000                                                             
     3  2  2.50      -605.7620  10.0000                                                             
     4  0  0.50      -180.5540   2.0000                                                             
     4  1  1.50      -127.5306   6.0000                                                             
     4  2  2.50       -50.2720  10.0000                                                             
     5  0  0.50       -17.4058   2.0000                                                             
     5  1  0.50        -7.0851   5.0000                                                             
     5  2  1.50        -7.0750   0.0000                                                             
     4  3  2.50        -7.0750   0.0000                                                             
   Description                                                                                      
     l       E           TYP  RCUT    TYP  RCUT                                                     
     0    -17.4058016     23  2.300                                                                 
     0    -18.7663842     23  2.300                                                                 
     1     -7.0850686     23  2.300                                                                 
     1     -4.2150896     23  2.300                                                                 
     2     -7.0750295     23  2.300                                                                 
     3     -1.3605826     23  2.300                                                                 
  local pseudopotential read in
  partial core-charges read in
  partial kinetic energy density read in
  atomic valenz-charges read in
  non local Contribution for L=            0  read in
    real space projection operators read in
  non local Contribution for L=            0  read in
    real space projection operators read in
  non local Contribution for L=            1  read in
    real space projection operators read in
  non local Contribution for L=            1  read in
    real space projection operators read in
  non local Contribution for L=            2  read in
    real space projection operators read in
    PAW grid and wavefunctions read in
 
   number of l-projection  operators is LMAX  =            5
   number of lm-projection operators is LMMAX =           13
 
 POTCAR:    PAW_PBE Pb 08Apr2002                  
   SHA256 =  797118a27cf1bcd06b9881c67a26cdde129e3cd1a551dd4a281f9681ce847303 Pb/POTCAR             
   COPYR  = (c) Copyright 08Apr2002 Georg Kresse                                                    
   COPYR  = This file is part of the software VASP. Any use, copying, and all other rights are regul
   COPYR  = If you do not have a valid VASP license, you may not use, copy or distribute this file. 
   VRHFIN =Pb:                                                                                      
   LEXCH  = PE                                                                                      
   EATOM  =    96.9868 eV,    7.1283 Ry                                                             
                                                                                                    
   TITEL  = PAW_PBE Pb 08Apr2002                                                                    
   LULTRA =        F    use ultrasoft PP ?                                                          
   IUNSCR =        1    unscreen: 0-lin 1-nonlin 2-no                                               
   RPACOR =    2.200    partial core radius                                                         
   POMASS =  207.200; ZVAL   =    4.000    mass and valenz                                          
   RCORE  =    3.100    outmost cutoff radius                                                       
   RWIGS  =    3.260; RWIGS  =    1.725    wigner-seitz radius (au A)                               
   ENMAX  =   97.973; ENMIN  =   73.480 eV                                                          
   ICORE  =        3    local potential                                                             
   LCOR   =        T    correct aug charges                                                         
   LPAW   =        T    paw PP                                                                      
   EAUG   =  234.873                                                                                
   DEXC   =    0.000                                                                                
   RMAX   =    3.158    core radius for proj-oper                                                   
   RAUG   =    1.300    factor for augmentation sphere                                              
   RDEP   =    3.202    radius for radial grids                                                     
   RDEPT  =    2.659    core radius for aug-charge                                                  
                                                                                                    
   Atomic configuration                                                                             
   17 entries                                                                                       
     n  l   j            E        occ.                                                              
     1  0  0.50    -88091.8466   2.0000                                                             
     2  0  0.50    -15753.4197   2.0000                                                             
     2  1  1.50    -13508.1797   6.0000                                                             
     3  0  0.50     -3781.7194   2.0000                                                             
     3  1  1.50     -3138.2529   6.0000                                                             
     3  2  2.50     -2483.2977  10.0000                                                             
     4  0  0.50      -856.2895   2.0000                                                             
     4  1  1.50      -645.4943   6.0000                                                             
     4  2  2.50      -401.8768  10.0000                                                             
     4  3  3.50      -132.9059  14.0000                                                             
     5  0  0.50      -144.0950   2.0000                                                             
     5  1  1.50       -85.7879   6.0000                                                             
     5  2  2.50       -21.1769  10.0000                                                             
     6  0  0.50       -12.0372   2.0000                                                             
     6  1  1.50        -3.4971   2.0000                                                             
     6  2  2.50        -1.3606   0.0000                                                             
     5  3  2.50        -2.7212   0.0000                                                             
   Description                                                                                      
     l       E           TYP  RCUT    TYP  RCUT                                                     
     0    -12.0371566     23  3.100                                                                 
     0    -13.3977392     23  3.100                                                                 
     1     -3.4971341     23  3.100                                                                 
     1     -5.4423304     23  3.100                                                                 
     2     -1.3605826     23  3.100                                                                 
     3     -1.3605826     23  3.100                                                                 
  local pseudopotential read in
  partial core-charges read in
  partial kinetic energy density read in
  atomic valenz-charges read in
  non local Contribution for L=            0  read in
    real space projection operators read in
  non local Contribution for L=            0  read in
    real space projection operators read in
  non local Contribution for L=            1  read in
    real space projection operators read in
  non local Contribution for L=            1  read in
    real space projection operators read in
  non local Contribution for L=            2  read in
    real space projection operators read in
    PAW grid and wavefunctions read in
 
   number of l-projection  operators is LMAX  =            5
   number of lm-projection operators is LMMAX =           13
 
 Optimization of the real space projectors (new method)

 maximal supplied QI-value         = 34.20
 optimisation between [QCUT,QGAM] = [ 11.29, 22.57] = [ 35.68,142.71] Ry 
 Optimized for a Real-space Cutoff    1.16 Angstroem

   l    n(q)    QCUT    max X(q) W(low)/X(q) W(high)/X(q)  e(spline) 
   0      8    11.287    19.460    0.40E-03    0.73E-03    0.16E-06
   0      8    11.287    12.209    0.38E-03    0.70E-03    0.15E-06
   1      7    11.287     4.655    0.22E-03    0.25E-04    0.22E-06
 Optimization of the real space projectors (new method)

 maximal supplied QI-value         = 25.13
 optimisation between [QCUT,QGAM] = [ 11.31, 22.87] = [ 35.82,146.48] Ry 
 Optimized for a Real-space Cutoff    1.00 Angstroem

   l    n(q)    QCUT    max X(q) W(low)/X(q) W(high)/X(q)  e(spline) 
   0      7    11.310   115.676    0.43E-03    0.13E-02    0.19E-06
   0      7    11.310    87.132    0.43E-03    0.13E-02    0.18E-06
   1      6    11.310     4.429    0.42E-03    0.74E-03    0.11E-06
   1      6    11.310     2.733    0.34E-03    0.55E-03    0.92E-07
 Optimization of the real space projectors (new method)

 maximal supplied QI-value         = 25.13
 optimisation between [QCUT,QGAM] = [ 11.31, 22.87] = [ 35.82,146.48] Ry 
 Optimized for a Real-space Cutoff    1.27 Angstroem

   l    n(q)    QCUT    max X(q) W(low)/X(q) W(high)/X(q)  e(spline) 
   0      9    11.310    79.467    0.75E-04    0.16E-03    0.36E-06
   0      9    11.310    66.151    0.74E-04    0.16E-03    0.36E-06
   1      8    11.310    17.416    0.35E-03    0.12E-03    0.95E-06
   1      8    11.310    12.382    0.37E-03    0.13E-03    0.98E-06
 Optimization of the real space projectors (new method)

 maximal supplied QI-value         = 16.25
 optimisation between [QCUT,QGAM] = [ 11.38, 22.75] = [ 36.24,144.96] Ry 
 Optimized for a Real-space Cutoff    1.31 Angstroem

   l    n(q)    QCUT    max X(q) W(low)/X(q) W(high)/X(q)  e(spline) 
   0      9    11.376   194.483    0.24E-03    0.23E-03    0.67E-07
   0      9    11.376   190.334    0.23E-03    0.22E-03    0.65E-07
   1      8    11.376   116.687    0.25E-03    0.63E-04    0.16E-06
   1      8    11.376    88.696    0.25E-03    0.61E-04    0.16E-06
   2      8    11.376     4.877    0.17E-03    0.14E-03    0.29E-07
 Optimization of the real space projectors (new method)

 maximal supplied QI-value         = 12.09
 optimisation between [QCUT,QGAM] = [ 11.37, 22.86] = [ 36.19,146.31] Ry 
 Optimized for a Real-space Cutoff    1.66 Angstroem

   l    n(q)    QCUT    max X(q) W(low)/X(q) W(high)/X(q)  e(spline) 
   0     11    11.369   135.111    0.12E-03    0.69E-04    0.19E-05
   0     11    11.369   146.850    0.11E-03    0.65E-04    0.18E-05
   1     11    11.369   148.016    0.17E-03    0.32E-03    0.89E-06
   1     11    11.369   122.989    0.17E-03    0.32E-03    0.91E-06
   2     10    11.369     8.916    0.12E-03    0.45E-04    0.33E-06
  PAW_PBE H 15Jun2001                   :
 energy of atom  1       EATOM=  -12.4884
 kinetic energy error for atom=    0.0020 (will be added to EATOM!!)
  PAW_PBE C 08Apr2002                   :
 energy of atom  2       EATOM= -147.1560
 kinetic energy error for atom=    0.0076 (will be added to EATOM!!)
  PAW_PBE N 08Apr2002                   :
 energy of atom  3       EATOM= -264.5486
 kinetic energy error for atom=    0.0138 (will be added to EATOM!!)
  PAW_PBE I 08Apr2002                   :
 energy of atom  4       EATOM= -315.8678
 kinetic energy error for atom=    0.0009 (will be added to EATOM!!)
  PAW_PBE Pb 08Apr2002                  :
 energy of atom  5       EATOM=  -96.9868
 kinetic energy error for atom=    0.0000 (will be added to EATOM!!)
 
 
 POSCAR:  H  C  N  I Pb
  positions in cartesian coordinates
  No initial velocities read in
 exchange correlation table for  LEXCH =        8
   RHO(1)=    0.500       N(1)  =     2000
   RHO(2)=  100.500       N(2)  =     4000
 


--------------------------------------------------------------------------------------------------------


 ion  position               nearest neighbor table
   1  0.462  0.327  0.575- 187 1.03
   2  0.450  0.842  0.574- 188 1.04
   3  0.920  0.243  0.581- 189 1.03
   4  0.943  0.808  0.579- 190 1.02
   5  0.306  0.065  0.575- 194 1.04
   6  0.323  0.571  0.576- 195 1.04
   7  0.795  0.079  0.578- 196 1.04
   8  0.106  0.243  0.559- 183 1.02
   9  0.095  0.679  0.568- 184 1.02
  10  0.565  0.167  0.557- 185 1.02
  11  0.494  0.650  0.565- 186 1.03
  12  0.363  0.007  0.559- 194 1.01
  13  0.274  0.626  0.558- 195 1.02
  14  0.868  0.027  0.567- 196 1.02
  15  0.058  0.234  0.583- 183 1.03
  16  0.021  0.693  0.586- 184 1.02
  17  0.573  0.248  0.572- 185 1.02
  18  0.463  0.708  0.585- 186 1.03
  19  0.282  0.439  0.578- 191 1.05
  20  0.170  0.043  0.572- 192 1.05
  21  0.671  0.023  0.576- 193 1.04
  22  0.382  0.294  0.561- 187 1.03
  23  0.491  0.869  0.550- 188 1.03
  24  0.879  0.241  0.556- 189 1.03
  25  0.978  0.868  0.560- 190 1.03
  26  0.205  0.414  0.563- 191 1.00
  27  0.141  0.974  0.554- 192 1.02
  28  0.667  0.935  0.563- 193 1.01
  29  0.442  0.189  0.548- 146 1.09
  30  0.522  0.745  0.541- 147 1.10
  31  0.996  0.248  0.539- 144 1.07
  32  0.071  0.789  0.549- 145 1.09
  33  0.193  0.531  0.548- 148 1.10
  34  0.263  0.942  0.544- 149 1.09
  35  0.788  0.931  0.555- 150 1.09
  36  0.464  0.311  0.674- 205 1.02
  37  0.436  0.810  0.674- 206 1.03
  38  0.955  0.279  0.678- 207 1.01
  39  0.924  0.773  0.674- 208 1.04
  40  0.306  0.055  0.673- 209 1.02
  41  0.294  0.541  0.678- 210 1.02
  42  0.790  0.054  0.675- 211 1.02
  43  0.849  0.493  0.667- 212 1.02
  44  0.089  0.174  0.646- 197 1.03
  45  0.097  0.692  0.653- 198 1.03
  46  0.578  0.168  0.649- 199 1.02
  47  0.573  0.676  0.654- 200 1.02
  48  0.178  0.412  0.647- 201 1.03
  49  0.175  0.924  0.649- 202 1.02
  50  0.649  0.480  0.659- 203 1.03
  51  0.673  0.913  0.650- 204 1.02
  52  0.062  0.184  0.672- 197 1.03
  53  0.036  0.682  0.675- 198 1.03
  54  0.570  0.214  0.673- 199 1.02
  55  0.535  0.706  0.678- 200 1.03
  56  0.200  0.433  0.673- 201 1.03
  57  0.202  0.957  0.675- 202 1.02
  58  0.722  0.437  0.673- 203 1.03
  59  0.696  0.947  0.675- 204 1.02
  60  0.413  0.319  0.650- 205 1.02
  61  0.420  0.835  0.647- 206 1.02
  62  0.925  0.320  0.655- 207 1.01
  63  0.923  0.832  0.652- 208 1.02
  64  0.336  0.077  0.647- 209 1.03
  65  0.322  0.582  0.654- 210 1.04
  66  0.824  0.078  0.649- 211 1.03
  67  0.855  0.558  0.647- 212 1.01
  68  0.004  0.261  0.633- 151 1.10
  69  0.030  0.787  0.637- 152 1.09
  70  0.481  0.229  0.633- 153 1.10
  71  0.506  0.753  0.633- 154 1.09
  72  0.255  0.996  0.631- 156 1.09
  73  0.251  0.504  0.633- 155 1.09
  74  0.752  0.992  0.632- 158 1.09
  75  0.726  0.557  0.640- 157 1.09
  76  0.449  0.301  0.769- 221 1.02
  77  0.449  0.801  0.769- 222 1.02
  78  0.949  0.301  0.769- 223 1.02
  79  0.949  0.801  0.769- 224 1.02
  80  0.301  0.051  0.769- 225 1.02
  81  0.301  0.551  0.769- 226 1.02
  82  0.801  0.051  0.769- 227 1.02
  83  0.801  0.551  0.769- 228 1.02
  84  0.079  0.171  0.743- 213 1.02
  85  0.079  0.671  0.743- 214 1.02
  86  0.579  0.171  0.743- 215 1.02
  87  0.579  0.671  0.743- 216 1.02
  88  0.171  0.421  0.743- 217 1.02
  89  0.171  0.921  0.743- 218 1.02
  90  0.671  0.421  0.743- 219 1.02
  91  0.671  0.921  0.743- 220 1.02
  92  0.051  0.199  0.769- 213 1.02
  93  0.051  0.699  0.769- 214 1.02
  94  0.551  0.199  0.769- 215 1.02
  95  0.551  0.699  0.769- 216 1.02
  96  0.199  0.449  0.769- 217 1.02
  97  0.199  0.949  0.769- 218 1.02
  98  0.699  0.449  0.769- 219 1.02
  99  0.699  0.949  0.769- 220 1.02
 100  0.421  0.329  0.743- 221 1.02
 101  0.421  0.829  0.743- 222 1.02
 102  0.921  0.329  0.743- 223 1.02
 103  0.921  0.829  0.743- 224 1.02
 104  0.329  0.079  0.743- 225 1.02
 105  0.329  0.579  0.743- 226 1.02
 106  0.829  0.079  0.743- 227 1.02
 107  0.829  0.579  0.743- 228 1.02
 108  0.000  0.250  0.726- 161 1.09
 109  0.000  0.750  0.726- 162 1.09
 110  0.500  0.250  0.726- 159 1.09
 111  0.500  0.750  0.726- 160 1.09
 112  0.250  0.000  0.726- 163 1.09
 113  0.250  0.500  0.726- 164 1.09
 114  0.750  0.000  0.726- 165 1.09
 115  0.750  0.500  0.726- 166 1.09
 116  0.718  0.438  0.542- 173 1.10
 117  0.736  0.496  0.520- 173 1.10
 118  0.654  0.553  0.561- 174 1.10
 119  0.706  0.636  0.559- 174 1.10
 120  0.845  0.503  0.572- 175 1.10
 121  0.783  0.571  0.582- 175 1.10
 122  0.866  0.559  0.532- 176 1.09
 123  0.793  0.625  0.527- 176 1.09
 124  0.868  0.465  0.519- 177 1.11
 125  0.864  0.426  0.545- 177 1.10
 126  0.873  0.329  0.519- 178 1.10
 127  0.784  0.323  0.531- 178 1.10
 128  0.639  0.550  0.521- 179 1.09
 129  0.690  0.634  0.519- 179 1.09
 130  0.605  0.632  0.533- 179 1.10
 131  0.753  0.452  0.598- 180 1.10
 132  0.747  0.405  0.574- 180 1.10
 133  0.679  0.472  0.581- 180 1.10
 134  0.824  0.687  0.562- 181 1.10
 135  0.897  0.683  0.544- 181 1.10
 136  0.899  0.621  0.566- 181 1.10
 137  0.817  0.387  0.486- 182 1.09
 138  0.785  0.298  0.492- 182 1.09
 139  0.663  0.319  0.522- 168 1.10
 140  0.730  0.461  0.470- 169 1.09
 141  0.537  0.376  0.522- 170 1.10
 142  0.605  0.517  0.469- 171 1.09
 143  0.508  0.474  0.495- 172 1.08
 144  0.993  0.244  0.556-  31 1.07 183 1.32 189 1.32
 145  0.035  0.772  0.562-  32 1.09 190 1.31 184 1.32
 146  0.472  0.229  0.558-  29 1.09 185 1.31 187 1.33
 147  0.497  0.758  0.557-  30 1.10 186 1.31 188 1.32
 148  0.237  0.520  0.559-  33 1.10 195 1.31 191 1.33
 149  0.253  0.987  0.555-  34 1.09 192 1.31 194 1.33
 150  0.768  0.980  0.564-  35 1.09 196 1.31 193 1.33
 151  0.007  0.247  0.650-  68 1.10 197 1.30 207 1.32
 152  0.011  0.762  0.652-  69 1.09 198 1.30 208 1.32
 153  0.496  0.243  0.649-  70 1.10 199 1.30 205 1.32
 154  0.497  0.755  0.650-  71 1.09 200 1.30 206 1.32
 155  0.250  0.497  0.650-  73 1.09 210 1.31 201 1.31
 156  0.255  0.000  0.648-  72 1.09 202 1.31 209 1.32
 157  0.751  0.520  0.652-  75 1.09 212 1.32 203 1.32
 158  0.748  0.995  0.649-  74 1.09 204 1.31 211 1.33
 159  0.500  0.250  0.743- 110 1.09 221 1.31 215 1.31
 160  0.500  0.750  0.743- 111 1.09 222 1.31 216 1.31
 161  1.000  0.250  0.743- 108 1.09 223 1.31 213 1.31
 162  1.000  0.750  0.743- 109 1.09 224 1.31 214 1.31
 163  0.250  0.000  0.743- 112 1.09 225 1.31 218 1.31
 164  0.250  0.500  0.743- 113 1.09 226 1.31 217 1.31
 165  0.750  0.000  0.743- 114 1.09 227 1.31 220 1.31
 166  0.750  0.500  0.743- 115 1.09 228 1.31 219 1.31
 167  0.706  0.387  0.497- 169 1.40 168 1.41 182 1.51
 168  0.650  0.362  0.511- 139 1.10 170 1.40 167 1.41
 169  0.688  0.442  0.482- 140 1.09 167 1.40 171 1.40
 170  0.579  0.394  0.510- 141 1.10 168 1.40 172 1.41
 171  0.617  0.474  0.481- 142 1.09 172 1.40 169 1.40
 172  0.563  0.450  0.495- 143 1.08 171 1.40 170 1.41
 173  0.759  0.475  0.535- 117 1.10 116 1.10 229 1.52 177 1.55
 174  0.693  0.584  0.550- 119 1.10 118 1.10 179 1.51 229 1.54
 175  0.787  0.520  0.572- 120 1.10 121 1.10 180 1.52 229 1.53
 176  0.824  0.594  0.539- 122 1.09 123 1.09 181 1.52 229 1.54
 177  0.832  0.433  0.530- 125 1.10 124 1.11 178 1.53 173 1.55
 178  0.818  0.356  0.520- 127 1.10 126 1.10 177 1.53 182 1.54
 179  0.656  0.600  0.529- 129 1.09 128 1.09 130 1.10 174 1.51
 180  0.739  0.459  0.581- 131 1.10 133 1.10 132 1.10 175 1.52
 181  0.862  0.649  0.554- 134 1.10 136 1.10 135 1.10 176 1.52
 182  0.783  0.356  0.498- 137 1.09 138 1.09 167 1.51 178 1.54
 183  0.056  0.238  0.566-   8 1.02  15 1.03 144 1.32
 184  0.051  0.710  0.573-  16 1.02   9 1.02 145 1.32
 185  0.542  0.215  0.562-  10 1.02  17 1.02 146 1.31
 186  0.488  0.703  0.571-  18 1.03  11 1.03 147 1.31
 187  0.437  0.290  0.564-  22 1.03   1 1.03 146 1.33
 188  0.478  0.827  0.561-  23 1.03   2 1.04 147 1.32
 189  0.927  0.246  0.565-   3 1.03  24 1.03 144 1.32
 190  0.979  0.815  0.567-   4 1.02  25 1.03 145 1.31
 191  0.241  0.453  0.567-  26 1.00  19 1.05 148 1.33
 192  0.184  0.001  0.561-  27 1.02  20 1.05 149 1.31
 193  0.695  0.981  0.567-  28 1.01  21 1.04 150 1.33
 194  0.311  0.023  0.563-  12 1.01   5 1.04 149 1.33
 195  0.282  0.575  0.564-  13 1.02   6 1.04 148 1.31
 196  0.813  0.032  0.570-  14 1.02   7 1.04 150 1.31
 197  0.055  0.199  0.657-  52 1.03  44 1.03 151 1.30
 198  0.049  0.709  0.661-  45 1.03  53 1.03 152 1.30
 199  0.551  0.207  0.658-  54 1.02  46 1.02 153 1.30
 200  0.537  0.710  0.662-  47 1.02  55 1.03 154 1.30
 201  0.207  0.444  0.657-  48 1.03  56 1.03 155 1.31
 202  0.208  0.958  0.658-  49 1.02  57 1.02 156 1.31
 203  0.705  0.474  0.662-  50 1.03  58 1.03 157 1.32
 204  0.703  0.949  0.659-  51 1.02  59 1.02 158 1.31
 205  0.456  0.295  0.659-  36 1.02  60 1.02 153 1.32
 206  0.448  0.803  0.658-  61 1.02  37 1.03 154 1.32
 207  0.959  0.284  0.662-  62 1.01  38 1.01 151 1.32
 208  0.950  0.791  0.660-  63 1.02  39 1.04 152 1.32
 209  0.302  0.047  0.657-  40 1.02  64 1.03 156 1.32
 210  0.291  0.542  0.661-  41 1.02  65 1.04 155 1.31
 211  0.790  0.046  0.659-  42 1.02  66 1.03 158 1.33
 212  0.823  0.523  0.655-  67 1.01  43 1.02 157 1.32
 213  0.046  0.204  0.753-  92 1.02  84 1.02 161 1.31
 214  0.046  0.704  0.753-  93 1.02  85 1.02 162 1.31
 215  0.546  0.204  0.753-  94 1.02  86 1.02 159 1.31
 216  0.546  0.704  0.753-  95 1.02  87 1.02 160 1.31
 217  0.204  0.454  0.753-  96 1.02  88 1.02 164 1.31
 218  0.204  0.954  0.753-  97 1.02  89 1.02 163 1.31
 219  0.704  0.454  0.753-  98 1.02  90 1.02 166 1.31
 220  0.704  0.954  0.753-  99 1.02  91 1.02 165 1.31
 221  0.454  0.296  0.753-  76 1.02 100 1.02 159 1.31
 222  0.454  0.796  0.753-  77 1.02 101 1.02 160 1.31
 223  0.954  0.296  0.753-  78 1.02 102 1.02 161 1.31
 224  0.954  0.796  0.753-  79 1.02 103 1.02 162 1.31
 225  0.296  0.046  0.753-  80 1.02 104 1.02 163 1.31
 226  0.296  0.546  0.753-  81 1.02 105 1.02 164 1.31
 227  0.796  0.046  0.753-  82 1.02 106 1.02 165 1.31
 228  0.796  0.546  0.753-  83 1.02 107 1.02 166 1.31
 229  0.766  0.541  0.549- 173 1.52 175 1.53 176 1.54 174 1.54
 230  0.503  0.017  0.553- 304 3.27
 231  0.483  0.513  0.556- 305 3.07
 232  0.995  0.005  0.552- 302 3.32
 233  0.035  0.506  0.554- 303 3.19
 234  0.246  0.249  0.554- 306 3.19
 235  0.245  0.764  0.553- 307 3.19
 236  0.740  0.212  0.557- 308 3.19
 237  0.705  0.793  0.550- 309 3.33
 238  0.005  0.997  0.655- 302 3.09 310 3.14
 239  0.013  0.491  0.656- 311 3.08 303 3.24
 240  0.502  0.001  0.655- 304 3.11 312 3.12
 241  0.503  0.494  0.655- 313 3.10 305 3.18
 242  0.257  0.245  0.655- 306 3.12 314 3.15
 243  0.251  0.753  0.655- 315 3.13 307 3.19
 244  0.747  0.259  0.655- 316 3.09 308 3.10
 245  0.749  0.745  0.654- 317 3.18 309 3.27
 246  0.139  0.114  0.607- 306 3.19 302 3.27
 247  0.146  0.612  0.611- 303 3.20 307 3.20
 248  0.645  0.111  0.610- 304 3.19 308 3.26
 249  0.623  0.626  0.614- 305 3.21 309 3.23
 250  0.360  0.392  0.610- 305 3.22 306 3.24
 251  0.374  0.882  0.606- 304 3.24 307 3.25
 252  0.885  0.370  0.613- 308 3.23 303 3.33
 253  0.868  0.882  0.610- 302 3.21 309 3.29
 254  0.116  0.362  0.609- 306 3.13 303 3.31
 255  0.120  0.876  0.608- 307 3.16 302 3.23
 256  0.590  0.344  0.605- 308 3.23 305 3.32
 257  0.612  0.864  0.610- 309 3.04 304 3.25
 258  0.383  0.133  0.607- 304 3.17 306 3.23
 259  0.380  0.635  0.614- 305 3.24 307 3.32
 260  0.889  0.143  0.614- 302 3.21 308 3.34
 261  0.911  0.650  0.617- 303 3.19 309 3.79
 262  0.000  0.000  0.755- 310 3.13 318 3.27
 263  0.000  0.500  0.755- 311 3.13 319 3.27
 264  0.500  0.000  0.755- 312 3.13 320 3.27
 265  0.500  0.500  0.755- 313 3.13 321 3.27
 266  0.250  0.250  0.755- 314 3.13 322 3.27
 267  0.250  0.750  0.755- 315 3.13 323 3.27
 268  0.750  0.250  0.755- 316 3.13 324 3.27
 269  0.750  0.750  0.755- 317 3.13 325 3.27
 270  0.136  0.114  0.705- 310 3.20 314 3.20
 271  0.136  0.614  0.705- 311 3.20 315 3.20
 272  0.636  0.114  0.705- 312 3.20 316 3.20
 273  0.636  0.614  0.705- 313 3.20 317 3.20
 274  0.364  0.386  0.705- 313 3.20 314 3.20
 275  0.364  0.886  0.705- 312 3.20 315 3.20
 276  0.864  0.386  0.705- 311 3.20 316 3.20
 277  0.864  0.886  0.705- 310 3.20 317 3.20
 278  0.114  0.364  0.705- 314 3.21 311 3.21
 279  0.114  0.864  0.705- 315 3.21 310 3.21
 280  0.614  0.364  0.705- 316 3.21 313 3.21
 281  0.614  0.864  0.705- 317 3.21 312 3.21
 282  0.386  0.136  0.705- 314 3.21 312 3.21
 283  0.386  0.636  0.705- 315 3.21 313 3.21
 284  0.886  0.136  0.705- 316 3.21 310 3.21
 285  0.886  0.636  0.705- 317 3.21 311 3.21
 286  0.135  0.115  0.801- 318 3.22 322 3.22
 287  0.135  0.615  0.801- 319 3.22 323 3.22
 288  0.635  0.115  0.801- 320 3.22 324 3.22
 289  0.635  0.615  0.801- 321 3.22 325 3.22
 290  0.365  0.385  0.801- 321 3.22 322 3.22
 291  0.365  0.885  0.801- 320 3.22 323 3.22
 292  0.865  0.385  0.801- 319 3.22 324 3.22
 293  0.865  0.885  0.801- 318 3.22 325 3.22
 294  0.115  0.365  0.801- 319 3.23 322 3.23
 295  0.115  0.865  0.801- 318 3.23 323 3.23
 296  0.615  0.365  0.801- 321 3.23 324 3.23
 297  0.615  0.865  0.801- 320 3.23 325 3.23
 298  0.385  0.135  0.801- 320 3.23 322 3.23
 299  0.385  0.635  0.801- 321 3.23 323 3.23
 300  0.885  0.135  0.801- 318 3.23 324 3.23
 301  0.885  0.635  0.801- 319 3.23 325 3.23
 302  0.996  0.004  0.605- 238 3.09 260 3.21 253 3.21 255 3.23 246 3.27 232 3.32
 303  0.005  0.507  0.604- 233 3.19 261 3.19 247 3.20 239 3.24 254 3.31 252 3.33
 304  0.504  0.006  0.605- 240 3.11 258 3.17 248 3.19 251 3.24 257 3.25 230 3.27
 305  0.498  0.503  0.604- 231 3.07 241 3.18 249 3.21 250 3.22 259 3.24 256 3.32
 306  0.249  0.252  0.605- 242 3.12 254 3.13 234 3.19 246 3.19 258 3.23 250 3.24
 307  0.247  0.756  0.604- 255 3.16 243 3.19 235 3.19 247 3.20 251 3.25 259 3.32
 308  0.747  0.259  0.606- 244 3.10 236 3.19 256 3.23 252 3.23 248 3.26 260 3.34
 309  0.738  0.757  0.602- 257 3.04 249 3.23 245 3.27 253 3.29 237 3.33 261 3.79
 310  0.000  0.000  0.705- 262 3.13 238 3.14 270 3.20 277 3.20 279 3.21 284 3.21
 311  0.000  0.500  0.705- 239 3.08 263 3.13 271 3.20 276 3.20 278 3.21 285 3.21
 312  0.500  0.000  0.705- 240 3.12 264 3.13 272 3.20 275 3.20 281 3.21 282 3.21
 313  0.500  0.500  0.705- 241 3.10 265 3.13 273 3.20 274 3.20 280 3.21 283 3.21
 314  0.250  0.250  0.705- 266 3.13 242 3.15 270 3.20 274 3.20 282 3.21 278 3.21
 315  0.250  0.750  0.705- 267 3.13 243 3.13 271 3.20 275 3.20 283 3.21 279 3.21
 316  0.750  0.250  0.705- 244 3.09 268 3.13 272 3.20 276 3.20 284 3.21 280 3.21
 317  0.750  0.750  0.705- 269 3.13 245 3.18 273 3.20 277 3.20 285 3.21 281 3.21
 318  0.000  0.000  0.807- 286 3.22 293 3.22 300 3.23 295 3.23 262 3.27
 319  0.000  0.500  0.807- 287 3.22 292 3.22 301 3.23 294 3.23 263 3.27
 320  0.500  0.000  0.807- 288 3.22 291 3.22 298 3.23 297 3.23 264 3.27
 321  0.500  0.500  0.807- 289 3.22 290 3.22 299 3.23 296 3.23 265 3.27
 322  0.250  0.250  0.807- 290 3.22 286 3.22 294 3.23 298 3.23 266 3.27
 323  0.250  0.750  0.807- 291 3.22 287 3.22 299 3.23 295 3.23 267 3.27
 324  0.750  0.250  0.807- 292 3.22 288 3.22 296 3.23 300 3.23 268 3.27
 325  0.750  0.750  0.807- 293 3.22 289 3.22 297 3.23 301 3.23 269 3.27
 

IMPORTANT INFORMATION: All symmetrisations will be switched off!
NOSYMM: (Re-)initialisation of all symmetry stuff for point group C_1.


----------------------------------------------------------------------------------------

                                     Primitive cell                                     

  volume of cell :   20385.2105

  direct lattice vectors                    reciprocal lattice vectors
    18.060800552  0.000000000  0.000000000     0.055368531  0.000015077 -0.000000000
    -0.004918649 18.062799454  0.000000000     0.000000000  0.055362404  0.000000000
     0.000000000  0.000000000 62.487499237     0.000000000 -0.000000000  0.016003201

  length of vectors
    18.060800552 18.062800123 62.487499237     0.055368533  0.055362404  0.016003201

  position of ions in fractional coordinates (direct lattice)
     0.462098064  0.326610523  0.574615052
     0.450431496  0.841990678  0.574496376
     0.920330793  0.242524716  0.581049811
     0.943086121  0.807745402  0.579377907
     0.305604305  0.064588004  0.574512676
     0.322614274  0.571098178  0.576095634
     0.794628467  0.079271481  0.577960936
     0.106103888  0.242822997  0.558751406
     0.094871496  0.678606603  0.567729214
     0.565118435  0.167495379  0.556597288
     0.494295796  0.649546431  0.565072860
     0.362884314  0.006865259  0.559265363
     0.274010336  0.626391840  0.557956813
     0.868253469  0.026972852  0.566847080
     0.058421119  0.233886168  0.582806693
     0.021479982  0.693060238  0.585604616
     0.572508814  0.247550345  0.572120657
     0.463396062  0.707920574  0.585322760
     0.282309986  0.438763112  0.578383689
     0.169805779  0.042957881  0.571545713
     0.671125038  0.023432211  0.575595717
     0.381583123  0.293788382  0.561281514
     0.490833954  0.868876694  0.550140064
     0.878921899  0.240644617  0.555906537
     0.978336636  0.867571535  0.560140111
     0.204529704  0.413708913  0.562947679
     0.140971988  0.973960869  0.553883733
     0.666501637  0.934912649  0.562928266
     0.441641856  0.189014073  0.548011525
     0.521594657  0.744775958  0.541401011
     0.995534433  0.247509163  0.538794289
     0.071089372  0.788973812  0.549429473
     0.192722844  0.531252491  0.547745176
     0.263112163  0.941588839  0.544295511
     0.788306339  0.931094761  0.555283671
     0.464100715  0.311184882  0.674125739
     0.435794732  0.809644482  0.673597618
     0.955197719  0.278572190  0.678115612
     0.923786690  0.772511647  0.674205467
     0.306031060  0.055074135  0.673388409
     0.293813588  0.540869065  0.677728388
     0.790493299  0.054391606  0.674825586
     0.848813379  0.492542166  0.666779543
     0.089032745  0.174037318  0.645647936
     0.096733659  0.692276509  0.652933451
     0.577616242  0.167686309  0.648923860
     0.573372937  0.675826171  0.654468304
     0.177568206  0.412324821  0.646649296
     0.174757143  0.923772300  0.649475789
     0.648682110  0.480444734  0.659148867
     0.673341184  0.913425924  0.649534456
     0.061806806  0.183506930  0.672471722
     0.035833920  0.682447055  0.674658683
     0.569968820  0.213674019  0.673079693
     0.534822349  0.705930893  0.678283004
     0.199602151  0.433029915  0.673361182
     0.202467418  0.956699056  0.674544829
     0.722130932  0.436772613  0.673086530
     0.696293039  0.947169846  0.674874729
     0.413457432  0.319101422  0.650423916
     0.420332116  0.835060029  0.646805089
     0.924992819  0.320206003  0.654927930
     0.923370893  0.832172470  0.652259244
     0.335846711  0.077455431  0.647404391
     0.321634363  0.581534278  0.653517980
     0.823632595  0.078442966  0.649308458
     0.854702932  0.558477891  0.646693250
     0.004390765  0.260987941  0.632889952
     0.030094511  0.787110001  0.637357460
     0.480514952  0.229134137  0.632631478
     0.505988085  0.753278341  0.633043731
     0.254949911  0.996418315  0.630713186
     0.251096582  0.504442768  0.632534290
     0.751583717  0.991882108  0.631635246
     0.725786812  0.557274790  0.640062163
     0.448745018  0.301283966  0.768889017
     0.448745007  0.801283913  0.768889017
     0.948744965  0.301283966  0.768889017
     0.948745007  0.801283913  0.768889017
     0.301275995  0.051294496  0.768872961
     0.301276011  0.551294499  0.768872961
     0.801275943  0.051294496  0.768872961
     0.801275984  0.551294499  0.768872961
     0.078771004  0.171180501  0.743441971
     0.078771006  0.671180448  0.743441971
     0.578771004  0.171180501  0.743441971
     0.578770992  0.671180448  0.743441971
     0.171199499  0.421174482  0.743421032
     0.171199501  0.921174508  0.743421032
     0.671199512  0.421174482  0.743421032
     0.671199501  0.921174508  0.743421032
     0.051256000  0.198714991  0.768889017
     0.051256002  0.698714925  0.768889017
     0.551256027  0.198714991  0.768889017
     0.551256016  0.698714925  0.768889017
     0.198723491  0.448703970  0.768872046
     0.198723493  0.948703970  0.768872046
     0.698723518  0.448703970  0.768872046
     0.698723507  0.948703970  0.768872046
     0.421231519  0.328817467  0.743441971
     0.421231508  0.828817440  0.743441971
     0.921231466  0.328817467  0.743441971
     0.921231508  0.828817440  0.743441971
     0.328800503  0.078824997  0.743421032
     0.328800492  0.578824964  0.743421032
     0.828800477  0.078824997  0.743421032
     0.828800519  0.578824964  0.743421032
     0.000003500  0.250001478  0.725821992
     0.000003500  0.750001452  0.725821992
     0.500003506  0.250001478  0.725821992
     0.500003495  0.750001452  0.725821992
     0.250000502  0.000000000  0.725803983
     0.250000517  0.500000000  0.725803983
     0.750000502  0.000000000  0.725803983
     0.750000490  0.500000000  0.725803983
     0.717879987  0.438145828  0.542055195
     0.735562268  0.496350940  0.519753066
     0.654186603  0.552914755  0.560796248
     0.705820158  0.636008308  0.558555566
     0.845481440  0.503078317  0.572037571
     0.782548971  0.571175210  0.581756983
     0.865751112  0.559211145  0.532070410
     0.793310971  0.625092013  0.527195533
     0.867512668  0.464896233  0.518867391
     0.863861135  0.425504949  0.544529506
     0.872525182  0.328709918  0.519369872
     0.784213209  0.322716322  0.530801113
     0.638512575  0.549684275  0.520887387
     0.689757193  0.633992914  0.518734552
     0.605394591  0.632393038  0.532515262
     0.752894912  0.452284129  0.598480116
     0.746652708  0.405049879  0.573717290
     0.679166159  0.472039604  0.581192662
     0.823902564  0.687197317  0.562100159
     0.896707847  0.683382261  0.543626127
     0.899045897  0.621394326  0.565801278
     0.817443935  0.386999030  0.486419281
     0.784517538  0.298171251  0.492133589
     0.663006086  0.319363616  0.522467110
     0.730274588  0.460921675  0.470336413
     0.537260637  0.376241314  0.521642970
     0.605009211  0.517152759  0.469326323
     0.508349549  0.474016983  0.495026257
     0.993196161  0.243925915  0.555942921
     0.034911995  0.771992804  0.562408631
     0.472400456  0.229266448  0.557556403
     0.496755126  0.757561925  0.556999285
     0.237320086  0.520444960  0.559243875
     0.252970744  0.987068725  0.555483113
     0.767638281  0.979721716  0.563771819
     0.007143806  0.246994306  0.649993898
     0.010586596  0.762442808  0.652256741
     0.496120514  0.243294929  0.649184105
     0.497177693  0.755357515  0.650276242
     0.249856796  0.497130709  0.649812771
     0.255176480  0.000449092  0.648165713
     0.750575194  0.520125851  0.651729170
     0.748268470  0.995457606  0.649074342
     0.499988984  0.249994984  0.743277021
     0.499989025  0.749994958  0.743277021
     0.999988984  0.249994984  0.743277021
     0.999989025  0.749994958  0.743277021
     0.250000502  0.000001000  0.743255960
     0.250000517  0.500001003  0.743255960
     0.750000502  0.000001000  0.743255960
     0.750000491  0.500001003  0.743255960
     0.705757774  0.386583697  0.496529488
     0.649618900  0.361987439  0.510541110
     0.688100440  0.441500541  0.481596661
     0.579329649  0.394092850  0.510120066
     0.617474097  0.473631243  0.480796544
     0.562958511  0.449816312  0.495115875
     0.759046297  0.474521677  0.534626707
     0.692562886  0.583883459  0.550424484
     0.787273526  0.520220570  0.572262103
     0.823595270  0.594213699  0.539397193
     0.831726075  0.432542725  0.529778448
     0.818332062  0.356258492  0.519975400
     0.655644235  0.599994572  0.529266932
     0.738909141  0.459411396  0.581489657
     0.862288333  0.648685987  0.554208138
     0.783266994  0.355767104  0.497583287
     0.056257461  0.237835356  0.566431714
     0.051004086  0.710334749  0.572607632
     0.541981908  0.215314034  0.561916101
     0.488190078  0.702898773  0.570580004
     0.437487093  0.290142621  0.564093172
     0.478004656  0.826840113  0.560599370
     0.926785972  0.246203185  0.564750225
     0.978523634  0.815491353  0.566766314
     0.240951946  0.452509945  0.567337046
     0.184161558  0.001174157  0.560709866
     0.694964969  0.981264890  0.566648737
     0.311149975  0.023108904  0.563156095
     0.282420298  0.574893964  0.564267768
     0.812928165  0.031945125  0.570108291
     0.055205295  0.198832479  0.656768935
     0.049378720  0.709194794  0.660593492
     0.550754821  0.207071798  0.657806923
     0.536972837  0.710429257  0.661789959
     0.207173980  0.444222184  0.657294370
     0.207792020  0.957852336  0.658257880
     0.704782368  0.474344910  0.661671039
     0.703178197  0.949293357  0.658607560
     0.455755925  0.294771106  0.658712073
     0.448164908  0.803032943  0.657660410
     0.959348892  0.283633166  0.662030058
     0.949750663  0.791320776  0.660397957
     0.301780606  0.047296400  0.657226668
     0.290719792  0.541512352  0.661370747
     0.789924288  0.046057350  0.658649560
     0.822713286  0.523421378  0.655352514
     0.045862501  0.204119496  0.752725994
     0.045862500  0.704119456  0.752725994
     0.545862507  0.204119496  0.752725994
     0.545862496  0.704119456  0.752725994
     0.204119002  0.454101003  0.752704994
     0.204118991  0.954100951  0.752704994
     0.704118976  0.454101003  0.752704994
     0.704118964  0.954100951  0.752704994
     0.454140018  0.295888490  0.752726971
     0.454140007  0.795888516  0.752726971
     0.954140018  0.295888490  0.752726971
     0.954140060  0.795888516  0.752726971
     0.295882492  0.045900498  0.752704994
     0.295882481  0.545900528  0.752704994
     0.795882439  0.045900498  0.752704994
     0.795882481  0.545900528  0.752704994
     0.766438286  0.541100108  0.549257930
     0.503396758  0.017493760  0.552981697
     0.482583473  0.513360406  0.555532683
     0.994959132  0.005162087  0.552071725
     0.034603917  0.506006795  0.553900093
     0.246381103  0.248544790  0.553654805
     0.244995322  0.764368446  0.552580616
     0.740450252  0.212348044  0.556656138
     0.704867411  0.792817168  0.550498900
     0.004961802  0.996524451  0.654664510
     0.013453293  0.491457332  0.655722217
     0.502089425  0.001121843  0.654931654
     0.503297924  0.493932435  0.655276022
     0.257044430  0.245226190  0.654508534
     0.250666628  0.753006908  0.654704985
     0.746913660  0.259426660  0.655464597
     0.749322327  0.744660331  0.653932430
     0.139222733  0.114076696  0.607187790
     0.146182700  0.612120779  0.610819071
     0.644661130  0.111122823  0.610056833
     0.622747602  0.626276107  0.613736830
     0.359829217  0.392455356  0.609647572
     0.374039105  0.882432082  0.606149741
     0.885282502  0.370333541  0.612700917
     0.867653264  0.881879184  0.610075697
     0.116238538  0.362159031  0.608926847
     0.119913998  0.875542034  0.608417467
     0.590440740  0.344495058  0.604544439
     0.612092687  0.863966191  0.609864046
     0.382763654  0.133256676  0.606982488
     0.380176954  0.634511704  0.613580915
     0.888744952  0.142765358  0.613794275
     0.911409261  0.649875730  0.617016355
     0.000000000  0.000000000  0.754927972
     0.000000000  0.500000000  0.754927972
     0.500000000  0.000000000  0.754927972
     0.499999989  0.500000000  0.754927972
     0.250000496  0.250000000  0.754939022
     0.250000511  0.749999974  0.754939022
     0.750000470  0.250000000  0.754939022
     0.750000458  0.749999974  0.754939022
     0.135790500  0.114209997  0.704782994
     0.135790502  0.614209984  0.704782994
     0.635790447  0.114209997  0.704782994
     0.635790488  0.614209984  0.704782994
     0.364209516  0.385789989  0.704782994
     0.364209505  0.885789963  0.704782994
     0.864209542  0.385789989  0.704782994
     0.864209531  0.885789963  0.704782994
     0.114217990  0.364218986  0.704780979
     0.114217992  0.864218986  0.704780979
     0.614218004  0.364218986  0.704780979
     0.614217992  0.864218986  0.704780979
     0.385782012  0.135781489  0.704782017
     0.385782001  0.635781489  0.704782017
     0.885781985  0.135781489  0.704782017
     0.885782027  0.635781489  0.704782017
     0.134667000  0.115332001  0.801256025
     0.134666989  0.615331988  0.801256025
     0.634666987  0.115332001  0.801256025
     0.634666976  0.615331988  0.801256025
     0.365333002  0.384667985  0.801256025
     0.365332990  0.884667959  0.801256025
     0.865332949  0.384667985  0.801256025
     0.865332938  0.884667959  0.801256025
     0.115328503  0.365337004  0.801264999
     0.115328505  0.865336978  0.801264999
     0.615328503  0.365337004  0.801264999
     0.615328492  0.865336978  0.801264999
     0.384671513  0.134662996  0.801264999
     0.384671501  0.634662970  0.801264999
     0.884671486  0.134662996  0.801264999
     0.884671528  0.634662970  0.801264999
     0.995838078  0.004018475  0.605267423
     0.005319592  0.507250603  0.604183710
     0.503751571  0.006343785  0.605173593
     0.498089344  0.503483909  0.604430159
     0.249319426  0.251999238  0.604658659
     0.246692345  0.755824986  0.603646005
     0.747293729  0.258805733  0.605825579
     0.738484879  0.756505548  0.601793401
     0.000000500  0.000000500  0.704828963
     0.000000500  0.500000475  0.704828963
     0.500000475  0.000000500  0.704828963
     0.500000464  0.500000475  0.704828963
     0.249999994  0.249999472  0.704824995
     0.250000010  0.749999498  0.704824995
     0.749999994  0.249999472  0.704824995
     0.749999983  0.749999498  0.704824995
     0.000000000  0.000000000  0.807317968
     0.000000000  0.500000000  0.807317968
     0.500000000  0.000000000  0.807317968
     0.499999989  0.500000000  0.807317968
     0.249999994  0.250000000  0.807317968
     0.250000010  0.749999974  0.807317968
     0.749999994  0.250000000  0.807317968
     0.749999983  0.749999974  0.807317968

  ion indices of the primitive-cell ions
   primitive index   ion index
                 1           1
                 2           2
                 3           3
                 4           4
                 5           5
                 6           6
                 7           7
                 8           8
                 9           9
                10          10
                11          11
                12          12
                13          13
                14          14
                15          15
                16          16
                17          17
                18          18
                19          19
                20          20
                21          21
                22          22
                23          23
                24          24
                25          25
                26          26
                27          27
                28          28
                29          29
                30          30
                31          31
                32          32
                33          33
                34          34
                35          35
                36          36
                37          37
                38          38
                39          39
                40          40
                41          41
                42          42
                43          43
                44          44
                45          45
                46          46
                47          47
                48          48
                49          49
                50          50
                51          51
                52          52
                53          53
                54          54
                55          55
                56          56
                57          57
                58          58
                59          59
                60          60
                61          61
                62          62
                63          63
                64          64
                65          65
                66          66
                67          67
                68          68
                69          69
                70          70
                71          71
                72          72
                73          73
                74          74
                75          75
                76          76
                77          77
                78          78
                79          79
                80          80
                81          81
                82          82
                83          83
                84          84
                85          85
                86          86
                87          87
                88          88
                89          89
                90          90
                91          91
                92          92
                93          93
                94          94
                95          95
                96          96
                97          97
                98          98
                99          99
               100         100
               101         101
               102         102
               103         103
               104         104
               105         105
               106         106
               107         107
               108         108
               109         109
               110         110
               111         111
               112         112
               113         113
               114         114
               115         115
               116         116
               117         117
               118         118
               119         119
               120         120
               121         121
               122         122
               123         123
               124         124
               125         125
               126         126
               127         127
               128         128
               129         129
               130         130
               131         131
               132         132
               133         133
               134         134
               135         135
               136         136
               137         137
               138         138
               139         139
               140         140
               141         141
               142         142
               143         143
               144         144
               145         145
               146         146
               147         147
               148         148
               149         149
               150         150
               151         151
               152         152
               153         153
               154         154
               155         155
               156         156
               157         157
               158         158
               159         159
               160         160
               161         161
               162         162
               163         163
               164         164
               165         165
               166         166
               167         167
               168         168
               169         169
               170         170
               171         171
               172         172
               173         173
               174         174
               175         175
               176         176
               177         177
               178         178
               179         179
               180         180
               181         181
               182         182
               183         183
               184         184
               185         185
               186         186
               187         187
               188         188
               189         189
               190         190
               191         191
               192         192
               193         193
               194         194
               195         195
               196         196
               197         197
               198         198
               199         199
               200         200
               201         201
               202         202
               203         203
               204         204
               205         205
               206         206
               207         207
               208         208
               209         209
               210         210
               211         211
               212         212
               213         213
               214         214
               215         215
               216         216
               217         217
               218         218
               219         219
               220         220
               221         221
               222         222
               223         223
               224         224
               225         225
               226         226
               227         227
               228         228
               229         229
               230         230
               231         231
               232         232
               233         233
               234         234
               235         235
               236         236
               237         237
               238         238
               239         239
               240         240
               241         241
               242         242
               243         243
               244         244
               245         245
               246         246
               247         247
               248         248
               249         249
               250         250
               251         251
               252         252
               253         253
               254         254
               255         255
               256         256
               257         257
               258         258
               259         259
               260         260
               261         261
               262         262
               263         263
               264         264
               265         265
               266         266
               267         267
               268         268
               269         269
               270         270
               271         271
               272         272
               273         273
               274         274
               275         275
               276         276
               277         277
               278         278
               279         279
               280         280
               281         281
               282         282
               283         283
               284         284
               285         285
               286         286
               287         287
               288         288
               289         289
               290         290
               291         291
               292         292
               293         293
               294         294
               295         295
               296         296
               297         297
               298         298
               299         299
               300         300
               301         301
               302         302
               303         303
               304         304
               305         305
               306         306
               307         307
               308         308
               309         309
               310         310
               311         311
               312         312
               313         313
               314         314
               315         315
               316         316
               317         317
               318         318
               319         319
               320         320
               321         321
               322         322
               323         323
               324         324
               325         325

----------------------------------------------------------------------------------------

 
 
 KPOINTS: Automatic Mesh                          

Automatic generation of k-mesh.
 Grid dimensions read from file:
 generate k-points for:    3    3    1

 Generating k-lattice:

  Cartesian coordinates                     Fractional coordinates (reciprocal lattice)
     0.018456177  0.000005026 -0.000000000     0.333333333  0.000000000  0.000000000
     0.000000000  0.018454135  0.000000000     0.000000000  0.333333333  0.000000000
     0.000000000 -0.000000000  0.016003201     0.000000000  0.000000000  1.000000000

  Length of vectors
     0.018456178  0.018454135  0.016003201

  Shift w.r.t. Gamma in fractional coordinates (k-lattice)
     0.000000000  0.000000000  0.000000000

 
 Subroutine IBZKPT returns following result:
 ===========================================
 
 Found      5 irreducible k-points:
 
 Following reciprocal coordinates:
            Coordinates               Weight
  0.000000  0.000000  0.000000      1.000000
  0.333333  0.000000  0.000000      2.000000
  0.000000  0.333333  0.000000      2.000000
  0.333333  0.333333  0.000000      2.000000
 -0.333333  0.333333  0.000000      2.000000
 
 Following cartesian coordinates:
            Coordinates               Weight
  0.000000  0.000000  0.000000      1.000000
  0.018456  0.000005  0.000000      2.000000
  0.000000  0.018454  0.000000      2.000000
  0.018456  0.018459  0.000000      2.000000
 -0.018456  0.018449  0.000000      2.000000
 


--------------------------------------------------------------------------------------------------------




 Dimension of arrays:
   k-points           NKPTS =      5   k-points in BZ     NKDIM =      5   number of bands    NBANDS=    732
   number of dos      NEDOS =    301   number of ions     NIONS =    325
   non local maximal  LDIM  =      5   non local SUM 2l+1 LMDIM =     13
   total plane-waves  NPLWV = ******
   max r-space proj   IRMAX =   3336   max aug-charges    IRDMAX=  19845
   dimension x,y,z NGX =   100 NGY =  100 NGZ =  350
   dimension x,y,z NGXF=   200 NGYF=  200 NGZF=  700
   support grid    NGXF=   200 NGYF=  200 NGZF=  700
   ions per type =             143  39  47  72  24
   NGX,Y,Z   is equivalent  to a cutoff of   9.20,  9.20,  9.31 a.u.
   NGXF,Y,Z  is equivalent  to a cutoff of  18.41, 18.41, 18.62 a.u.

 SYSTEM =  PSC                                     
 POSCAR =   H  C  N  I Pb                          

 Startparameter for this run:
   NWRITE =      2    write-flag & timer
   PREC   = normal    normal or accurate (medium, high low for compatibility)
   ISTART =      0    job   : 0-new  1-cont  2-samecut
   ICHARG =      1    charge: 1-file 2-atom 10-const
   ISPIN  =      1    spin polarized calculation?
   LNONCOLLINEAR =      F non collinear calculations
   LSORBIT =      F    spin-orbit coupling
   INIWAV =      1    electr: 0-lowe 1-rand  2-diag
   LASPH  =      F    aspherical Exc in radial PAW
 Electronic Relaxation 1
   ENCUT  =  500.0 eV  36.75 Ry    6.06 a.u.  32.93 32.93113.93*2*pi/ulx,y,z
   ENINI  =  500.0     initial cutoff
   ENAUG  =  644.9 eV  augmentation charge cutoff
   NELM   =    600;   NELMIN=  2; NELMDL=  0     # of ELM steps 
   EDIFF  = 0.1E-03   stopping-criterion for ELM
   LREAL  =      T    real-space projection
   NLSPLINE    = F    spline interpolate recip. space projectors
   LCOMPAT=      F    compatible to vasp.4.4
   GGA_COMPAT  = F    GGA compatible to vasp.4.4-vasp.4.6
   LMAXPAW     = -100 max onsite density
   LMAXMIX     =    2 max onsite mixed and CHGCAR
   VOSKOWN=      0    Vosko Wilk Nusair interpolation
   ROPT   =   -0.00050  -0.00050  -0.00050  -0.00050
   ROPT   =   -0.00050
 Ionic relaxation
   EDIFFG = 0.1E-02   stopping-criterion for IOM
   NSW    =      0    number of steps for IOM
   NBLOCK =      1;   KBLOCK =      1    inner block; outer block 
   IBRION =     -1    ionic relax: 0-MD 1-quasi-New 2-CG
   NFREE  =      0    steps in history (QN), initial steepest desc. (CG)
   ISIF   =      2    stress and relaxation
   IWAVPR =     10    prediction:  0-non 1-charg 2-wave 3-comb
   ISYM   =      0    0-nonsym 1-usesym 2-fastsym
   LCORR  =      T    Harris-Foulkes like correction to forces

   POTIM  = 0.5000    time-step for ionic-motion
   TEIN   =    0.0    initial temperature
   TEBEG  =    0.0;   TEEND  =   0.0 temperature during run
   SMASS  =  -3.00    Nose mass-parameter (am)
   estimated Nose-frequenzy (Omega)   =  0.10E-29 period in steps = 0.13E+47 mass=  -0.745E-26a.u.
   SCALEE = 1.0000    scale energy and forces
   NPACO  =    256;   APACO  = 16.0  distance and # of slots for P.C.
   PSTRESS=    0.0 pullay stress

  Mass of Ions in am
   POMASS =   1.00 12.01 14.00126.90207.20
  Ionic Valenz
   ZVAL   =   1.00  4.00  5.00  7.00  4.00
  Atomic Wigner-Seitz radii
   RWIGS  =  -1.00 -1.00 -1.00 -1.00 -1.00
  virtual crystal weights 
   VCA    =   1.00  1.00  1.00  1.00  1.00
   NELECT =    1134.0000    total number of electrons
   NUPDOWN=      -1.0000    fix difference up-down

 DOS related values:
   EMIN   =  10.00;   EMAX   =-10.00  energy-range for DOS
   EFERMI =   0.00
   ISMEAR =     0;   SIGMA  =   0.05  broadening in eV -4-tet -1-fermi 0-gaus

 Electronic relaxation 2 (details)
   IALGO  =     38    algorithm
   LDIAG  =      T    sub-space diagonalisation (order eigenvalues)
   LSUBROT=      F    optimize rotation matrix (better conditioning)
   TURBO    =      0    0=normal 1=particle mesh
   IRESTART =      0    0=no restart 2=restart with 2 vectors
   NREBOOT  =      0    no. of reboots
   NMIN     =      0    reboot dimension
   EREF     =   0.00    reference energy to select bands
   IMIX   =      4    mixing-type and parameters
     AMIX     =   0.40;   BMIX     =  0.01
     AMIX_MAG =   1.60;   BMIX_MAG =  0.01
     AMIN     =   0.01
     WC   =   100.;   INIMIX=   1;  MIXPRE=   1;  MAXMIX= -45

 Intra band minimization:
   WEIMIN = 0.0000     energy-eigenvalue tresh-hold
   EBREAK =  0.34E-07  absolut break condition
   DEPER  =   0.30     relativ break condition  

   TIME   =   0.40     timestep for ELM

  volume/ion in A,a.u.               =      62.72       423.28
  Fermi-wavevector in a.u.,A,eV,Ry     =   0.624944  1.180972  5.313816  0.390554
  Thomas-Fermi vector in A             =   1.685677
 
 Write flags
   LWAVE        =      F    write WAVECAR
   LDOWNSAMPLE  =      F    k-point downsampling of WAVECAR
   LCHARG       =      T    write CHGCAR
   LVTOT        =      T    write LOCPOT, total local potential
   LVHAR        =      F    write LOCPOT, Hartree potential only
   LELF         =      F    write electronic localiz. function (ELF)
   LORBIT       =      0    0 simple, 1 ext, 2 COOP (PROOUT), +10 PAW based schemes


 Dipole corrections
   LMONO  =      F    monopole corrections only (constant potential shift)
   LDIPOL =      T    correct potential (dipole corrections)
   IDIPOL =      3    1-x, 2-y, 3-z, 4-all directions 
   EPSILON=  1.0000000 bulk dielectric constant

 Exchange correlation treatment:
   GGA     =    --    GGA type
   LEXCH   =     8    internal setting for exchange type
   VOSKOWN=      0    Vosko Wilk Nusair interpolation
   LHFCALC =     F    Hartree Fock is set to
   LHFONE  =     F    Hartree Fock one center treatment
   AEXX    =    0.0000 exact exchange contribution

 Linear response parameters
   LEPSILON=     F    determine dielectric tensor
   LRPA    =     F    only Hartree local field effects (RPA)
   LNABLA  =     F    use nabla operator in PAW spheres
   LVEL    =     F    velocity operator in full k-point grid
   LINTERFAST=   F  fast interpolation
   KINTER  =     0    interpolate to denser k-point grid
   CSHIFT  =0.1000    complex shift for real part using Kramers Kronig
   OMEGAMAX=  -1.0    maximum frequency
   DEG_THRESHOLD= 0.2000000E-02 threshold for treating states as degnerate
   RTIME   =   -0.100 relaxation time in fs
  (WPLASMAI=    0.000 imaginary part of plasma frequency in eV, 0.658/RTIME)
   DFIELD  = 0.0000000 0.0000000 0.0000000 field for delta impulse in time
 
 Orbital magnetization related:
   ORBITALMAG=     F  switch on orbital magnetization
   LCHIMAG   =     F  perturbation theory with respect to B field
   DQ        =  0.001000  dq finite difference perturbation B field
   LLRAUG    =     F  two centre corrections for induced B field



--------------------------------------------------------------------------------------------------------


 Static calculation
 charge density and potential will be updated during run
 non-spin polarized calculation
 Variant of blocked Davidson
 Davidson routine will perform the subspace rotation
 perform sub-space diagonalisation
    after iterative eigenvector-optimisation
 modified Broyden-mixing scheme, WC =      100.0
 initial mixing is a Kerker type mixing with AMIX =  0.4000 and BMIX =      0.0100
 Hartree-type preconditioning will be used
 using additional bands           165
 real space projection scheme for non local part
[...]
     13.54561      0.00000     45.35368         0.002863     -0.006134      0.012913
     13.54315      9.03140     45.35368        -0.003939      0.008941     -0.000068
     12.96333      7.91414     33.87167        -0.013344      0.015025     -0.072989
     13.28240      8.96549     32.47807         0.002252     -0.103104      0.089432
     11.81241      9.98719     35.04276         0.217248     -0.057405     -0.136329
     12.74455     11.48809     34.90274         0.071388      0.018213      0.052707
     15.26760      9.08700     35.74520         0.078953      0.029102     -0.018651
     14.13065     10.31702     36.35254         0.046193     -0.034953     -0.067567
     15.63341     10.10092     33.24775         0.047169      0.018649     -0.096879
     14.32476     11.29091     32.94313         0.033279     -0.094687     -0.211778
     15.66569      8.39733     32.42273        -0.161324     -0.084191      0.108391
     15.59993      7.68581     34.02629         0.076564     -0.020979      0.127889
     15.75689      5.93742     32.45412         0.057141     -0.116134     -0.135764
     14.16193      5.82916     33.16843         0.001442      0.011650      0.041707
     11.52934      9.92884     32.54895        -0.123374     -0.000943     -0.040467
     12.45445     11.45169     32.41442         0.107156      0.115520     -0.172392
     10.93080     11.42279     33.27555         0.051744     -0.074926      0.070213
     13.59566      8.16952     37.39753         0.086064      0.054819     -0.112543
     13.48315      7.31633     35.85016         0.076829      0.213515      0.064259
     12.26396      8.52636     36.31728         0.221046      0.035929     -0.091727
     14.87696     12.41271     35.12423         0.019083     -0.121024      0.055632
     16.19190     12.34380     33.96984         0.009544     -0.083554      0.107511
     16.23443     11.22412     35.35551        -0.122509      0.104473     -0.058594
     14.76179      6.99029     30.39512         0.316878      0.180929     -0.234326
     14.16755      5.38581     30.75220        -0.143339     -0.220506     -0.167010
     11.97285      5.76860     32.64766        -0.123035      0.080340     -0.130622
     13.18708      8.32554     29.39015         0.032915     -0.056135      0.082323
      9.70151      6.79597     32.59616         0.071324      0.065323     -0.131497
     10.92441      9.34123     29.32703         0.024026      0.052005     -0.113477
      9.17887      8.56207     30.93295        -0.344213      0.217163     -0.029227
     17.93672      4.40598     34.73948        -0.194627     -0.077159      0.783565
      0.62674     13.94435     35.14351        -0.157073     -0.216765      0.394000
      8.53080      4.14119     34.84031        -0.254346      0.909842      0.487711
      8.96807     13.68369     34.80549         0.011537      0.384061     -0.216555
      4.28363      9.40069     34.94575         0.023920     -0.663387      0.246473
      4.56400     17.82922     34.71075         0.553089      0.229498      0.290074
     13.85934     17.69652     35.22869        -0.804648      0.155893      0.135565
      0.12781      4.46141     40.61649        -0.880924      0.910648     -0.022499
      0.18745     13.77185     40.75789        -0.762796      0.676762     -0.000503
      8.95914      4.39459     40.56589        -0.869667      0.558632     -0.231130
      8.97571     13.64387     40.63414        -0.481139      0.510726     -0.022121
      4.51017      8.97957     40.60518        -0.321356     -0.434263      0.108849
      4.60869      0.00811     40.50225         0.153034      0.227122      0.170874
     13.55343      9.39493     40.72493         0.422807     -0.595965      0.879939
     13.50943     17.98075     40.55903         0.371034      0.469735      0.121745
      9.02897      4.51561     46.44552         0.006504      0.007627      0.029839
      9.02651     13.54701     46.44552         0.028506     -0.013649      0.049879
     18.05937      4.51561     46.44552         0.018529     -0.001025      0.041441
     18.05691     13.54701     46.44552         0.021107     -0.003411      0.017061
      4.51521      0.00002     46.44421        -0.006753     -0.008994      0.061679
      4.51275      9.03142     46.44421        -0.002818     -0.001773      0.049067
     13.54561      0.00002     46.44421        -0.004468     -0.007331      0.042219
     13.54315      9.03142     46.44421        -0.000943      0.005290      0.026313
     12.74465      6.98278     31.02689        -0.316395     -0.214870      0.003748
     11.73086      6.53851     31.90244         0.224738      0.071682      0.005811
     12.42547      7.97474     30.09377        -0.070017      0.319967     -0.201704
     10.46122      7.11842     31.87613         0.002135      0.012569     -0.188824
     11.14975      8.55511     30.04377        -0.034789     -0.339760      0.294163
     10.16527      8.12494     30.93855         0.367081     -0.328506      0.238544
     13.70665      8.57119     33.40749         0.344342      0.035477     -0.122686
     12.50537     10.54657     34.39465        -0.106070     -0.207746      0.223414
     14.21623      9.39664     35.75923        -0.172275     -0.294787     -0.282354
     14.87187     10.73316     33.70558         0.171387      0.010968      0.354550
     15.01951      7.81293     33.10453        -0.273779      0.355775      0.166775
     14.77798      6.43503     32.49196        -0.083190      0.159638     -0.020221
     11.83851     10.83758     33.07257        -0.086894     -0.072069     -0.058311
     13.34303      8.29826     36.33583        -0.331268     -0.045170      0.054491
     15.57043     11.71708     34.63108        -0.052632     -0.036751     -0.051305
     14.14468      6.42615     31.09274        -0.022060     -0.056291      0.307367
      1.01488      4.29597     35.39490        -0.633071      0.097757      0.042300
      0.91768     12.83063     35.78082         0.077881      0.189020     -0.539405
      9.78757      3.88917     35.11273        -0.005840     -0.158250     -0.112689
      8.81365     12.69632     35.65412        -0.138460     -0.071687     -0.077671
      7.89994      5.24079     35.24877         0.397248     -0.587981     -0.156316
      8.62908     14.93505     35.03045        -0.093670     -0.028771      0.019008
     16.73729      4.44712     35.28983         0.482527     -0.088484     -0.019748
     17.66891     14.73006     35.41581         0.016496     -0.072258     -0.092476
      4.34956      8.17360     35.45147         1.150668      1.363910      0.236616
      3.32610      0.02121     35.03736        -0.027902      0.675530      0.378987
     12.54680     17.72439     35.40846         0.845179      0.854481      0.395136
      5.61950      0.41741     35.19022        -1.496344      0.134811      0.204658
      5.09791     10.38419     35.25968         0.293971     -0.373134      0.351054
     14.68198      0.57702     35.62464        -0.321166      0.445099      0.252310
      0.99607      3.59147     41.03985         0.558058     -0.489795     -0.184383
      0.88833     12.81004     41.27884         0.465123     -0.788287      0.440229
      9.94605      3.74030     41.10471         0.639634     -0.560209      0.094354
      9.69466     12.83234     41.35360         0.306772     -0.474566      1.058731
      3.73954      8.02390     41.07268        -0.133903     -0.189175      0.106164
      3.74818     17.30149     41.13289         0.139932      0.116704      0.172627
     12.72660      8.56800     41.34617         0.290757      0.146791     -0.040626
     12.69529     17.14690     41.15474         0.152039      0.174941      0.304218
      8.22987      5.32439     41.16127         0.257629     -0.338672     -0.333578
      8.09027     14.50502     41.09555         0.195425     -0.200510     -0.212206
     17.32521      5.12321     41.36860         0.521663     -0.419400     -0.180322
     17.14937     14.29347     41.26662        -0.121638     -0.436295      0.600246
      5.45017      0.85431     41.06845        -0.231965     -0.307068     -0.496293
      5.24797      9.78123     41.32740         0.628546      0.809688     -0.125052
     14.26644      0.83192     41.15736        -0.274339     -0.397125     -0.398987
     14.85629      9.45446     40.95134        -0.893143     -0.188143      0.005981
      0.82731      3.68697     47.03596         0.017893     -0.022721     -0.095791
      0.82485     12.71837     47.03596         0.019603     -0.019611     -0.074624
      9.85771      3.68697     47.03596         0.025391     -0.029673     -0.084085
      9.85525     12.71837     47.03596         0.008693     -0.008425     -0.083365
      3.68432      8.20234     47.03465        -0.008140     -0.012567     -0.070760
      3.68186     17.23373     47.03465        -0.004753     -0.002054     -0.069073
     12.71472      8.20234     47.03465        -0.013053     -0.020426     -0.067485
     12.71226     17.23373     47.03465        -0.012236     -0.007994     -0.072565
      8.20068      5.34457     47.03603        -0.020525      0.014718     -0.089905
      8.19822     14.37597     47.03603        -0.028903      0.029833     -0.090533
     17.23108      5.34457     47.03603        -0.028932      0.023003     -0.107460
     17.22862     14.37597     47.03603        -0.025887      0.027049     -0.074074
      5.34365      0.82909     47.03465         0.012936      0.012973     -0.067141
      5.34119      9.86049     47.03465         0.013480      0.012731     -0.071467
     14.37405      0.82909     47.03465         0.016035      0.016631     -0.071339
     14.37159      9.86049     47.03465         0.013013      0.011177     -0.069118
     13.83983      9.77378     34.32175        -0.037804      0.693199      0.126786
      9.09166      0.31599     34.55444         0.060111      0.009056     -0.052250
      8.71332      9.27273     34.71385        -0.021594     -0.056971     -0.123106
     17.96973      0.09324     34.49758        -0.016260     -0.002324     -0.007304
      0.62249      9.13990     34.61183        -0.183776     -0.002966      0.060944
      4.44862      4.48941     34.59650         0.037292     -0.029018     -0.131142
      4.42105     13.80663     34.52938        -0.010486      0.009586     -0.022305
     13.37208      3.83560     34.78405        -0.108740     -0.062938     -0.000382
     12.72657     14.32050     34.39930        -0.015521     -0.033321      0.190460
      0.08471     18.00002     40.90835        -0.028284      0.001772     -0.007979
      0.24056      8.87710     40.97444         0.033633      0.018410     -0.076542
      9.06813      0.02026     40.92504        -0.007823      0.044647     -0.044707
      9.08753      8.92180     40.94656         0.046242      0.005739      0.015519
      4.64122      4.42947     40.89860        -0.035408      0.003089      0.096237
      4.52354     13.60141     40.91088        -0.027431      0.045147     -0.024199
     13.48858      4.68597     40.95834        -0.025269      0.025424      0.034529
     13.52970     13.45065     40.86260        -0.014000      0.033474     -0.079364
      2.51391      2.06054     37.94165        -0.063598     -0.020626     -0.014278
      2.63717     11.05661     38.16856         0.006053     -0.044515      0.015438
     11.64255      2.00719     38.12093        -0.044040     -0.008474      0.005071
     11.24424     11.31230     38.35088         0.091794     -0.013789     -0.293764
      6.49687      7.08884     38.09535         0.015812     -0.053256     -0.001802
      6.75111     15.93919     37.87678        -0.044897      0.014028      0.084230
     15.98709      6.68926     38.28615         0.036011      0.043680     -0.125994
     15.66617     15.92921     38.12210        -0.067091     -0.019143     -0.036664
      2.09758      6.54161     38.05032         0.059455     -0.024546      0.010039
      2.16144     15.81474     38.01849         0.068449     -0.010054     -0.010165
     10.66214      6.22255     37.77647        -0.023376      0.024516     -0.026714
     11.05063     15.60565     38.10888         0.008954      0.017877      0.083063
      6.91236      2.40699     37.92882         0.092563     -0.061379     -0.009642
      6.86318     11.46106     38.34114         0.034438     -0.048095     -0.077581
     16.05074      2.57874     38.35447        -0.053505     -0.067873     -0.074667
     16.45758     11.73857     38.55581        -0.149581     -0.039425     -0.469670
      0.00000      0.00000     47.17356         0.000042      0.005628      0.379522
     -0.00246      9.03140     47.17356        -0.001145     -0.007452      0.501840
      9.03040      0.00000     47.17356         0.001253     -0.000348      0.401316
      9.02794      9.03140     47.17356        -0.001828     -0.002959      0.474716
      4.51398      4.51570     47.17425         0.000298     -0.004686      0.400490
      4.51152     13.54710     47.17425         0.005083      0.001653      0.430960
     13.54438      4.51570     47.17425         0.004613      0.001213      0.432854
     13.54192     13.54710     47.17425        -0.000506      0.000133      0.393381
      2.45192      2.06295     44.04013         0.005182     -0.006567     -0.042424
      2.44946     11.09435     44.04013         0.032992     -0.034067      0.028005
     11.48232      2.06295     44.04013         0.045321      0.008576     -0.051473
     11.47986     11.09435     44.04013        -0.052747      0.031692      0.029885
      6.57602      6.96845     44.04013        -0.027418      0.004950     -0.031697
      6.57356     15.99985     44.04013         0.004765      0.030513     -0.009875
     15.60642      6.96845     44.04013        -0.050387      0.038156     -0.070080
     15.60396     15.99985     44.04013        -0.053460      0.048433     -0.000191
      2.06108      6.57881     44.04000         0.066139     -0.060600      0.003247
      2.05862     15.61021     44.04000         0.036841      0.057350     -0.007255
     11.09148      6.57881     44.04000        -0.020146     -0.064145     -0.024482
     11.08902     15.61021     44.04000        -0.024301      0.010159     -0.006028
      6.96686      2.45259     44.04007        -0.011987     -0.035628     -0.013120
      6.96440     11.48399     44.04007         0.031599      0.019699     -0.022223
     15.99726      2.45259     44.04007        -0.003637      0.017195     -0.059481
     15.99481     11.48399     44.04007         0.055112      0.041111     -0.096130
      2.43163      2.08322     50.06849         0.007358     -0.012951      0.019198
      2.42917     11.11462     50.06849         0.015434     -0.006297      0.022738
     11.46203      2.08322     50.06849         0.007638     -0.014162      0.020173
     11.45957     11.11462     50.06849         0.015466     -0.004588      0.022209
      6.59631      6.94818     50.06849        -0.017268      0.001906      0.021418
      6.59385     15.97958     50.06849        -0.004200      0.016034      0.020510
     15.62671      6.94818     50.06849        -0.015548      0.001391      0.019610
     15.62425     15.97958     50.06849        -0.007179      0.015148      0.022508
      2.08113      6.59901     50.06905        -0.001621     -0.020298      0.020835
      2.07867     15.63041     50.06905        -0.015402     -0.002770      0.022167
     11.11153      6.59901     50.06905        -0.004772     -0.016362      0.022102
     11.10907     15.63041     50.06905        -0.012099     -0.007357      0.020984
      6.94681      2.43239     50.06905         0.012044      0.006819      0.020664
      6.94435     11.46379     50.06905         0.007476      0.012804      0.022469
     15.97721      2.43239     50.06905         0.014548      0.005477      0.020538
     15.97475     11.46379     50.06905         0.002777      0.016376      0.022846
     17.98561      0.07258     37.82165        -0.012989     -0.001187      0.015384
      0.09358      9.16237     37.75393         0.061743     -0.051780      0.050491
      9.09813      0.11459     37.81578        -0.031221      0.058488     -0.073276
      8.99342      9.09433     37.76933         0.025622     -0.084746      0.135357
      4.50167      4.55181     37.78361         0.002344      0.140699      0.036315
      4.45174     13.65232     37.72033        -0.010610     -0.013737      0.042597
     13.49545      4.67476     37.85653        -0.026394     -0.025883      0.017906
     13.33391     13.66461     37.60456         0.075647      0.025466      0.101479
      0.00001      0.00001     44.04300        -0.020851     -0.115405      0.156594
     -0.00245      9.03141     44.04300         0.081416      0.061294      0.130627
      9.03041      0.00001     44.04300        -0.011850      0.022349      0.184589
      9.02795      9.03141     44.04300         0.027458      0.050021      0.194594
      4.51397      4.51569     44.04275         0.024681      0.032973      0.114367
      4.51151     13.54709     44.04275        -0.093441     -0.000669      0.095756
     13.54437      4.51569     44.04275        -0.030283     -0.024991      0.229017
     13.54191     13.54709     44.04275        -0.025786     -0.046629     -0.004818
      0.00000      0.00000     50.44728         0.000295     -0.005280     -0.620514
     -0.00246      9.03140     50.44728         0.001304      0.004026     -0.652894
      9.03040      0.00000     50.44728        -0.001026     -0.002650     -0.624989
      9.02794      9.03140     50.44728         0.000129      0.002069     -0.647750
      4.51397      4.51570     50.44728         0.000568      0.011443     -0.625923
      4.51151     13.54710     50.44728        -0.000469     -0.012585     -0.636576
     13.54437      4.51570     50.44728        -0.001525      0.011619     -0.631087
     13.54191     13.54710     50.44728         0.002164     -0.012378     -0.628195
 -----------------------------------------------------------------------------------
    total drift:                               -0.054668      0.150544      0.095712


--------------------------------------------------------------------------------------------------------



  FREE ENERGIE OF THE ION-ELECTRON SYSTEM (eV)
  ---------------------------------------------------
  free  energy   TOTEN  =     -1574.88795180 eV

  energy  without entropy=    -1574.88795180  energy(sigma->0) =    -1574.88795180
 


--------------------------------------------------------------------------------------------------------


    POTLOK:  cpu time    0.5016: real time    0.5015


--------------------------------------------------------------------------------------------------------


     LOOP+:  cpu time  265.9291: real time  266.4932
 vacuum level on the upper side and lower side of the slab         2.368         1.516
    4ORBIT:  cpu time    0.0000: real time    0.0000

 total amount of memory used by VASP MPI-rank0  8653580. kBytes
=======================================================================

   base      :      30000. kBytes
   nonlr-proj:      53618. kBytes
   fftplans  :     249280. kBytes
   grid      :     701440. kBytes
   one-center:       2636. kBytes
   wavefun   :    7616606. kBytes
 
  
  
 General timing and accounting informations for this job:
 ========================================================
  
                  Total CPU time used (sec):      481.138
                            User time (sec):      392.840
                          System time (sec):       88.298
                         Elapsed time (sec):      481.334
  
                   Maximum memory used (kb):    10309112.
                   Average memory used (kb):          N/A
  
                          Minor page faults:      3542735
                          Major page faults:           14
                 Voluntary context switches:        10677
