<?xml version="1.0" encoding="ISO-8859-1"?>
<modeling>
 <generator>
  <i name="program" type="string">vasp </i>
  <i name="version" type="string">6.2.1  </i>
  <i name="subversion" type="string">16May21 (build Nov 15 2021 14:57:28) complex                          parallel </i>
  <i name="platform" type="string">LinuxPGI </i>
  <i name="date" type="string">2023 07 30 </i>
  <i name="time" type="string">19:28:45 </i>
 </generator>
 <incar>
  <i type="string" name="SYSTEM">PSC</i>
  <i type="int" name="ISTART">     1</i>
  <i type="string" name="PREC">Normal</i>
  <i name="BMIX">      0.01000000</i>
  <i name="AMIN">      0.01000000</i>
  <i type="int" name="ICHARG">     1</i>
  <i type="int" name="NELM">   600</i>
  <i type="int" name="ISYM">     0</i>
  <i name="ENCUT">    500.00000000</i>
  <i type="string" name="LREAL">Auto</i>
  <i type="int" name="ISMEAR">     0</i>
  <i name="SIGMA">      0.05000000</i>
  <i type="logical" name="LWAVE"> F  </i>
  <i type="logical" name="LVTOT"> T  </i>
  <i type="logical" name="GGA_COMPAT"> F  </i>
  <i type="logical" name="LDIPOL"> T  </i>
  <i type="int" name="IDIPOL">     3</i>
  <i type="int" name="IVDW">    12</i>
 </incar>
 <primitive_cell>
  <structure name="primitive_cell" >
   <crystal>
    <varray name="basis" >
     <v>      18.06080055       0.00000000       0.00000000 </v>
     <v>      -0.00491865      18.06279945       0.00000000 </v>
     <v>       0.00000000       0.00000000      62.48749924 </v>
    </varray>
    <i name="volume">  20385.21054034 </i>
    <varray name="rec_basis" >
     <v>       0.05536853       0.00001508      -0.00000000 </v>
     <v>       0.00000000       0.05536240       0.00000000 </v>
     <v>       0.00000000      -0.00000000       0.01600320 </v>
    </varray>
   </crystal>
   <varray name="positions" >
    <v>       0.46209806       0.32661052       0.57461505 </v>
    <v>       0.45043150       0.84199068       0.57449638 </v>
    <v>       0.92033079       0.24252472       0.58104981 </v>
    <v>       0.94308612       0.80774540       0.57937791 </v>
    <v>       0.30560431       0.06458800       0.57451268 </v>
    <v>       0.32261427       0.57109818       0.57609563 </v>
    <v>       0.79462847       0.07927148       0.57796094 </v>
    <v>       0.10610389       0.24282300       0.55875141 </v>
    <v>       0.09487150       0.67860660       0.56772921 </v>
    <v>       0.56511844       0.16749538       0.55659729 </v>
    <v>       0.49429580       0.64954643       0.56507286 </v>
    <v>       0.36288431       0.00686526       0.55926536 </v>
    <v>       0.27401034       0.62639184       0.55795681 </v>
    <v>       0.86825347       0.02697285       0.56684708 </v>
    <v>       0.05842112       0.23388617       0.58280669 </v>
    <v>       0.02147998       0.69306024       0.58560462 </v>
    <v>       0.57250881       0.24755034       0.57212066 </v>
    <v>       0.46339606       0.70792057       0.58532276 </v>
    <v>       0.28230999       0.43876311       0.57838369 </v>
    <v>       0.16980578       0.04295788       0.57154571 </v>
    <v>       0.67112504       0.02343221       0.57559572 </v>
    <v>       0.38158312       0.29378838       0.56128151 </v>
    <v>       0.49083395       0.86887669       0.55014006 </v>
    <v>       0.87892190       0.24064462       0.55590654 </v>
    <v>       0.97833664       0.86757153       0.56014011 </v>
    <v>       0.20452970       0.41370891       0.56294768 </v>
    <v>       0.14097199       0.97396087       0.55388373 </v>
    <v>       0.66650164       0.93491265       0.56292827 </v>
    <v>       0.44164186       0.18901407       0.54801153 </v>
    <v>       0.52159466       0.74477596       0.54140101 </v>
    <v>       0.99553443       0.24750916       0.53879429 </v>
    <v>       0.07108937       0.78897381       0.54942947 </v>
    <v>       0.19272284       0.53125249       0.54774518 </v>
    <v>       0.26311216       0.94158884       0.54429551 </v>
    <v>       0.78830634       0.93109476       0.55528367 </v>
    <v>       0.46410071       0.31118488       0.67412574 </v>
    <v>       0.43579473       0.80964448       0.67359762 </v>
    <v>       0.95519772       0.27857219       0.67811561 </v>
    <v>       0.92378669       0.77251165       0.67420547 </v>
    <v>       0.30603106       0.05507414       0.67338841 </v>
    <v>       0.29381359       0.54086906       0.67772839 </v>
    <v>       0.79049330       0.05439161       0.67482559 </v>
    <v>       0.84881338       0.49254217       0.66677954 </v>
    <v>       0.08903274       0.17403732       0.64564794 </v>
    <v>       0.09673366       0.69227651       0.65293345 </v>
    <v>       0.57761624       0.16768631       0.64892386 </v>
    <v>       0.57337294       0.67582617       0.65446830 </v>
    <v>       0.17756821       0.41232482       0.64664930 </v>
    <v>       0.17475714       0.92377230       0.64947579 </v>
    <v>       0.64868211       0.48044473       0.65914887 </v>
    <v>       0.67334118       0.91342592       0.64953446 </v>
    <v>       0.06180681       0.18350693       0.67247172 </v>
    <v>       0.03583392       0.68244706       0.67465868 </v>
    <v>       0.56996882       0.21367402       0.67307969 </v>
    <v>       0.53482235       0.70593089       0.67828300 </v>
    <v>       0.19960215       0.43302992       0.67336118 </v>
    <v>       0.20246742       0.95669906       0.67454483 </v>
    <v>       0.72213093       0.43677261       0.67308653 </v>
    <v>       0.69629304       0.94716985       0.67487473 </v>
    <v>       0.41345743       0.31910142       0.65042392 </v>
    <v>       0.42033212       0.83506003       0.64680509 </v>
    <v>       0.92499282       0.32020600       0.65492793 </v>
    <v>       0.92337089       0.83217247       0.65225924 </v>
    <v>       0.33584671       0.07745543       0.64740439 </v>
    <v>       0.32163436       0.58153428       0.65351798 </v>
    <v>       0.82363260       0.07844297       0.64930846 </v>
    <v>       0.85470293       0.55847789       0.64669325 </v>
    <v>       0.00439077       0.26098794       0.63288995 </v>
    <v>       0.03009451       0.78711000       0.63735746 </v>
    <v>       0.48051495       0.22913414       0.63263148 </v>
    <v>       0.50598809       0.75327834       0.63304373 </v>
    <v>       0.25494991       0.99641831       0.63071319 </v>
    <v>       0.25109658       0.50444277       0.63253429 </v>
    <v>       0.75158372       0.99188211       0.63163525 </v>
    <v>       0.72578681       0.55727479       0.64006216 </v>
    <v>       0.44874502       0.30128397       0.76888902 </v>
    <v>       0.44874501       0.80128391       0.76888902 </v>
    <v>       0.94874497       0.30128397       0.76888902 </v>
    <v>       0.94874501       0.80128391       0.76888902 </v>
    <v>       0.30127600       0.05129450       0.76887296 </v>
    <v>       0.30127601       0.55129450       0.76887296 </v>
    <v>       0.80127594       0.05129450       0.76887296 </v>
    <v>       0.80127598       0.55129450       0.76887296 </v>
    <v>       0.07877100       0.17118050       0.74344197 </v>
    <v>       0.07877101       0.67118045       0.74344197 </v>
    <v>       0.57877100       0.17118050       0.74344197 </v>
    <v>       0.57877099       0.67118045       0.74344197 </v>
    <v>       0.17119950       0.42117448       0.74342103 </v>
    <v>       0.17119950       0.92117451       0.74342103 </v>
    <v>       0.67119951       0.42117448       0.74342103 </v>
    <v>       0.67119950       0.92117451       0.74342103 </v>
    <v>       0.05125600       0.19871499       0.76888902 </v>
    <v>       0.05125600       0.69871493       0.76888902 </v>
    <v>       0.55125603       0.19871499       0.76888902 </v>
    <v>       0.55125602       0.69871493       0.76888902 </v>
    <v>       0.19872349       0.44870397       0.76887205 </v>
    <v>       0.19872349       0.94870397       0.76887205 </v>
    <v>       0.69872352       0.44870397       0.76887205 </v>
    <v>       0.69872351       0.94870397       0.76887205 </v>
    <v>       0.42123152       0.32881747       0.74344197 </v>
    <v>       0.42123151       0.82881744       0.74344197 </v>
    <v>       0.92123147       0.32881747       0.74344197 </v>
    <v>       0.92123151       0.82881744       0.74344197 </v>
    <v>       0.32880050       0.07882500       0.74342103 </v>
    <v>       0.32880049       0.57882496       0.74342103 </v>
    <v>       0.82880048       0.07882500       0.74342103 </v>
    <v>       0.82880052       0.57882496       0.74342103 </v>
    <v>       0.00000350       0.25000148       0.72582199 </v>
    <v>       0.00000350       0.75000145       0.72582199 </v>
    <v>       0.50000351       0.25000148       0.72582199 </v>
    <v>       0.50000350       0.75000145       0.72582199 </v>
    <v>       0.25000050       0.00000000       0.72580398 </v>
    <v>       0.25000052       0.50000000       0.72580398 </v>
    <v>       0.75000050       0.00000000       0.72580398 </v>
    <v>       0.75000049       0.50000000       0.72580398 </v>
    <v>       0.71787999       0.43814583       0.54205519 </v>
    <v>       0.73556227       0.49635094       0.51975307 </v>
    <v>       0.65418660       0.55291476       0.56079625 </v>
    <v>       0.70582016       0.63600831       0.55855557 </v>
    <v>       0.84548144       0.50307832       0.57203757 </v>
    <v>       0.78254897       0.57117521       0.58175698 </v>
    <v>       0.86575111       0.55921115       0.53207041 </v>
    <v>       0.79331097       0.62509201       0.52719553 </v>
    <v>       0.86751267       0.46489623       0.51886739 </v>
    <v>       0.86386114       0.42550495       0.54452951 </v>
    <v>       0.87252518       0.32870992       0.51936987 </v>
    <v>       0.78421321       0.32271632       0.53080111 </v>
    <v>       0.63851257       0.54968428       0.52088739 </v>
    <v>       0.68975719       0.63399291       0.51873455 </v>
    <v>       0.60539459       0.63239304       0.53251526 </v>
    <v>       0.75289491       0.45228413       0.59848012 </v>
    <v>       0.74665271       0.40504988       0.57371729 </v>
    <v>       0.67916616       0.47203960       0.58119266 </v>
    <v>       0.82390256       0.68719732       0.56210016 </v>
    <v>       0.89670785       0.68338226       0.54362613 </v>
    <v>       0.89904590       0.62139433       0.56580128 </v>
    <v>       0.81744394       0.38699903       0.48641928 </v>
    <v>       0.78451754       0.29817125       0.49213359 </v>
    <v>       0.66300609       0.31936362       0.52246711 </v>
    <v>       0.73027459       0.46092167       0.47033641 </v>
    <v>       0.53726064       0.37624131       0.52164297 </v>
    <v>       0.60500921       0.51715276       0.46932632 </v>
    <v>       0.50834955       0.47401698       0.49502626 </v>
    <v>       0.99319616       0.24392591       0.55594292 </v>
    <v>       0.03491199       0.77199280       0.56240863 </v>
    <v>       0.47240046       0.22926645       0.55755640 </v>
    <v>       0.49675513       0.75756192       0.55699929 </v>
    <v>       0.23732009       0.52044496       0.55924387 </v>
    <v>       0.25297074       0.98706872       0.55548311 </v>
    <v>       0.76763828       0.97972172       0.56377182 </v>
    <v>       0.00714381       0.24699431       0.64999390 </v>
    <v>       0.01058660       0.76244281       0.65225674 </v>
    <v>       0.49612051       0.24329493       0.64918410 </v>
    <v>       0.49717769       0.75535751       0.65027624 </v>
    <v>       0.24985680       0.49713071       0.64981277 </v>
    <v>       0.25517648       0.00044909       0.64816571 </v>
    <v>       0.75057519       0.52012585       0.65172917 </v>
    <v>       0.74826847       0.99545761       0.64907434 </v>
    <v>       0.49998898       0.24999498       0.74327702 </v>
    <v>       0.49998903       0.74999496       0.74327702 </v>
    <v>       0.99998898       0.24999498       0.74327702 </v>
    <v>       0.99998903       0.74999496       0.74327702 </v>
    <v>       0.25000050       0.00000100       0.74325596 </v>
    <v>       0.25000052       0.50000100       0.74325596 </v>
    <v>       0.75000050       0.00000100       0.74325596 </v>
    <v>       0.75000049       0.50000100       0.74325596 </v>
    <v>       0.70575777       0.38658370       0.49652949 </v>
    <v>       0.64961890       0.36198744       0.51054111 </v>
    <v>       0.68810044       0.44150054       0.48159666 </v>
    <v>       0.57932965       0.39409285       0.51012007 </v>
    <v>       0.61747410       0.47363124       0.48079654 </v>
    <v>       0.56295851       0.44981631       0.49511587 </v>
    <v>       0.75904630       0.47452168       0.53462671 </v>
    <v>       0.69256289       0.58388346       0.55042448 </v>
    <v>       0.78727353       0.52022057       0.57226210 </v>
    <v>       0.82359527       0.59421370       0.53939719 </v>
    <v>       0.83172607       0.43254272       0.52977845 </v>
    <v>       0.81833206       0.35625849       0.51997540 </v>
    <v>       0.65564424       0.59999457       0.52926693 </v>
    <v>       0.73890914       0.45941140       0.58148966 </v>
    <v>       0.86228833       0.64868599       0.55420814 </v>
    <v>       0.78326699       0.35576710       0.49758329 </v>
    <v>       0.05625746       0.23783536       0.56643171 </v>
    <v>       0.05100409       0.71033475       0.57260763 </v>
    <v>       0.54198191       0.21531403       0.56191610 </v>
    <v>       0.48819008       0.70289877       0.57058000 </v>
    <v>       0.43748709       0.29014262       0.56409317 </v>
    <v>       0.47800466       0.82684011       0.56059937 </v>
    <v>       0.92678597       0.24620319       0.56475023 </v>
    <v>       0.97852363       0.81549135       0.56676631 </v>
    <v>       0.24095195       0.45250994       0.56733705 </v>
    <v>       0.18416156       0.00117416       0.56070987 </v>
    <v>       0.69496497       0.98126489       0.56664874 </v>
    <v>       0.31114997       0.02310890       0.56315610 </v>
    <v>       0.28242030       0.57489396       0.56426777 </v>
    <v>       0.81292816       0.03194512       0.57010829 </v>
    <v>       0.05520530       0.19883248       0.65676894 </v>
    <v>       0.04937872       0.70919479       0.66059349 </v>
    <v>       0.55075482       0.20707180       0.65780692 </v>
    <v>       0.53697284       0.71042926       0.66178996 </v>
    <v>       0.20717398       0.44422218       0.65729437 </v>
    <v>       0.20779202       0.95785234       0.65825788 </v>
    <v>       0.70478237       0.47434491       0.66167104 </v>
    <v>       0.70317820       0.94929336       0.65860756 </v>
    <v>       0.45575592       0.29477111       0.65871207 </v>
    <v>       0.44816491       0.80303294       0.65766041 </v>
    <v>       0.95934889       0.28363317       0.66203006 </v>
    <v>       0.94975066       0.79132078       0.66039796 </v>
    <v>       0.30178061       0.04729640       0.65722667 </v>
    <v>       0.29071979       0.54151235       0.66137075 </v>
    <v>       0.78992429       0.04605735       0.65864956 </v>
    <v>       0.82271329       0.52342138       0.65535251 </v>
    <v>       0.04586250       0.20411950       0.75272599 </v>
    <v>       0.04586250       0.70411946       0.75272599 </v>
    <v>       0.54586251       0.20411950       0.75272599 </v>
    <v>       0.54586250       0.70411946       0.75272599 </v>
    <v>       0.20411900       0.45410100       0.75270499 </v>
    <v>       0.20411899       0.95410095       0.75270499 </v>
    <v>       0.70411898       0.45410100       0.75270499 </v>
    <v>       0.70411896       0.95410095       0.75270499 </v>
    <v>       0.45414002       0.29588849       0.75272697 </v>
    <v>       0.45414001       0.79588852       0.75272697 </v>
    <v>       0.95414002       0.29588849       0.75272697 </v>
    <v>       0.95414006       0.79588852       0.75272697 </v>
    <v>       0.29588249       0.04590050       0.75270499 </v>
    <v>       0.29588248       0.54590053       0.75270499 </v>
    <v>       0.79588244       0.04590050       0.75270499 </v>
    <v>       0.79588248       0.54590053       0.75270499 </v>
    <v>       0.76643829       0.54110011       0.54925793 </v>
    <v>       0.50339676       0.01749376       0.55298170 </v>
    <v>       0.48258347       0.51336041       0.55553268 </v>
    <v>       0.99495913       0.00516209       0.55207172 </v>
    <v>       0.03460392       0.50600679       0.55390009 </v>
    <v>       0.24638110       0.24854479       0.55365481 </v>
    <v>       0.24499532       0.76436845       0.55258062 </v>
    <v>       0.74045025       0.21234804       0.55665614 </v>
    <v>       0.70486741       0.79281717       0.55049890 </v>
    <v>       0.00496180       0.99652445       0.65466451 </v>
    <v>       0.01345329       0.49145733       0.65572222 </v>
    <v>       0.50208943       0.00112184       0.65493165 </v>
    <v>       0.50329792       0.49393244       0.65527602 </v>
    <v>       0.25704443       0.24522619       0.65450853 </v>
    <v>       0.25066663       0.75300691       0.65470498 </v>
    <v>       0.74691366       0.25942666       0.65546460 </v>
    <v>       0.74932233       0.74466033       0.65393243 </v>
    <v>       0.13922273       0.11407670       0.60718779 </v>
    <v>       0.14618270       0.61212078       0.61081907 </v>
    <v>       0.64466113       0.11112282       0.61005683 </v>
    <v>       0.62274760       0.62627611       0.61373683 </v>
    <v>       0.35982922       0.39245536       0.60964757 </v>
    <v>       0.37403911       0.88243208       0.60614974 </v>
    <v>       0.88528250       0.37033354       0.61270092 </v>
    <v>       0.86765326       0.88187918       0.61007570 </v>
    <v>       0.11623854       0.36215903       0.60892685 </v>
    <v>       0.11991400       0.87554203       0.60841747 </v>
    <v>       0.59044074       0.34449506       0.60454444 </v>
    <v>       0.61209269       0.86396619       0.60986405 </v>
    <v>       0.38276365       0.13325668       0.60698249 </v>
    <v>       0.38017695       0.63451170       0.61358091 </v>
    <v>       0.88874495       0.14276536       0.61379428 </v>
    <v>       0.91140926       0.64987573       0.61701636 </v>
    <v>       0.00000000       0.00000000       0.75492797 </v>
    <v>       0.00000000       0.50000000       0.75492797 </v>
    <v>       0.50000000       0.00000000       0.75492797 </v>
    <v>       0.49999999       0.50000000       0.75492797 </v>
    <v>       0.25000050       0.25000000       0.75493902 </v>
    <v>       0.25000051       0.74999997       0.75493902 </v>
    <v>       0.75000047       0.25000000       0.75493902 </v>
    <v>       0.75000046       0.74999997       0.75493902 </v>
    <v>       0.13579050       0.11421000       0.70478299 </v>
    <v>       0.13579050       0.61420998       0.70478299 </v>
    <v>       0.63579045       0.11421000       0.70478299 </v>
    <v>       0.63579049       0.61420998       0.70478299 </v>
    <v>       0.36420952       0.38578999       0.70478299 </v>
    <v>       0.36420950       0.88578996       0.70478299 </v>
    <v>       0.86420954       0.38578999       0.70478299 </v>
    <v>       0.86420953       0.88578996       0.70478299 </v>
    <v>       0.11421799       0.36421899       0.70478098 </v>
    <v>       0.11421799       0.86421899       0.70478098 </v>
    <v>       0.61421800       0.36421899       0.70478098 </v>
    <v>       0.61421799       0.86421899       0.70478098 </v>
    <v>       0.38578201       0.13578149       0.70478202 </v>
    <v>       0.38578200       0.63578149       0.70478202 </v>
    <v>       0.88578199       0.13578149       0.70478202 </v>
    <v>       0.88578203       0.63578149       0.70478202 </v>
    <v>       0.13466700       0.11533200       0.80125603 </v>
    <v>       0.13466699       0.61533199       0.80125603 </v>
    <v>       0.63466699       0.11533200       0.80125603 </v>
    <v>       0.63466698       0.61533199       0.80125603 </v>
    <v>       0.36533300       0.38466799       0.80125603 </v>
    <v>       0.36533299       0.88466796       0.80125603 </v>
    <v>       0.86533295       0.38466799       0.80125603 </v>
    <v>       0.86533294       0.88466796       0.80125603 </v>
    <v>       0.11532850       0.36533700       0.80126500 </v>
    <v>       0.11532850       0.86533698       0.80126500 </v>
    <v>       0.61532850       0.36533700       0.80126500 </v>
    <v>       0.61532849       0.86533698       0.80126500 </v>
    <v>       0.38467151       0.13466300       0.80126500 </v>
    <v>       0.38467150       0.63466297       0.80126500 </v>
    <v>       0.88467149       0.13466300       0.80126500 </v>
    <v>       0.88467153       0.63466297       0.80126500 </v>
    <v>       0.99583808       0.00401848       0.60526742 </v>
    <v>       0.00531959       0.50725060       0.60418371 </v>
    <v>       0.50375157       0.00634378       0.60517359 </v>
    <v>       0.49808934       0.50348391       0.60443016 </v>
    <v>       0.24931943       0.25199924       0.60465866 </v>
    <v>       0.24669234       0.75582499       0.60364601 </v>
    <v>       0.74729373       0.25880573       0.60582558 </v>
    <v>       0.73848488       0.75650555       0.60179340 </v>
    <v>       0.00000050       0.00000050       0.70482896 </v>
    <v>       0.00000050       0.50000048       0.70482896 </v>
    <v>       0.50000048       0.00000050       0.70482896 </v>
    <v>       0.50000046       0.50000048       0.70482896 </v>
    <v>       0.24999999       0.24999947       0.70482499 </v>
    <v>       0.25000001       0.74999950       0.70482499 </v>
    <v>       0.74999999       0.24999947       0.70482499 </v>
    <v>       0.74999998       0.74999950       0.70482499 </v>
    <v>       0.00000000       0.00000000       0.80731797 </v>
    <v>       0.00000000       0.50000000       0.80731797 </v>
    <v>       0.50000000       0.00000000       0.80731797 </v>
    <v>       0.49999999       0.50000000       0.80731797 </v>
    <v>       0.24999999       0.25000000       0.80731797 </v>
    <v>       0.25000001       0.74999997       0.80731797 </v>
    <v>       0.74999999       0.25000000       0.80731797 </v>
    <v>       0.74999998       0.74999997       0.80731797 </v>
   </varray>
  </structure>
  <varray name="primitive_index" >
   <v type="int" >        1 </v>
   <v type="int" >        2 </v>
   <v type="int" >        3 </v>
   <v type="int" >        4 </v>
   <v type="int" >        5 </v>
   <v type="int" >        6 </v>
   <v type="int" >        7 </v>
   <v type="int" >        8 </v>
   <v type="int" >        9 </v>
   <v type="int" >       10 </v>
   <v type="int" >       11 </v>
   <v type="int" >       12 </v>
   <v type="int" >       13 </v>
   <v type="int" >       14 </v>
   <v type="int" >       15 </v>
   <v type="int" >       16 </v>
   <v type="int" >       17 </v>
   <v type="int" >       18 </v>
   <v type="int" >       19 </v>
   <v type="int" >       20 </v>
   <v type="int" >       21 </v>
   <v type="int" >       22 </v>
   <v type="int" >       23 </v>
   <v type="int" >       24 </v>
   <v type="int" >       25 </v>
   <v type="int" >       26 </v>
   <v type="int" >       27 </v>
   <v type="int" >       28 </v>
   <v type="int" >       29 </v>
   <v type="int" >       30 </v>
   <v type="int" >       31 </v>
   <v type="int" >       32 </v>
   <v type="int" >       33 </v>
   <v type="int" >       34 </v>
   <v type="int" >       35 </v>
   <v type="int" >       36 </v>
   <v type="int" >       37 </v>
   <v type="int" >       38 </v>
   <v type="int" >       39 </v>
   <v type="int" >       40 </v>
   <v type="int" >       41 </v>
   <v type="int" >       42 </v>
   <v type="int" >       43 </v>
   <v type="int" >       44 </v>
   <v type="int" >       45 </v>
   <v type="int" >       46 </v>
   <v type="int" >       47 </v>
   <v type="int" >       48 </v>
   <v type="int" >       49 </v>
   <v type="int" >       50 </v>
   <v type="int" >       51 </v>
   <v type="int" >       52 </v>
   <v type="int" >       53 </v>
   <v type="int" >       54 </v>
   <v type="int" >       55 </v>
   <v type="int" >       56 </v>
   <v type="int" >       57 </v>
   <v type="int" >       58 </v>
   <v type="int" >       59 </v>
   <v type="int" >       60 </v>
   <v type="int" >       61 </v>
   <v type="int" >       62 </v>
   <v type="int" >       63 </v>
   <v type="int" >       64 </v>
   <v type="int" >       65 </v>
   <v type="int" >       66 </v>
   <v type="int" >       67 </v>
   <v type="int" >       68 </v>
   <v type="int" >       69 </v>
   <v type="int" >       70 </v>
   <v type="int" >       71 </v>
   <v type="int" >       72 </v>
   <v type="int" >       73 </v>
   <v type="int" >       74 </v>
   <v type="int" >       75 </v>
   <v type="int" >       76 </v>
   <v type="int" >       77 </v>
   <v type="int" >       78 </v>
   <v type="int" >       79 </v>
   <v type="int" >       80 </v>
   <v type="int" >       81 </v>
   <v type="int" >       82 </v>
   <v type="int" >       83 </v>
   <v type="int" >       84 </v>
   <v type="int" >       85 </v>
   <v type="int" >       86 </v>
   <v type="int" >       87 </v>
   <v type="int" >       88 </v>
   <v type="int" >       89 </v>
   <v type="int" >       90 </v>
   <v type="int" >       91 </v>
   <v type="int" >       92 </v>
   <v type="int" >       93 </v>
   <v type="int" >       94 </v>
   <v type="int" >       95 </v>
   <v type="int" >       96 </v>
   <v type="int" >       97 </v>
   <v type="int" >       98 </v>
   <v type="int" >       99 </v>
   <v type="int" >      100 </v>
   <v type="int" >      101 </v>
   <v type="int" >      102 </v>
   <v type="int" >      103 </v>
   <v type="int" >      104 </v>
   <v type="int" >      105 </v>
   <v type="int" >      106 </v>
   <v type="int" >      107 </v>
   <v type="int" >      108 </v>
   <v type="int" >      109 </v>
   <v type="int" >      110 </v>
   <v type="int" >      111 </v>
   <v type="int" >      112 </v>
   <v type="int" >      113 </v>
   <v type="int" >      114 </v>
   <v type="int" >      115 </v>
   <v type="int" >      116 </v>
   <v type="int" >      117 </v>
   <v type="int" >      118 </v>
   <v type="int" >      119 </v>
   <v type="int" >      120 </v>
   <v type="int" >      121 </v>
   <v type="int" >      122 </v>
   <v type="int" >      123 </v>
   <v type="int" >      124 </v>
   <v type="int" >      125 </v>
   <v type="int" >      126 </v>
   <v type="int" >      127 </v>
   <v type="int" >      128 </v>
   <v type="int" >      129 </v>
   <v type="int" >      130 </v>
   <v type="int" >      131 </v>
   <v type="int" >      132 </v>
   <v type="int" >      133 </v>
   <v type="int" >      134 </v>
   <v type="int" >      135 </v>
   <v type="int" >      136 </v>
   <v type="int" >      137 </v>
   <v type="int" >      138 </v>
   <v type="int" >      139 </v>
   <v type="int" >      140 </v>
   <v type="int" >      141 </v>
   <v type="int" >      142 </v>
   <v type="int" >      143 </v>
   <v type="int" >      144 </v>
   <v type="int" >      145 </v>
   <v type="int" >      146 </v>
   <v type="int" >      147 </v>
   <v type="int" >      148 </v>
   <v type="int" >      149 </v>
   <v type="int" >      150 </v>
   <v type="int" >      151 </v>
   <v type="int" >      152 </v>
   <v type="int" >      153 </v>
   <v type="int" >      154 </v>
   <v type="int" >      155 </v>
   <v type="int" >      156 </v>
   <v type="int" >      157 </v>
   <v type="int" >      158 </v>
   <v type="int" >      159 </v>
   <v type="int" >      160 </v>
   <v type="int" >      161 </v>
   <v type="int" >      162 </v>
   <v type="int" >      163 </v>
   <v type="int" >      164 </v>
   <v type="int" >      165 </v>
   <v type="int" >      166 </v>
   <v type="int" >      167 </v>
   <v type="int" >      168 </v>
   <v type="int" >      169 </v>
   <v type="int" >      170 </v>
   <v type="int" >      171 </v>
   <v type="int" >      172 </v>
   <v type="int" >      173 </v>
   <v type="int" >      174 </v>
   <v type="int" >      175 </v>
   <v type="int" >      176 </v>
   <v type="int" >      177 </v>
   <v type="int" >      178 </v>
   <v type="int" >      179 </v>
   <v type="int" >      180 </v>
   <v type="int" >      181 </v>
   <v type="int" >      182 </v>
   <v type="int" >      183 </v>
   <v type="int" >      184 </v>
   <v type="int" >      185 </v>
   <v type="int" >      186 </v>
   <v type="int" >      187 </v>
   <v type="int" >      188 </v>
   <v type="int" >      189 </v>
   <v type="int" >      190 </v>
   <v type="int" >      191 </v>
   <v type="int" >      192 </v>
   <v type="int" >      193 </v>
   <v type="int" >      194 </v>
   <v type="int" >      195 </v>
   <v type="int" >      196 </v>
   <v type="int" >      197 </v>
   <v type="int" >      198 </v>
   <v type="int" >      199 </v>
   <v type="int" >      200 </v>
   <v type="int" >      201 </v>
   <v type="int" >      202 </v>
   <v type="int" >      203 </v>
   <v type="int" >      204 </v>
   <v type="int" >      205 </v>
   <v type="int" >      206 </v>
   <v type="int" >      207 </v>
   <v type="int" >      208 </v>
   <v type="int" >      209 </v>
   <v type="int" >      210 </v>
   <v type="int" >      211 </v>
   <v type="int" >      212 </v>
   <v type="int" >      213 </v>
   <v type="int" >      214 </v>
   <v type="int" >      215 </v>
   <v type="int" >      216 </v>
   <v type="int" >      217 </v>
   <v type="int" >      218 </v>
   <v type="int" >      219 </v>
   <v type="int" >      220 </v>
   <v type="int" >      221 </v>
   <v type="int" >      222 </v>
   <v type="int" >      223 </v>
   <v type="int" >      224 </v>
   <v type="int" >      225 </v>
   <v type="int" >      226 </v>
   <v type="int" >      227 </v>
   <v type="int" >      228 </v>
   <v type="int" >      229 </v>
   <v type="int" >      230 </v>
   <v type="int" >      231 </v>
   <v type="int" >      232 </v>
   <v type="int" >      233 </v>
   <v type="int" >      234 </v>
   <v type="int" >      235 </v>
   <v type="int" >      236 </v>
   <v type="int" >      237 </v>
   <v type="int" >      238 </v>
   <v type="int" >      239 </v>
   <v type="int" >      240 </v>
   <v type="int" >      241 </v>
   <v type="int" >      242 </v>
   <v type="int" >      243 </v>
   <v type="int" >      244 </v>
   <v type="int" >      245 </v>
   <v type="int" >      246 </v>
   <v type="int" >      247 </v>
   <v type="int" >      248 </v>
   <v type="int" >      249 </v>
   <v type="int" >      250 </v>
   <v type="int" >      251 </v>
   <v type="int" >      252 </v>
   <v type="int" >      253 </v>
   <v type="int" >      254 </v>
   <v type="int" >      255 </v>
   <v type="int" >      256 </v>
   <v type="int" >      257 </v>
   <v type="int" >      258 </v>
   <v type="int" >      259 </v>
   <v type="int" >      260 </v>
   <v type="int" >      261 </v>
   <v type="int" >      262 </v>
   <v type="int" >      263 </v>
   <v type="int" >      264 </v>
   <v type="int" >      265 </v>
   <v type="int" >      266 </v>
   <v type="int" >      267 </v>
   <v type="int" >      268 </v>
   <v type="int" >      269 </v>
   <v type="int" >      270 </v>
   <v type="int" >      271 </v>
   <v type="int" >      272 </v>
   <v type="int" >      273 </v>
   <v type="int" >      274 </v>
   <v type="int" >      275 </v>
   <v type="int" >      276 </v>
   <v type="int" >      277 </v>
   <v type="int" >      278 </v>
   <v type="int" >      279 </v>
   <v type="int" >      280 </v>
   <v type="int" >      281 </v>
   <v type="int" >      282 </v>
   <v type="int" >      283 </v>
   <v type="int" >      284 </v>
   <v type="int" >      285 </v>
   <v type="int" >      286 </v>
   <v type="int" >      287 </v>
   <v type="int" >      288 </v>
   <v type="int" >      289 </v>
   <v type="int" >      290 </v>
   <v type="int" >      291 </v>
   <v type="int" >      292 </v>
   <v type="int" >      293 </v>
   <v type="int" >      294 </v>
   <v type="int" >      295 </v>
   <v type="int" >      296 </v>
   <v type="int" >      297 </v>
   <v type="int" >      298 </v>
   <v type="int" >      299 </v>
   <v type="int" >      300 </v>
   <v type="int" >      301 </v>
   <v type="int" >      302 </v>
   <v type="int" >      303 </v>
   <v type="int" >      304 </v>
   <v type="int" >      305 </v>
   <v type="int" >      306 </v>
   <v type="int" >      307 </v>
   <v type="int" >      308 </v>
   <v type="int" >      309 </v>
   <v type="int" >      310 </v>
   <v type="int" >      311 </v>
   <v type="int" >      312 </v>
   <v type="int" >      313 </v>
   <v type="int" >      314 </v>
   <v type="int" >      315 </v>
   <v type="int" >      316 </v>
   <v type="int" >      317 </v>
   <v type="int" >      318 </v>
   <v type="int" >      319 </v>
   <v type="int" >      320 </v>
   <v type="int" >      321 </v>
   <v type="int" >      322 </v>
   <v type="int" >      323 </v>
   <v type="int" >      324 </v>
   <v type="int" >      325 </v>
  </varray>
 </primitive_cell>
 <kpoints>
  <generation param="Gamma">
   <v type="int" name="divisions">       3        3        1 </v>
   <v name="usershift">      0.00000000       0.00000000       0.00000000 </v>
   <v name="genvec1">      0.33333333       0.00000000       0.00000000 </v>
   <v name="genvec2">      0.00000000       0.33333333       0.00000000 </v>
   <v name="genvec3">      0.00000000       0.00000000       1.00000000 </v>
   <v name="shift">      0.00000000       0.00000000       0.00000000 </v>
  </generation>
  <varray name="kpointlist" >
   <v>       0.00000000       0.00000000       0.00000000 </v>
   <v>       0.33333333       0.00000000       0.00000000 </v>
   <v>       0.00000000       0.33333333       0.00000000 </v>
   <v>       0.33333333       0.33333333       0.00000000 </v>
   <v>      -0.33333333       0.33333333       0.00000000 </v>
  </varray>
  <varray name="weights" >
   <v>       0.11111111 </v>
   <v>       0.22222222 </v>
   <v>       0.22222222 </v>
   <v>       0.22222222 </v>
   <v>       0.22222222 </v>
  </varray>
 </kpoints>
 <parameters>
  <separator name="general" >
   <i type="string" name="SYSTEM">PSC</i>
   <i type="logical" name="LCOMPAT"> F  </i>
  </separator>
  <separator name="electronic" >
   <i type="string" name="PREC">normal</i>
   <i name="ENMAX">    500.00000000</i>
   <i name="ENAUG">    644.87300000</i>
   <i name="EDIFF">      0.00010000</i>
   <i type="int" name="IALGO">    38</i>
   <i type="int" name="IWAVPR">    10</i>
   <i type="int" name="NBANDS">   732</i>
   <i type="int" name="NBANDSLOW">    -1</i>
   <i type="int" name="NBANDSHIGH">    -1</i>
   <i name="NELECT">   1134.00000000</i>
   <i type="int" name="TURBO">     0</i>
   <i type="int" name="IRESTART">     0</i>
   <i type="int" name="NREBOOT">     0</i>
   <i type="int" name="NMIN">     0</i>
   <i name="EREF">      0.00000000</i>
   <separator name="electronic smearing" >
    <i type="int" name="ISMEAR">     0</i>
    <i name="SIGMA">      0.05000000</i>
    <i name="KSPACING">      0.50000000</i>
    <i type="logical" name="KGAMMA"> T  </i>
    <i type="logical" name="KBLOWUP"> T  </i>
   </separator>
   <separator name="electronic projectors" >
    <i type="logical" name="LREAL"> T  </i>
    <v name="ROPT">     -0.00050000     -0.00050000     -0.00050000     -0.00050000     -0.00050000</v>
    <i type="int" name="LMAXPAW">  -100</i>
    <i type="int" name="LMAXMIX">     2</i>
    <i type="logical" name="NLSPLINE"> F  </i>
   </separator>
   <separator name="electronic startup" >
    <i type="int" name="ISTART">     0</i>
    <i type="int" name="ICHARG">     1</i>
    <i type="int" name="INIWAV">     1</i>
   </separator>
   <separator name="electronic spin" >
    <i type="int" name="ISPIN">     1</i>
    <i type="logical" name="LNONCOLLINEAR"> F  </i>
    <v name="MAGMOM">      1.00000000      1.00000000      1.00000000      1.00000000      1.00000000      1.00000000      1.00000000      1.00000000      1.00000000      1.00000000      1.00000000      1.00000000      1.00000000      1.00000000      1.00000000      1.00000000      1.00000000      1.00000000      1.00000000      1.00000000
      1.00000000      1.00000000      1.00000000      1.00000000      1.00000000      1.00000000      1.00000000      1.00000000      1.00000000      1.00000000      1.00000000      1.00000000      1.00000000      1.00000000      1.00000000      1.00000000      1.00000000      1.00000000      1.00000000      1.00000000
      1.00000000      1.00000000      1.00000000      1.00000000      1.00000000      1.00000000      1.00000000      1.00000000      1.00000000      1.00000000      1.00000000      1.00000000      1.00000000      1.00000000      1.00000000      1.00000000      1.00000000      1.00000000      1.00000000      1.00000000
      1.00000000      1.00000000      1.00000000      1.00000000      1.00000000      1.00000000      1.00000000      1.00000000      1.00000000      1.00000000      1.00000000      1.00000000      1.00000000      1.00000000      1.00000000      1.00000000      1.00000000      1.00000000      1.00000000      1.00000000
      1.00000000      1.00000000      1.00000000      1.00000000      1.00000000      1.00000000      1.00000000      1.00000000      1.00000000      1.00000000      1.00000000      1.00000000      1.00000000      1.00000000      1.00000000      1.00000000      1.00000000      1.00000000      1.00000000      1.00000000
      1.00000000      1.00000000      1.00000000      1.00000000      1.00000000      1.00000000      1.00000000      1.00000000      1.00000000      1.00000000      1.00000000      1.00000000      1.00000000      1.00000000      1.00000000      1.00000000      1.00000000      1.00000000      1.00000000      1.00000000
      1.00000000      1.00000000      1.00000000      1.00000000      1.00000000      1.00000000      1.00000000      1.00000000      1.00000000      1.00000000      1.00000000      1.00000000      1.00000000      1.00000000      1.00000000      1.00000000      1.00000000      1.00000000      1.00000000      1.00000000
      1.00000000      1.00000000      1.00000000      1.00000000      1.00000000      1.00000000      1.00000000      1.00000000      1.00000000      1.00000000      1.00000000      1.00000000      1.00000000      1.00000000      1.00000000      1.00000000      1.00000000      1.00000000      1.00000000      1.00000000
      1.00000000      1.00000000      1.00000000      1.00000000      1.00000000      1.00000000      1.00000000      1.00000000      1.00000000      1.00000000      1.00000000      1.00000000      1.00000000      1.00000000      1.00000000      1.00000000      1.00000000      1.00000000      1.00000000      1.00000000
      1.00000000      1.00000000      1.00000000      1.00000000      1.00000000      1.00000000      1.00000000      1.00000000      1.00000000      1.00000000      1.00000000      1.00000000      1.00000000      1.00000000      1.00000000      1.00000000      1.00000000      1.00000000      1.00000000      1.00000000
      1.00000000      1.00000000      1.00000000      1.00000000      1.00000000      1.00000000      1.00000000      1.00000000      1.00000000      1.00000000      1.00000000      1.00000000      1.00000000      1.00000000      1.00000000      1.00000000      1.00000000      1.00000000      1.00000000      1.00000000
      1.00000000      1.00000000      1.00000000      1.00000000      1.00000000      1.00000000      1.00000000      1.00000000      1.00000000      1.00000000      1.00000000      1.00000000      1.00000000      1.00000000      1.00000000      1.00000000      1.00000000      1.00000000      1.00000000      1.00000000
      1.00000000      1.00000000      1.00000000      1.00000000      1.00000000      1.00000000      1.00000000      1.00000000      1.00000000      1.00000000      1.00000000      1.00000000      1.00000000      1.00000000      1.00000000      1.00000000      1.00000000      1.00000000      1.00000000      1.00000000
      1.00000000      1.00000000      1.00000000      1.00000000      1.00000000      1.00000000      1.00000000      1.00000000      1.00000000      1.00000000      1.00000000      1.00000000      1.00000000      1.00000000      1.00000000      1.00000000      1.00000000      1.00000000      1.00000000      1.00000000
      1.00000000      1.00000000      1.00000000      1.00000000      1.00000000      1.00000000      1.00000000      1.00000000      1.00000000      1.00000000      1.00000000      1.00000000      1.00000000      1.00000000      1.00000000      1.00000000      1.00000000      1.00000000      1.00000000      1.00000000
      1.00000000      1.00000000      1.00000000      1.00000000      1.00000000      1.00000000      1.00000000      1.00000000      1.00000000      1.00000000      1.00000000      1.00000000      1.00000000      1.00000000      1.00000000      1.00000000      1.00000000      1.00000000      1.00000000      1.00000000
      1.00000000      1.00000000      1.00000000      1.00000000      1.00000000</v>
    <i name="NUPDOWN">     -1.00000000</i>
    <i type="logical" name="LSORBIT"> F  </i>
    <v name="SAXIS">      0.00000000      0.00000000      1.00000000</v>
    <i type="logical" name="LSPIRAL"> F  </i>
    <v name="QSPIRAL">      0.00000000      0.00000000      0.00000000</v>
    <i type="logical" name="LZEROZ"> F  </i>
   </separator>
   <separator name="electronic exchange-correlation" >
    <i type="logical" name="LASPH"> F  </i>
    <i type="logical" name="LMETAGGA"> F  </i>
   </separator>
   <separator name="electronic convergence" >
    <i type="int" name="NELM">   600</i>
    <i type="int" name="NELMDL">     0</i>
    <i type="int" name="NELMIN">     2</i>
    <i name="ENINI">    500.00000000</i>
    <separator name="electronic convergence detail" >
     <i type="logical" name="LDIAG"> T  </i>
     <i type="logical" name="LSUBROT"> F  </i>
     <i name="WEIMIN">      0.00000000</i>
     <i name="EBREAK">      0.00000003</i>
     <i name="DEPER">      0.30000000</i>
     <i type="int" name="NRMM">     4</i>
     <i name="TIME">      0.40000000</i>
    </separator>
   </separator>
   <separator name="electronic mixer" >
    <i name="AMIX">      0.40000000</i>
    <i name="BMIX">      0.01000000</i>
    <i name="AMIN">      0.01000000</i>
    <i name="AMIX_MAG">      1.60000000</i>
    <i name="BMIX_MAG">      0.01000000</i>
    <separator name="electronic mixer details" >
     <i type="int" name="IMIX">     4</i>
     <i type="logical" name="MIXFIRST"> F  </i>
     <i type="int" name="MAXMIX">   -45</i>
     <i name="WC">    100.00000000</i>
     <i type="int" name="INIMIX">     1</i>
     <i type="int" name="MIXPRE">     1</i>
     <i type="int" name="MREMOVE">     5</i>
    </separator>
   </separator>
   <separator name="electronic dipolcorrection" >
    <i type="logical" name="LDIPOL"> T  </i>
    <i type="logical" name="LMONO"> F  </i>
    <i type="int" name="IDIPOL">     3</i>
    <i name="EPSILON">      1.00000000</i>
    <v name="DIPOL">   -100.00000000   -100.00000000   -100.00000000</v>
    <i name="EFIELD">      0.00000000</i>
   </separator>
  </separator>
  <separator name="grids" >
   <i type="int" name="NGX">   100</i>
   <i type="int" name="NGY">   100</i>
   <i type="int" name="NGZ">   350</i>
   <i type="int" name="NGXF">   200</i>
   <i type="int" name="NGYF">   200</i>
   <i type="int" name="NGZF">   700</i>
   <i type="logical" name="ADDGRID"> F  </i>
  </separator>
  <separator name="ionic" >
   <i type="int" name="NSW">     0</i>
   <i type="int" name="IBRION">    -1</i>
   <i type="int" name="MDALGO">     0</i>
   <i type="int" name="ISIF">     2</i>
   <i name="PSTRESS">      0.00000000</i>
   <i name="EDIFFG">      0.00100000</i>
   <i type="int" name="NFREE">     0</i>
   <i name="POTIM">      0.50000000</i>
   <i name="SMASS">     -3.00000000</i>
   <i name="SCALEE">      1.00000000</i>
  </separator>
  <separator name="ionic md" >
   <i name="TEBEG">      0.00010000</i>
   <i name="TEEND">      0.00010000</i>
   <i type="int" name="NBLOCK">     1</i>
   <i type="int" name="KBLOCK">     1</i>
   <i type="int" name="NPACO">   256</i>
   <i name="APACO">     16.00000000</i>
  </separator>
  <separator name="symmetry" >
   <i type="int" name="ISYM">     0</i>
   <i name="SYMPREC">      0.00001000</i>
  </separator>
  <separator name="dos" >
   <i type="int" name="LORBIT">     0</i>
   <v name="RWIGS">     -1.00000000     -1.00000000     -1.00000000     -1.00000000     -1.00000000</v>
   <i type="int" name="NEDOS">   301</i>
   <i name="EMIN">     10.00000000</i>
   <i name="EMAX">    -10.00000000</i>
   <i name="EFERMI">      0.00000000</i>
  </separator>
  <separator name="writing" >
   <i type="int" name="NWRITE">     2</i>
   <i type="logical" name="LWAVE"> F  </i>
   <i type="logical" name="LDOWNSAMPLE"> F  </i>
   <i type="logical" name="LCHARG"> T  </i>
   <i type="logical" name="LPARD"> F  </i>
   <i type="logical" name="LVTOT"> T  </i>
   <i type="logical" name="LVHAR"> F  </i>
   <i type="logical" name="LELF"> F  </i>
   <i type="logical" name="LOPTICS"> F  </i>
   <v name="STM">      0.00000000      0.00000000      0.00000000      0.00000000      0.00000000      0.00000000      0.00000000</v>
  </separator>
  <separator name="performance" >
   <i type="int" name="NPAR">     4</i>
   <i type="int" name="NSIM">     4</i>
   <i type="int" name="NBLK">    -1</i>
   <i type="logical" name="LPLANE"> T  </i>
   <i type="logical" name="LSCALAPACK"> T  </i>
   <i type="logical" name="LSCAAWARE"> F  </i>
   <i type="logical" name="LSCALU"> F  </i>
   <i type="logical" name="LASYNC"> F  </i>
   <i type="logical" name="LORBITALREAL"> F  </i>
  </separator>
  <separator name="miscellaneous" >
   <i type="int" name="IDIOT">     3</i>
   <i type="int" name="PHON_NSTRUCT">    -1</i>
   <i type="logical" name="LMUSIC"> F  </i>
   <v name="POMASS">      1.00000000     12.01100000     14.00100000    126.90400000    207.20000000</v>
   <v name="DARWINR">      0.00000000      0.00000000      0.00000000      0.00000000      0.00000000</v>
   <v name="DARWINV">      1.00000000      1.00000000      1.00000000      1.00000000      1.00000000</v>
   <i type="logical" name="LCORR"> T  </i>
  </separator>
  <i type="logical" name="GGA_COMPAT"> F  </i>
  <i type="logical" name="LBERRY"> F  </i>
  <i type="int" name="ICORELEVEL">     0</i>
  <i type="logical" name="LDAU"> F  </i>
  <i type="int" name="I_CONSTRAINED_M">     0</i>
  <separator name="electronic exchange-correlation" >
   <i type="string" name="GGA">--</i>
   <i type="int" name="VOSKOWN">     0</i>
   <i type="logical" name="LHFCALC"> F  </i>
   <i type="string" name="PRECFOCK"></i>
   <i type="logical" name="LSYMGRAD"> F  </i>
   <i type="logical" name="LHFONE"> F  </i>
   <i type="logical" name="LRHFCALC"> F  </i>
   <i type="logical" name="LTHOMAS"> F  </i>
   <i type="logical" name="LMODELHF"> F  </i>
   <i type="logical" name="LFOCKACE"> F  </i>
   <i name="ENCUT4O">     -1.00000000</i>
   <i type="int" name="EXXOEP">     0</i>
   <i type="int" name="FOURORBIT">     0</i>
   <i name="AEXX">      0.00000000</i>
   <i name="HFALPHA">      0.00000000</i>
   <i name="MCALPHA">      0.00000000</i>
   <i name="ALDAX">      1.00000000</i>
   <i name="AGGAX">      1.00000000</i>
   <i name="ALDAC">      1.00000000</i>
   <i name="AGGAC">      1.00000000</i>
   <i type="int" name="NKREDX">     1</i>
   <i type="int" name="NKREDY">     1</i>
   <i type="int" name="NKREDZ">     1</i>
   <i type="logical" name="SHIFTRED"> F  </i>
   <i type="logical" name="ODDONLY"> F  </i>
   <i type="logical" name="EVENONLY"> F  </i>
   <i type="int" name="LMAXFOCK">     0</i>
   <i type="int" name="NMAXFOCKAE">     0</i>
   <i type="logical" name="LFOCKAEDFT"> F  </i>
   <i name="HFSCREEN">      0.00000000</i>
   <i name="HFSCREENC">      0.00000000</i>
   <i type="int" name="NBANDSGWLOW">     0</i>
  </separator>
  <separator name="vdW DFT" >
   <i type="logical" name="LUSE_VDW"> F  </i>
   <i name="Zab_VDW">     -0.84910000</i>
   <i name="PARAM1">      0.12340000</i>
   <i name="PARAM2">      1.00000000</i>
   <i name="PARAM3">      0.00000000</i>
  </separator>
  <separator name="model GW" >
   <i type="int" name="MODEL_GW">     0</i>
   <i name="MODEL_EPS0">     37.63423484</i>
   <i name="MODEL_ALPHA">      1.00000000</i>
  </separator>
  <separator name="linear response parameters" >
   <i type="logical" name="LEPSILON"> F  </i>
   <i type="logical" name="LRPA"> F  </i>
   <i type="logical" name="LNABLA"> F  </i>
   <i type="logical" name="LVEL"> F  </i>
   <i type="int" name="KINTER">     0</i>
   <i name="CSHIFT">      0.10000000</i>
   <i name="OMEGAMAX">     -1.00000000</i>
   <i name="DEG_THRESHOLD">      0.00200000</i>
   <i name="RTIME">     -0.10000000</i>
   <i name="WPLASMAI">      0.00000000</i>
   <v name="DFIELD">      0.00000000      0.00000000      0.00000000</v>
   <v name="WPLASMA">      0.00000000      0.00000000      0.00000000      0.00000000      0.00000000      0.00000000      0.00000000      0.00000000      0.00000000</v>
  </separator>
  <separator name="orbital magnetization" >
   <i type="logical" name="NUCIND"> F  </i>
   <v name="MAGPOS">      0.00000000      0.00000000      0.00000000</v>
   <i type="logical" name="LNICSALL"> T  </i>
   <i type="logical" name="ORBITALMAG"> F  </i>
   <i type="logical" name="LMAGBLOCH"> F  </i>
   <i type="logical" name="LCHIMAG"> F  </i>
   <i type="logical" name="LGAUGE"> T  </i>
   <i type="int" name="MAGATOM">     0</i>
   <v name="MAGDIPOL">      0.00000000      0.00000000      0.00000000</v>
   <v name="AVECCONST">      0.00000000      0.00000000      0.00000000</v>
  </separator>
  <separator name="response functions" >
   <i type="logical" name="LFINITE_TEMPERATURE"> F  </i>
   <i type="logical" name="LADDER"> F  </i>
   <i type="logical" name="LRPAFORCE"> F  </i>
   <i type="logical" name="LFXC"> F  </i>
   <i type="logical" name="LHARTREE"> T  </i>
   <i type="int" name="IBSE">     0</i>
   <v type="int" name="KPOINT">    -1     0     0     0</v>
   <i type="logical" name="LTCTC"> F  </i>
   <i type="logical" name="LTCTE"> F  </i>
   <i type="logical" name="LTETE"> F  </i>
   <i type="logical" name="LTRIPLET"> F  </i>
   <i type="logical" name="LFXCEPS"> F  </i>
   <i type="logical" name="LFXHEG"> F  </i>
   <i type="int" name="NATURALO">     2</i>
   <i type="logical" name="LHOLEGF"> F  </i>
   <i type="logical" name="L2ORDER"> F  </i>
   <i type="logical" name="LDMP1"> F  </i>
   <i type="logical" name="LMP2LT"> F  </i>
   <i type="logical" name="LSMP2LT"> F  </i>
   <i type="logical" name="LGWLF"> F  </i>
   <i name="ENCUTGW">     -2.00000000</i>
   <i name="ENCUTGWSOFT">     -2.00000000</i>
   <i name="ENCUTLF">     -1.00000000</i>
   <i type="logical" name="LESF_SPLINES"> F  </i>
   <i type="int" name="LMAXMP2">    -1</i>
   <i name="SCISSOR">      0.00000000</i>
   <i type="int" name="NOMEGA">     0</i>
   <i type="int" name="NOMEGAR">     0</i>
   <i type="int" name="NBANDSGW">    -1</i>
   <i type="int" name="NBANDSO">    -1</i>
   <i type="int" name="NBANDSV">    -1</i>
   <i type="int" name="NELM">   600</i>
   <i type="int" name="NELMHF">     1</i>
   <i type="int" name="DIM">     3</i>
   <i type="int" name="IESPILON">     4</i>
   <i type="int" name="ANTIRES">     0</i>
   <i name="OMEGAMAX">    -30.00000000</i>
   <i name="OMEGAMIN">    -30.00000000</i>
   <i name="OMEGATL">   -200.00000000</i>
   <i type="int" name="OMEGAGRID">     0</i>
   <i name="CSHIFT">     -0.10000000</i>
   <i type="logical" name="LSELFENERGY"> F  </i>
   <i type="logical" name="LSPECTRAL"> F  </i>
   <i type="logical" name="LSPECTRALGW"> F  </i>
   <i type="logical" name="LSINGLES"> F  </i>
   <i type="logical" name="LFERMIGW"> F  </i>
   <i type="logical" name="ODDONLYGW"> F  </i>
   <i type="logical" name="EVENONLYGW"> F  </i>
   <i type="int" name="NKREDLFX">     1</i>
   <i type="int" name="NKREDLFY">     1</i>
   <i type="int" name="NKREDLFZ">     1</i>
   <i type="int" name="MAXMEM">  2800</i>
   <i type="int" name="TELESCOPE">     0</i>
   <i type="int" name="NTAUPAR">    -1</i>
   <i type="int" name="NOMEGAPAR">    -1</i>
   <i name="DAMP_NEWTON">      0.80000001</i>
   <i name="LAMBDA">      1.00000000</i>
  </separator>
  <separator name="External order field" >
   <i name="OFIELD_KAPPA">      0.00000000</i>
   <v name="OFIELD_K">      0.00000000      0.00000000      0.00000000</v>
   <i name="OFIELD_Q6_NEAR">      0.00000000</i>
   <i name="OFIELD_Q6_FAR">      0.00000000</i>
   <i name="OFIELD_A">      0.00000000</i>
  </separator>
 </parameters>
 <atominfo>
  <atoms>     325 </atoms>
  <types>       5 </types>
  <array name="atoms" >
   <dimension dim="1">ion</dimension>
   <field type="string">element</field>
   <field type="int">atomtype</field>
   <set>
    <rc><c>H </c><c>   1</c></rc>
    <rc><c>H </c><c>   1</c></rc>
    <rc><c>H </c><c>   1</c></rc>
    <rc><c>H </c><c>   1</c></rc>
    <rc><c>H </c><c>   1</c></rc>
    <rc><c>H </c><c>   1</c></rc>
    <rc><c>H </c><c>   1</c></rc>
    <rc><c>H </c><c>   1</c></rc>
    <rc><c>H </c><c>   1</c></rc>
    <rc><c>H </c><c>   1</c></rc>
    <rc><c>H </c><c>   1</c></rc>
    <rc><c>H </c><c>   1</c></rc>
    <rc><c>H </c><c>   1</c></rc>
    <rc><c>H </c><c>   1</c></rc>
    <rc><c>H </c><c>   1</c></rc>
    <rc><c>H </c><c>   1</c></rc>
    <rc><c>H </c><c>   1</c></rc>
    <rc><c>H </c><c>   1</c></rc>
    <rc><c>H </c><c>   1</c></rc>
    <rc><c>H </c><c>   1</c></rc>
    <rc><c>H </c><c>   1</c></rc>
    <rc><c>H </c><c>   1</c></rc>
    <rc><c>H </c><c>   1</c></rc>
    <rc><c>H </c><c>   1</c></rc>
    <rc><c>H </c><c>   1</c></rc>
    <rc><c>H </c><c>   1</c></rc>
    <rc><c>H </c><c>   1</c></rc>
    <rc><c>H </c><c>   1</c></rc>
    <rc><c>H </c><c>   1</c></rc>
    <rc><c>H </c><c>   1</c></rc>
    <rc><c>H </c><c>   1</c></rc>
    <rc><c>H </c><c>   1</c></rc>
    <rc><c>H </c><c>   1</c></rc>
    <rc><c>H </c><c>   1</c></rc>
    <rc><c>H </c><c>   1</c></rc>
    <rc><c>H </c><c>   1</c></rc>
    <rc><c>H </c><c>   1</c></rc>
    <rc><c>H </c><c>   1</c></rc>
    <rc><c>H </c><c>   1</c></rc>
    <rc><c>H </c><c>   1</c></rc>
    <rc><c>H </c><c>   1</c></rc>
    <rc><c>H </c><c>   1</c></rc>
    <rc><c>H </c><c>   1</c></rc>
    <rc><c>H </c><c>   1</c></rc>
    <rc><c>H </c><c>   1</c></rc>
    <rc><c>H </c><c>   1</c></rc>
    <rc><c>H </c><c>   1</c></rc>
    <rc><c>H </c><c>   1</c></rc>
    <rc><c>H </c><c>   1</c></rc>
    <rc><c>H </c><c>   1</c></rc>
    <rc><c>H </c><c>   1</c></rc>
    <rc><c>H </c><c>   1</c></rc>
    <rc><c>H </c><c>   1</c></rc>
    <rc><c>H </c><c>   1</c></rc>
    <rc><c>H </c><c>   1</c></rc>
    <rc><c>H </c><c>   1</c></rc>
    <rc><c>H </c><c>   1</c></rc>
    <rc><c>H </c><c>   1</c></rc>
    <rc><c>H </c><c>   1</c></rc>
    <rc><c>H </c><c>   1</c></rc>
    <rc><c>H </c><c>   1</c></rc>
    <rc><c>H </c><c>   1</c></rc>
    <rc><c>H </c><c>   1</c></rc>
    <rc><c>H </c><c>   1</c></rc>
    <rc><c>H </c><c>   1</c></rc>
    <rc><c>H </c><c>   1</c></rc>
    <rc><c>H </c><c>   1</c></rc>
    <rc><c>H </c><c>   1</c></rc>
    <rc><c>H </c><c>   1</c></rc>
    <rc><c>H </c><c>   1</c></rc>
    <rc><c>H </c><c>   1</c></rc>
    <rc><c>H </c><c>   1</c></rc>
    <rc><c>H </c><c>   1</c></rc>
    <rc><c>H </c><c>   1</c></rc>
    <rc><c>H </c><c>   1</c></rc>
    <rc><c>H </c><c>   1</c></rc>
    <rc><c>H </c><c>   1</c></rc>
    <rc><c>H </c><c>   1</c></rc>
    <rc><c>H </c><c>   1</c></rc>
    <rc><c>H </c><c>   1</c></rc>
    <rc><c>H </c><c>   1</c></rc>
    <rc><c>H </c><c>   1</c></rc>
    <rc><c>H </c><c>   1</c></rc>
    <rc><c>H </c><c>   1</c></rc>
    <rc><c>H </c><c>   1</c></rc>
    <rc><c>H </c><c>   1</c></rc>
    <rc><c>H </c><c>   1</c></rc>
    <rc><c>H </c><c>   1</c></rc>
    <rc><c>H </c><c>   1</c></rc>
    <rc><c>H </c><c>   1</c></rc>
    <rc><c>H </c><c>   1</c></rc>
    <rc><c>H </c><c>   1</c></rc>
    <rc><c>H </c><c>   1</c></rc>
    <rc><c>H </c><c>   1</c></rc>
    <rc><c>H </c><c>   1</c></rc>
    <rc><c>H </c><c>   1</c></rc>
    <rc><c>H </c><c>   1</c></rc>
    <rc><c>H </c><c>   1</c></rc>
    <rc><c>H </c><c>   1</c></rc>
    <rc><c>H </c><c>   1</c></rc>
    <rc><c>H </c><c>   1</c></rc>
    <rc><c>H </c><c>   1</c></rc>
    <rc><c>H </c><c>   1</c></rc>
    <rc><c>H </c><c>   1</c></rc>
    <rc><c>H </c><c>   1</c></rc>
    <rc><c>H </c><c>   1</c></rc>
    <rc><c>H </c><c>   1</c></rc>
    <rc><c>H </c><c>   1</c></rc>
    <rc><c>H </c><c>   1</c></rc>
    <rc><c>H </c><c>   1</c></rc>
    <rc><c>H </c><c>   1</c></rc>
    <rc><c>H </c><c>   1</c></rc>
    <rc><c>H </c><c>   1</c></rc>
    <rc><c>H </c><c>   1</c></rc>
    <rc><c>H </c><c>   1</c></rc>
    <rc><c>H </c><c>   1</c></rc>
    <rc><c>H </c><c>   1</c></rc>
    <rc><c>H </c><c>   1</c></rc>
    <rc><c>H </c><c>   1</c></rc>
    <rc><c>H </c><c>   1</c></rc>
    <rc><c>H </c><c>   1</c></rc>
    <rc><c>H </c><c>   1</c></rc>
    <rc><c>H </c><c>   1</c></rc>
    <rc><c>H </c><c>   1</c></rc>
    <rc><c>H </c><c>   1</c></rc>
    <rc><c>H </c><c>   1</c></rc>
    <rc><c>H </c><c>   1</c></rc>
    <rc><c>H </c><c>   1</c></rc>
    <rc><c>H </c><c>   1</c></rc>
    <rc><c>H </c><c>   1</c></rc>
    <rc><c>H </c><c>   1</c></rc>
    <rc><c>H </c><c>   1</c></rc>
    <rc><c>H </c><c>   1</c></rc>
    <rc><c>H </c><c>   1</c></rc>
    <rc><c>H </c><c>   1</c></rc>
    <rc><c>H </c><c>   1</c></rc>
    <rc><c>H </c><c>   1</c></rc>
    <rc><c>H </c><c>   1</c></rc>
    <rc><c>H </c><c>   1</c></rc>
    <rc><c>H </c><c>   1</c></rc>
    <rc><c>H </c><c>   1</c></rc>
    <rc><c>H </c><c>   1</c></rc>
    <rc><c>H </c><c>   1</c></rc>
    <rc><c>C </c><c>   2</c></rc>
    <rc><c>C </c><c>   2</c></rc>
    <rc><c>C </c><c>   2</c></rc>
    <rc><c>C </c><c>   2</c></rc>
    <rc><c>C </c><c>   2</c></rc>
    <rc><c>C </c><c>   2</c></rc>
    <rc><c>C </c><c>   2</c></rc>
    <rc><c>C </c><c>   2</c></rc>
    <rc><c>C </c><c>   2</c></rc>
    <rc><c>C </c><c>   2</c></rc>
    <rc><c>C </c><c>   2</c></rc>
    <rc><c>C </c><c>   2</c></rc>
    <rc><c>C </c><c>   2</c></rc>
    <rc><c>C </c><c>   2</c></rc>
    <rc><c>C </c><c>   2</c></rc>
    <rc><c>C </c><c>   2</c></rc>
    <rc><c>C </c><c>   2</c></rc>
    <rc><c>C </c><c>   2</c></rc>
    <rc><c>C </c><c>   2</c></rc>
    <rc><c>C </c><c>   2</c></rc>
    <rc><c>C </c><c>   2</c></rc>
    <rc><c>C </c><c>   2</c></rc>
    <rc><c>C </c><c>   2</c></rc>
    <rc><c>C </c><c>   2</c></rc>
    <rc><c>C </c><c>   2</c></rc>
    <rc><c>C </c><c>   2</c></rc>
    <rc><c>C </c><c>   2</c></rc>
    <rc><c>C </c><c>   2</c></rc>
    <rc><c>C </c><c>   2</c></rc>
    <rc><c>C </c><c>   2</c></rc>
    <rc><c>C </c><c>   2</c></rc>
    <rc><c>C </c><c>   2</c></rc>
    <rc><c>C </c><c>   2</c></rc>
    <rc><c>C </c><c>   2</c></rc>
    <rc><c>C </c><c>   2</c></rc>
    <rc><c>C </c><c>   2</c></rc>
    <rc><c>C </c><c>   2</c></rc>
    <rc><c>C </c><c>   2</c></rc>
    <rc><c>C </c><c>   2</c></rc>
    <rc><c>N </c><c>   3</c></rc>
    <rc><c>N </c><c>   3</c></rc>
    <rc><c>N </c><c>   3</c></rc>
    <rc><c>N </c><c>   3</c></rc>
    <rc><c>N </c><c>   3</c></rc>
    <rc><c>N </c><c>   3</c></rc>
    <rc><c>N </c><c>   3</c></rc>
    <rc><c>N </c><c>   3</c></rc>
    <rc><c>N </c><c>   3</c></rc>
    <rc><c>N </c><c>   3</c></rc>
    <rc><c>N </c><c>   3</c></rc>
    <rc><c>N </c><c>   3</c></rc>
    <rc><c>N </c><c>   3</c></rc>
    <rc><c>N </c><c>   3</c></rc>
    <rc><c>N </c><c>   3</c></rc>
    <rc><c>N </c><c>   3</c></rc>
    <rc><c>N </c><c>   3</c></rc>
    <rc><c>N </c><c>   3</c></rc>
    <rc><c>N </c><c>   3</c></rc>
    <rc><c>N </c><c>   3</c></rc>
    <rc><c>N </c><c>   3</c></rc>
    <rc><c>N </c><c>   3</c></rc>
    <rc><c>N </c><c>   3</c></rc>
    <rc><c>N </c><c>   3</c></rc>
    <rc><c>N </c><c>   3</c></rc>
    <rc><c>N </c><c>   3</c></rc>
    <rc><c>N </c><c>   3</c></rc>
    <rc><c>N </c><c>   3</c></rc>
    <rc><c>N </c><c>   3</c></rc>
    <rc><c>N </c><c>   3</c></rc>
    <rc><c>N </c><c>   3</c></rc>
    <rc><c>N </c><c>   3</c></rc>
    <rc><c>N </c><c>   3</c></rc>
    <rc><c>N </c><c>   3</c></rc>
    <rc><c>N </c><c>   3</c></rc>
    <rc><c>N </c><c>   3</c></rc>
    <rc><c>N </c><c>   3</c></rc>
    <rc><c>N </c><c>   3</c></rc>
    <rc><c>N </c><c>   3</c></rc>
    <rc><c>N </c><c>   3</c></rc>
    <rc><c>N </c><c>   3</c></rc>
    <rc><c>N </c><c>   3</c></rc>
    <rc><c>N </c><c>   3</c></rc>
    <rc><c>N </c><c>   3</c></rc>
    <rc><c>N </c><c>   3</c></rc>
    <rc><c>N </c><c>   3</c></rc>
    <rc><c>N </c><c>   3</c></rc>
    <rc><c>I </c><c>   4</c></rc>
    <rc><c>I </c><c>   4</c></rc>
    <rc><c>I </c><c>   4</c></rc>
    <rc><c>I </c><c>   4</c></rc>
    <rc><c>I </c><c>   4</c></rc>
    <rc><c>I </c><c>   4</c></rc>
    <rc><c>I </c><c>   4</c></rc>
    <rc><c>I </c><c>   4</c></rc>
    <rc><c>I </c><c>   4</c></rc>
    <rc><c>I </c><c>   4</c></rc>
    <rc><c>I </c><c>   4</c></rc>
    <rc><c>I </c><c>   4</c></rc>
    <rc><c>I </c><c>   4</c></rc>
    <rc><c>I </c><c>   4</c></rc>
    <rc><c>I </c><c>   4</c></rc>
    <rc><c>I </c><c>   4</c></rc>
    <rc><c>I </c><c>   4</c></rc>
    <rc><c>I </c><c>   4</c></rc>
    <rc><c>I </c><c>   4</c></rc>
    <rc><c>I </c><c>   4</c></rc>
    <rc><c>I </c><c>   4</c></rc>
    <rc><c>I </c><c>   4</c></rc>
    <rc><c>I </c><c>   4</c></rc>
    <rc><c>I </c><c>   4</c></rc>
    <rc><c>I </c><c>   4</c></rc>
    <rc><c>I </c><c>   4</c></rc>
    <rc><c>I </c><c>   4</c></rc>
    <rc><c>I </c><c>   4</c></rc>
    <rc><c>I </c><c>   4</c></rc>
    <rc><c>I </c><c>   4</c></rc>
    <rc><c>I </c><c>   4</c></rc>
    <rc><c>I </c><c>   4</c></rc>
    <rc><c>I </c><c>   4</c></rc>
    <rc><c>I </c><c>   4</c></rc>
    <rc><c>I </c><c>   4</c></rc>
    <rc><c>I </c><c>   4</c></rc>
    <rc><c>I </c><c>   4</c></rc>
    <rc><c>I </c><c>   4</c></rc>
    <rc><c>I </c><c>   4</c></rc>
    <rc><c>I </c><c>   4</c></rc>
    <rc><c>I </c><c>   4</c></rc>
    <rc><c>I </c><c>   4</c></rc>
    <rc><c>I </c><c>   4</c></rc>
    <rc><c>I </c><c>   4</c></rc>
    <rc><c>I </c><c>   4</c></rc>
    <rc><c>I </c><c>   4</c></rc>
    <rc><c>I </c><c>   4</c></rc>
    <rc><c>I </c><c>   4</c></rc>
    <rc><c>I </c><c>   4</c></rc>
    <rc><c>I </c><c>   4</c></rc>
    <rc><c>I </c><c>   4</c></rc>
    <rc><c>I </c><c>   4</c></rc>
    <rc><c>I </c><c>   4</c></rc>
    <rc><c>I </c><c>   4</c></rc>
    <rc><c>I </c><c>   4</c></rc>
    <rc><c>I </c><c>   4</c></rc>
    <rc><c>I </c><c>   4</c></rc>
    <rc><c>I </c><c>   4</c></rc>
    <rc><c>I </c><c>   4</c></rc>
    <rc><c>I </c><c>   4</c></rc>
    <rc><c>I </c><c>   4</c></rc>
    <rc><c>I </c><c>   4</c></rc>
    <rc><c>I </c><c>   4</c></rc>
    <rc><c>I </c><c>   4</c></rc>
    <rc><c>I </c><c>   4</c></rc>
    <rc><c>I </c><c>   4</c></rc>
    <rc><c>I </c><c>   4</c></rc>
    <rc><c>I </c><c>   4</c></rc>
    <rc><c>I </c><c>   4</c></rc>
    <rc><c>I </c><c>   4</c></rc>
    <rc><c>I </c><c>   4</c></rc>
    <rc><c>I </c><c>   4</c></rc>
    <rc><c>Pb</c><c>   5</c></rc>
    <rc><c>Pb</c><c>   5</c></rc>
    <rc><c>Pb</c><c>   5</c></rc>
    <rc><c>Pb</c><c>   5</c></rc>
    <rc><c>Pb</c><c>   5</c></rc>
    <rc><c>Pb</c><c>   5</c></rc>
    <rc><c>Pb</c><c>   5</c></rc>
    <rc><c>Pb</c><c>   5</c></rc>
    <rc><c>Pb</c><c>   5</c></rc>
    <rc><c>Pb</c><c>   5</c></rc>
    <rc><c>Pb</c><c>   5</c></rc>
    <rc><c>Pb</c><c>   5</c></rc>
    <rc><c>Pb</c><c>   5</c></rc>
    <rc><c>Pb</c><c>   5</c></rc>
    <rc><c>Pb</c><c>   5</c></rc>
    <rc><c>Pb</c><c>   5</c></rc>
    <rc><c>Pb</c><c>   5</c></rc>
    <rc><c>Pb</c><c>   5</c></rc>
    <rc><c>Pb</c><c>   5</c></rc>
    <rc><c>Pb</c><c>   5</c></rc>
    <rc><c>Pb</c><c>   5</c></rc>
    <rc><c>Pb</c><c>   5</c></rc>
    <rc><c>Pb</c><c>   5</c></rc>
    <rc><c>Pb</c><c>   5</c></rc>
   </set>
  </array>
  <array name="atomtypes" >
   <dimension dim="1">type</dimension>
   <field type="int">atomspertype</field>
   <field type="string">element</field>
   <field>mass</field>
   <field>valence</field>
   <field type="string">pseudopotential</field>
   <set>
    <rc><c> 143</c><c>H </c><c>      1.00000000</c><c>      1.00000000</c><c>  PAW_PBE H 15Jun2001                   </c></rc>
    <rc><c>  39</c><c>C </c><c>     12.01100000</c><c>      4.00000000</c><c>  PAW_PBE C 08Apr2002                   </c></rc>
    <rc><c>  47</c><c>N </c><c>     14.00100000</c><c>      5.00000000</c><c>  PAW_PBE N 08Apr2002                   </c></rc>
    <rc><c>  72</c><c>I </c><c>    126.90400000</c><c>      7.00000000</c><c>  PAW_PBE I 08Apr2002                   </c></rc>
    <rc><c>  24</c><c>Pb</c><c>    207.20000000</c><c>      4.00000000</c><c>  PAW_PBE Pb 08Apr2002                  </c></rc>
   </set>
  </array>
 </atominfo>
 <structure name="initialpos" >
  <crystal>
   <varray name="basis" >
    <v>      18.06080055       0.00000000       0.00000000 </v>
    <v>      -0.00491865      18.06279945       0.00000000 </v>
    <v>       0.00000000       0.00000000      62.48749924 </v>
   </varray>
   <i name="volume">  20385.21054034 </i>
   <varray name="rec_basis" >
    <v>       0.05536853       0.00001508      -0.00000000 </v>
    <v>       0.00000000       0.05536240       0.00000000 </v>
    <v>       0.00000000      -0.00000000       0.01600320 </v>
   </varray>
  </crystal>
  <varray name="positions" >
   <v>       0.46209806       0.32661052       0.57461505 </v>
   <v>       0.45043150       0.84199068       0.57449638 </v>
   <v>       0.92033079       0.24252472       0.58104981 </v>
   <v>       0.94308612       0.80774540       0.57937791 </v>
   <v>       0.30560431       0.06458800       0.57451268 </v>
   <v>       0.32261427       0.57109818       0.57609563 </v>
   <v>       0.79462847       0.07927148       0.57796094 </v>
   <v>       0.10610389       0.24282300       0.55875141 </v>
   <v>       0.09487150       0.67860660       0.56772921 </v>
   <v>       0.56511844       0.16749538       0.55659729 </v>
   <v>       0.49429580       0.64954643       0.56507286 </v>
   <v>       0.36288431       0.00686526       0.55926536 </v>
   <v>       0.27401034       0.62639184       0.55795681 </v>
   <v>       0.86825347       0.02697285       0.56684708 </v>
   <v>       0.05842112       0.23388617       0.58280669 </v>
   <v>       0.02147998       0.69306024       0.58560462 </v>
   <v>       0.57250881       0.24755034       0.57212066 </v>
   <v>       0.46339606       0.70792057       0.58532276 </v>
   <v>       0.28230999       0.43876311       0.57838369 </v>
   <v>       0.16980578       0.04295788       0.57154571 </v>
   <v>       0.67112504       0.02343221       0.57559572 </v>
   <v>       0.38158312       0.29378838       0.56128151 </v>
   <v>       0.49083395       0.86887669       0.55014006 </v>
   <v>       0.87892190       0.24064462       0.55590654 </v>
   <v>       0.97833664       0.86757153       0.56014011 </v>
   <v>       0.20452970       0.41370891       0.56294768 </v>
   <v>       0.14097199       0.97396087       0.55388373 </v>
   <v>       0.66650164       0.93491265       0.56292827 </v>
   <v>       0.44164186       0.18901407       0.54801153 </v>
   <v>       0.52159466       0.74477596       0.54140101 </v>
   <v>       0.99553443       0.24750916       0.53879429 </v>
   <v>       0.07108937       0.78897381       0.54942947 </v>
   <v>       0.19272284       0.53125249       0.54774518 </v>
   <v>       0.26311216       0.94158884       0.54429551 </v>
   <v>       0.78830634       0.93109476       0.55528367 </v>
   <v>       0.46410071       0.31118488       0.67412574 </v>
   <v>       0.43579473       0.80964448       0.67359762 </v>
   <v>       0.95519772       0.27857219       0.67811561 </v>
   <v>       0.92378669       0.77251165       0.67420547 </v>
   <v>       0.30603106       0.05507414       0.67338841 </v>
   <v>       0.29381359       0.54086906       0.67772839 </v>
   <v>       0.79049330       0.05439161       0.67482559 </v>
   <v>       0.84881338       0.49254217       0.66677954 </v>
   <v>       0.08903274       0.17403732       0.64564794 </v>
   <v>       0.09673366       0.69227651       0.65293345 </v>
   <v>       0.57761624       0.16768631       0.64892386 </v>
   <v>       0.57337294       0.67582617       0.65446830 </v>
   <v>       0.17756821       0.41232482       0.64664930 </v>
   <v>       0.17475714       0.92377230       0.64947579 </v>
   <v>       0.64868211       0.48044473       0.65914887 </v>
   <v>       0.67334118       0.91342592       0.64953446 </v>
   <v>       0.06180681       0.18350693       0.67247172 </v>
   <v>       0.03583392       0.68244706       0.67465868 </v>
   <v>       0.56996882       0.21367402       0.67307969 </v>
   <v>       0.53482235       0.70593089       0.67828300 </v>
   <v>       0.19960215       0.43302992       0.67336118 </v>
   <v>       0.20246742       0.95669906       0.67454483 </v>
   <v>       0.72213093       0.43677261       0.67308653 </v>
   <v>       0.69629304       0.94716985       0.67487473 </v>
   <v>       0.41345743       0.31910142       0.65042392 </v>
   <v>       0.42033212       0.83506003       0.64680509 </v>
   <v>       0.92499282       0.32020600       0.65492793 </v>
   <v>       0.92337089       0.83217247       0.65225924 </v>
   <v>       0.33584671       0.07745543       0.64740439 </v>
   <v>       0.32163436       0.58153428       0.65351798 </v>
   <v>       0.82363260       0.07844297       0.64930846 </v>
   <v>       0.85470293       0.55847789       0.64669325 </v>
   <v>       0.00439077       0.26098794       0.63288995 </v>
   <v>       0.03009451       0.78711000       0.63735746 </v>
   <v>       0.48051495       0.22913414       0.63263148 </v>
   <v>       0.50598809       0.75327834       0.63304373 </v>
   <v>       0.25494991       0.99641831       0.63071319 </v>
   <v>       0.25109658       0.50444277       0.63253429 </v>
   <v>       0.75158372       0.99188211       0.63163525 </v>
   <v>       0.72578681       0.55727479       0.64006216 </v>
   <v>       0.44874502       0.30128397       0.76888902 </v>
   <v>       0.44874501       0.80128391       0.76888902 </v>
   <v>       0.94874497       0.30128397       0.76888902 </v>
   <v>       0.94874501       0.80128391       0.76888902 </v>
   <v>       0.30127600       0.05129450       0.76887296 </v>
   <v>       0.30127601       0.55129450       0.76887296 </v>
   <v>       0.80127594       0.05129450       0.76887296 </v>
   <v>       0.80127598       0.55129450       0.76887296 </v>
   <v>       0.07877100       0.17118050       0.74344197 </v>
   <v>       0.07877101       0.67118045       0.74344197 </v>
   <v>       0.57877100       0.17118050       0.74344197 </v>
   <v>       0.57877099       0.67118045       0.74344197 </v>
   <v>       0.17119950       0.42117448       0.74342103 </v>
   <v>       0.17119950       0.92117451       0.74342103 </v>
   <v>       0.67119951       0.42117448       0.74342103 </v>
   <v>       0.67119950       0.92117451       0.74342103 </v>
   <v>       0.05125600       0.19871499       0.76888902 </v>
   <v>       0.05125600       0.69871493       0.76888902 </v>
   <v>       0.55125603       0.19871499       0.76888902 </v>
   <v>       0.55125602       0.69871493       0.76888902 </v>
   <v>       0.19872349       0.44870397       0.76887205 </v>
   <v>       0.19872349       0.94870397       0.76887205 </v>
   <v>       0.69872352       0.44870397       0.76887205 </v>
   <v>       0.69872351       0.94870397       0.76887205 </v>
   <v>       0.42123152       0.32881747       0.74344197 </v>
   <v>       0.42123151       0.82881744       0.74344197 </v>
   <v>       0.92123147       0.32881747       0.74344197 </v>
   <v>       0.92123151       0.82881744       0.74344197 </v>
   <v>       0.32880050       0.07882500       0.74342103 </v>
   <v>       0.32880049       0.57882496       0.74342103 </v>
   <v>       0.82880048       0.07882500       0.74342103 </v>
   <v>       0.82880052       0.57882496       0.74342103 </v>
   <v>       0.00000350       0.25000148       0.72582199 </v>
   <v>       0.00000350       0.75000145       0.72582199 </v>
   <v>       0.50000351       0.25000148       0.72582199 </v>
   <v>       0.50000350       0.75000145       0.72582199 </v>
   <v>       0.25000050       0.00000000       0.72580398 </v>
   <v>       0.25000052       0.50000000       0.72580398 </v>
   <v>       0.75000050       0.00000000       0.72580398 </v>
   <v>       0.75000049       0.50000000       0.72580398 </v>
   <v>       0.71787999       0.43814583       0.54205519 </v>
   <v>       0.73556227       0.49635094       0.51975307 </v>
   <v>       0.65418660       0.55291476       0.56079625 </v>
   <v>       0.70582016       0.63600831       0.55855557 </v>
   <v>       0.84548144       0.50307832       0.57203757 </v>
   <v>       0.78254897       0.57117521       0.58175698 </v>
   <v>       0.86575111       0.55921115       0.53207041 </v>
   <v>       0.79331097       0.62509201       0.52719553 </v>
   <v>       0.86751267       0.46489623       0.51886739 </v>
   <v>       0.86386114       0.42550495       0.54452951 </v>
   <v>       0.87252518       0.32870992       0.51936987 </v>
   <v>       0.78421321       0.32271632       0.53080111 </v>
   <v>       0.63851257       0.54968428       0.52088739 </v>
   <v>       0.68975719       0.63399291       0.51873455 </v>
   <v>       0.60539459       0.63239304       0.53251526 </v>
   <v>       0.75289491       0.45228413       0.59848012 </v>
   <v>       0.74665271       0.40504988       0.57371729 </v>
   <v>       0.67916616       0.47203960       0.58119266 </v>
   <v>       0.82390256       0.68719732       0.56210016 </v>
   <v>       0.89670785       0.68338226       0.54362613 </v>
   <v>       0.89904590       0.62139433       0.56580128 </v>
   <v>       0.81744394       0.38699903       0.48641928 </v>
   <v>       0.78451754       0.29817125       0.49213359 </v>
   <v>       0.66300609       0.31936362       0.52246711 </v>
   <v>       0.73027459       0.46092167       0.47033641 </v>
   <v>       0.53726064       0.37624131       0.52164297 </v>
   <v>       0.60500921       0.51715276       0.46932632 </v>
   <v>       0.50834955       0.47401698       0.49502626 </v>
   <v>       0.99319616       0.24392591       0.55594292 </v>
   <v>       0.03491199       0.77199280       0.56240863 </v>
   <v>       0.47240046       0.22926645       0.55755640 </v>
   <v>       0.49675513       0.75756192       0.55699929 </v>
   <v>       0.23732009       0.52044496       0.55924387 </v>
   <v>       0.25297074       0.98706872       0.55548311 </v>
   <v>       0.76763828       0.97972172       0.56377182 </v>
   <v>       0.00714381       0.24699431       0.64999390 </v>
   <v>       0.01058660       0.76244281       0.65225674 </v>
   <v>       0.49612051       0.24329493       0.64918410 </v>
   <v>       0.49717769       0.75535751       0.65027624 </v>
   <v>       0.24985680       0.49713071       0.64981277 </v>
   <v>       0.25517648       0.00044909       0.64816571 </v>
   <v>       0.75057519       0.52012585       0.65172917 </v>
   <v>       0.74826847       0.99545761       0.64907434 </v>
   <v>       0.49998898       0.24999498       0.74327702 </v>
   <v>       0.49998903       0.74999496       0.74327702 </v>
   <v>       0.99998898       0.24999498       0.74327702 </v>
   <v>       0.99998903       0.74999496       0.74327702 </v>
   <v>       0.25000050       0.00000100       0.74325596 </v>
   <v>       0.25000052       0.50000100       0.74325596 </v>
   <v>       0.75000050       0.00000100       0.74325596 </v>
   <v>       0.75000049       0.50000100       0.74325596 </v>
   <v>       0.70575777       0.38658370       0.49652949 </v>
   <v>       0.64961890       0.36198744       0.51054111 </v>
   <v>       0.68810044       0.44150054       0.48159666 </v>
   <v>       0.57932965       0.39409285       0.51012007 </v>
   <v>       0.61747410       0.47363124       0.48079654 </v>
   <v>       0.56295851       0.44981631       0.49511587 </v>
   <v>       0.75904630       0.47452168       0.53462671 </v>
   <v>       0.69256289       0.58388346       0.55042448 </v>
   <v>       0.78727353       0.52022057       0.57226210 </v>
   <v>       0.82359527       0.59421370       0.53939719 </v>
   <v>       0.83172607       0.43254272       0.52977845 </v>
   <v>       0.81833206       0.35625849       0.51997540 </v>
   <v>       0.65564424       0.59999457       0.52926693 </v>
   <v>       0.73890914       0.45941140       0.58148966 </v>
   <v>       0.86228833       0.64868599       0.55420814 </v>
   <v>       0.78326699       0.35576710       0.49758329 </v>
   <v>       0.05625746       0.23783536       0.56643171 </v>
   <v>       0.05100409       0.71033475       0.57260763 </v>
   <v>       0.54198191       0.21531403       0.56191610 </v>
   <v>       0.48819008       0.70289877       0.57058000 </v>
   <v>       0.43748709       0.29014262       0.56409317 </v>
   <v>       0.47800466       0.82684011       0.56059937 </v>
   <v>       0.92678597       0.24620319       0.56475023 </v>
   <v>       0.97852363       0.81549135       0.56676631 </v>
   <v>       0.24095195       0.45250994       0.56733705 </v>
   <v>       0.18416156       0.00117416       0.56070987 </v>
   <v>       0.69496497       0.98126489       0.56664874 </v>
   <v>       0.31114997       0.02310890       0.56315610 </v>
   <v>       0.28242030       0.57489396       0.56426777 </v>
   <v>       0.81292816       0.03194512       0.57010829 </v>
   <v>       0.05520530       0.19883248       0.65676894 </v>
   <v>       0.04937872       0.70919479       0.66059349 </v>
   <v>       0.55075482       0.20707180       0.65780692 </v>
   <v>       0.53697284       0.71042926       0.66178996 </v>
   <v>       0.20717398       0.44422218       0.65729437 </v>
   <v>       0.20779202       0.95785234       0.65825788 </v>
   <v>       0.70478237       0.47434491       0.66167104 </v>
   <v>       0.70317820       0.94929336       0.65860756 </v>
   <v>       0.45575592       0.29477111       0.65871207 </v>
   <v>       0.44816491       0.80303294       0.65766041 </v>
   <v>       0.95934889       0.28363317       0.66203006 </v>
   <v>       0.94975066       0.79132078       0.66039796 </v>
   <v>       0.30178061       0.04729640       0.65722667 </v>
   <v>       0.29071979       0.54151235       0.66137075 </v>
   <v>       0.78992429       0.04605735       0.65864956 </v>
   <v>       0.82271329       0.52342138       0.65535251 </v>
   <v>       0.04586250       0.20411950       0.75272599 </v>
   <v>       0.04586250       0.70411946       0.75272599 </v>
   <v>       0.54586251       0.20411950       0.75272599 </v>
   <v>       0.54586250       0.70411946       0.75272599 </v>
   <v>       0.20411900       0.45410100       0.75270499 </v>
   <v>       0.20411899       0.95410095       0.75270499 </v>
   <v>       0.70411898       0.45410100       0.75270499 </v>
   <v>       0.70411896       0.95410095       0.75270499 </v>
   <v>       0.45414002       0.29588849       0.75272697 </v>
   <v>       0.45414001       0.79588852       0.75272697 </v>
   <v>       0.95414002       0.29588849       0.75272697 </v>
[...]
   <v>       0.56511844       0.16749538       0.55659729 </v>
   <v>       0.49429580       0.64954643       0.56507286 </v>
   <v>       0.36288431       0.00686526       0.55926536 </v>
   <v>       0.27401034       0.62639184       0.55795681 </v>
   <v>       0.86825347       0.02697285       0.56684708 </v>
   <v>       0.05842112       0.23388617       0.58280669 </v>
   <v>       0.02147998       0.69306024       0.58560462 </v>
   <v>       0.57250881       0.24755034       0.57212066 </v>
   <v>       0.46339606       0.70792057       0.58532276 </v>
   <v>       0.28230999       0.43876311       0.57838369 </v>
   <v>       0.16980578       0.04295788       0.57154571 </v>
   <v>       0.67112504       0.02343221       0.57559572 </v>
   <v>       0.38158312       0.29378838       0.56128151 </v>
   <v>       0.49083395       0.86887669       0.55014006 </v>
   <v>       0.87892190       0.24064462       0.55590654 </v>
   <v>       0.97833664       0.86757153       0.56014011 </v>
   <v>       0.20452970       0.41370891       0.56294768 </v>
   <v>       0.14097199       0.97396087       0.55388373 </v>
   <v>       0.66650164       0.93491265       0.56292827 </v>
   <v>       0.44164186       0.18901407       0.54801153 </v>
   <v>       0.52159466       0.74477596       0.54140101 </v>
   <v>       0.99553443       0.24750916       0.53879429 </v>
   <v>       0.07108937       0.78897381       0.54942947 </v>
   <v>       0.19272284       0.53125249       0.54774518 </v>
   <v>       0.26311216       0.94158884       0.54429551 </v>
   <v>       0.78830634       0.93109476       0.55528367 </v>
   <v>       0.46410071       0.31118488       0.67412574 </v>
   <v>       0.43579473       0.80964448       0.67359762 </v>
   <v>       0.95519772       0.27857219       0.67811561 </v>
   <v>       0.92378669       0.77251165       0.67420547 </v>
   <v>       0.30603106       0.05507414       0.67338841 </v>
   <v>       0.29381359       0.54086906       0.67772839 </v>
   <v>       0.79049330       0.05439161       0.67482559 </v>
   <v>       0.84881338       0.49254217       0.66677954 </v>
   <v>       0.08903274       0.17403732       0.64564794 </v>
   <v>       0.09673366       0.69227651       0.65293345 </v>
   <v>       0.57761624       0.16768631       0.64892386 </v>
   <v>       0.57337294       0.67582617       0.65446830 </v>
   <v>       0.17756821       0.41232482       0.64664930 </v>
   <v>       0.17475714       0.92377230       0.64947579 </v>
   <v>       0.64868211       0.48044473       0.65914887 </v>
   <v>       0.67334118       0.91342592       0.64953446 </v>
   <v>       0.06180681       0.18350693       0.67247172 </v>
   <v>       0.03583392       0.68244706       0.67465868 </v>
   <v>       0.56996882       0.21367402       0.67307969 </v>
   <v>       0.53482235       0.70593089       0.67828300 </v>
   <v>       0.19960215       0.43302992       0.67336118 </v>
   <v>       0.20246742       0.95669906       0.67454483 </v>
   <v>       0.72213093       0.43677261       0.67308653 </v>
   <v>       0.69629304       0.94716985       0.67487473 </v>
   <v>       0.41345743       0.31910142       0.65042392 </v>
   <v>       0.42033212       0.83506003       0.64680509 </v>
   <v>       0.92499282       0.32020600       0.65492793 </v>
   <v>       0.92337089       0.83217247       0.65225924 </v>
   <v>       0.33584671       0.07745543       0.64740439 </v>
   <v>       0.32163436       0.58153428       0.65351798 </v>
   <v>       0.82363260       0.07844297       0.64930846 </v>
   <v>       0.85470293       0.55847789       0.64669325 </v>
   <v>       0.00439077       0.26098794       0.63288995 </v>
   <v>       0.03009451       0.78711000       0.63735746 </v>
   <v>       0.48051495       0.22913414       0.63263148 </v>
   <v>       0.50598809       0.75327834       0.63304373 </v>
   <v>       0.25494991       0.99641831       0.63071319 </v>
   <v>       0.25109658       0.50444277       0.63253429 </v>
   <v>       0.75158372       0.99188211       0.63163525 </v>
   <v>       0.72578681       0.55727479       0.64006216 </v>
   <v>       0.44874502       0.30128397       0.76888902 </v>
   <v>       0.44874501       0.80128391       0.76888902 </v>
   <v>       0.94874497       0.30128397       0.76888902 </v>
   <v>       0.94874501       0.80128391       0.76888902 </v>
   <v>       0.30127600       0.05129450       0.76887296 </v>
   <v>       0.30127601       0.55129450       0.76887296 </v>
   <v>       0.80127594       0.05129450       0.76887296 </v>
   <v>       0.80127598       0.55129450       0.76887296 </v>
   <v>       0.07877100       0.17118050       0.74344197 </v>
   <v>       0.07877101       0.67118045       0.74344197 </v>
   <v>       0.57877100       0.17118050       0.74344197 </v>
   <v>       0.57877099       0.67118045       0.74344197 </v>
   <v>       0.17119950       0.42117448       0.74342103 </v>
   <v>       0.17119950       0.92117451       0.74342103 </v>
   <v>       0.67119951       0.42117448       0.74342103 </v>
   <v>       0.67119950       0.92117451       0.74342103 </v>
   <v>       0.05125600       0.19871499       0.76888902 </v>
   <v>       0.05125600       0.69871493       0.76888902 </v>
   <v>       0.55125603       0.19871499       0.76888902 </v>
   <v>       0.55125602       0.69871493       0.76888902 </v>
   <v>       0.19872349       0.44870397       0.76887205 </v>
   <v>       0.19872349       0.94870397       0.76887205 </v>
   <v>       0.69872352       0.44870397       0.76887205 </v>
   <v>       0.69872351       0.94870397       0.76887205 </v>
   <v>       0.42123152       0.32881747       0.74344197 </v>
   <v>       0.42123151       0.82881744       0.74344197 </v>
   <v>       0.92123147       0.32881747       0.74344197 </v>
   <v>       0.92123151       0.82881744       0.74344197 </v>
   <v>       0.32880050       0.07882500       0.74342103 </v>
   <v>       0.32880049       0.57882496       0.74342103 </v>
   <v>       0.82880048       0.07882500       0.74342103 </v>
   <v>       0.82880052       0.57882496       0.74342103 </v>
   <v>       0.00000350       0.25000148       0.72582199 </v>
   <v>       0.00000350       0.75000145       0.72582199 </v>
   <v>       0.50000351       0.25000148       0.72582199 </v>
   <v>       0.50000350       0.75000145       0.72582199 </v>
   <v>       0.25000050       0.00000000       0.72580398 </v>
   <v>       0.25000052       0.50000000       0.72580398 </v>
   <v>       0.75000050       0.00000000       0.72580398 </v>
   <v>       0.75000049       0.50000000       0.72580398 </v>
   <v>       0.71787999       0.43814583       0.54205519 </v>
   <v>       0.73556227       0.49635094       0.51975307 </v>
   <v>       0.65418660       0.55291476       0.56079625 </v>
   <v>       0.70582016       0.63600831       0.55855557 </v>
   <v>       0.84548144       0.50307832       0.57203757 </v>
   <v>       0.78254897       0.57117521       0.58175698 </v>
   <v>       0.86575111       0.55921115       0.53207041 </v>
   <v>       0.79331097       0.62509201       0.52719553 </v>
   <v>       0.86751267       0.46489623       0.51886739 </v>
   <v>       0.86386114       0.42550495       0.54452951 </v>
   <v>       0.87252518       0.32870992       0.51936987 </v>
   <v>       0.78421321       0.32271632       0.53080111 </v>
   <v>       0.63851257       0.54968428       0.52088739 </v>
   <v>       0.68975719       0.63399291       0.51873455 </v>
   <v>       0.60539459       0.63239304       0.53251526 </v>
   <v>       0.75289491       0.45228413       0.59848012 </v>
   <v>       0.74665271       0.40504988       0.57371729 </v>
   <v>       0.67916616       0.47203960       0.58119266 </v>
   <v>       0.82390256       0.68719732       0.56210016 </v>
   <v>       0.89670785       0.68338226       0.54362613 </v>
   <v>       0.89904590       0.62139433       0.56580128 </v>
   <v>       0.81744394       0.38699903       0.48641928 </v>
   <v>       0.78451754       0.29817125       0.49213359 </v>
   <v>       0.66300609       0.31936362       0.52246711 </v>
   <v>       0.73027459       0.46092167       0.47033641 </v>
   <v>       0.53726064       0.37624131       0.52164297 </v>
   <v>       0.60500921       0.51715276       0.46932632 </v>
   <v>       0.50834955       0.47401698       0.49502626 </v>
   <v>       0.99319616       0.24392591       0.55594292 </v>
   <v>       0.03491199       0.77199280       0.56240863 </v>
   <v>       0.47240046       0.22926645       0.55755640 </v>
   <v>       0.49675513       0.75756192       0.55699929 </v>
   <v>       0.23732009       0.52044496       0.55924387 </v>
   <v>       0.25297074       0.98706872       0.55548311 </v>
   <v>       0.76763828       0.97972172       0.56377182 </v>
   <v>       0.00714381       0.24699431       0.64999390 </v>
   <v>       0.01058660       0.76244281       0.65225674 </v>
   <v>       0.49612051       0.24329493       0.64918410 </v>
   <v>       0.49717769       0.75535751       0.65027624 </v>
   <v>       0.24985680       0.49713071       0.64981277 </v>
   <v>       0.25517648       0.00044909       0.64816571 </v>
   <v>       0.75057519       0.52012585       0.65172917 </v>
   <v>       0.74826847       0.99545761       0.64907434 </v>
   <v>       0.49998898       0.24999498       0.74327702 </v>
   <v>       0.49998903       0.74999496       0.74327702 </v>
   <v>       0.99998898       0.24999498       0.74327702 </v>
   <v>       0.99998903       0.74999496       0.74327702 </v>
   <v>       0.25000050       0.00000100       0.74325596 </v>
   <v>       0.25000052       0.50000100       0.74325596 </v>
   <v>       0.75000050       0.00000100       0.74325596 </v>
   <v>       0.75000049       0.50000100       0.74325596 </v>
   <v>       0.70575777       0.38658370       0.49652949 </v>
   <v>       0.64961890       0.36198744       0.51054111 </v>
   <v>       0.68810044       0.44150054       0.48159666 </v>
   <v>       0.57932965       0.39409285       0.51012007 </v>
   <v>       0.61747410       0.47363124       0.48079654 </v>
   <v>       0.56295851       0.44981631       0.49511587 </v>
   <v>       0.75904630       0.47452168       0.53462671 </v>
   <v>       0.69256289       0.58388346       0.55042448 </v>
   <v>       0.78727353       0.52022057       0.57226210 </v>
   <v>       0.82359527       0.59421370       0.53939719 </v>
   <v>       0.83172607       0.43254272       0.52977845 </v>
   <v>       0.81833206       0.35625849       0.51997540 </v>
   <v>       0.65564424       0.59999457       0.52926693 </v>
   <v>       0.73890914       0.45941140       0.58148966 </v>
   <v>       0.86228833       0.64868599       0.55420814 </v>
   <v>       0.78326699       0.35576710       0.49758329 </v>
   <v>       0.05625746       0.23783536       0.56643171 </v>
   <v>       0.05100409       0.71033475       0.57260763 </v>
   <v>       0.54198191       0.21531403       0.56191610 </v>
   <v>       0.48819008       0.70289877       0.57058000 </v>
   <v>       0.43748709       0.29014262       0.56409317 </v>
   <v>       0.47800466       0.82684011       0.56059937 </v>
   <v>       0.92678597       0.24620319       0.56475023 </v>
   <v>       0.97852363       0.81549135       0.56676631 </v>
   <v>       0.24095195       0.45250994       0.56733705 </v>
   <v>       0.18416156       0.00117416       0.56070987 </v>
   <v>       0.69496497       0.98126489       0.56664874 </v>
   <v>       0.31114997       0.02310890       0.56315610 </v>
   <v>       0.28242030       0.57489396       0.56426777 </v>
   <v>       0.81292816       0.03194512       0.57010829 </v>
   <v>       0.05520530       0.19883248       0.65676894 </v>
   <v>       0.04937872       0.70919479       0.66059349 </v>
   <v>       0.55075482       0.20707180       0.65780692 </v>
   <v>       0.53697284       0.71042926       0.66178996 </v>
   <v>       0.20717398       0.44422218       0.65729437 </v>
   <v>       0.20779202       0.95785234       0.65825788 </v>
   <v>       0.70478237       0.47434491       0.66167104 </v>
   <v>       0.70317820       0.94929336       0.65860756 </v>
   <v>       0.45575592       0.29477111       0.65871207 </v>
   <v>       0.44816491       0.80303294       0.65766041 </v>
   <v>       0.95934889       0.28363317       0.66203006 </v>
   <v>       0.94975066       0.79132078       0.66039796 </v>
   <v>       0.30178061       0.04729640       0.65722667 </v>
   <v>       0.29071979       0.54151235       0.66137075 </v>
   <v>       0.78992429       0.04605735       0.65864956 </v>
   <v>       0.82271329       0.52342138       0.65535251 </v>
   <v>       0.04586250       0.20411950       0.75272599 </v>
   <v>       0.04586250       0.70411946       0.75272599 </v>
   <v>       0.54586251       0.20411950       0.75272599 </v>
   <v>       0.54586250       0.70411946       0.75272599 </v>
   <v>       0.20411900       0.45410100       0.75270499 </v>
   <v>       0.20411899       0.95410095       0.75270499 </v>
   <v>       0.70411898       0.45410100       0.75270499 </v>
   <v>       0.70411896       0.95410095       0.75270499 </v>
   <v>       0.45414002       0.29588849       0.75272697 </v>
   <v>       0.45414001       0.79588852       0.75272697 </v>
   <v>       0.95414002       0.29588849       0.75272697 </v>
   <v>       0.95414006       0.79588852       0.75272697 </v>
   <v>       0.29588249       0.04590050       0.75270499 </v>
   <v>       0.29588248       0.54590053       0.75270499 </v>
   <v>       0.79588244       0.04590050       0.75270499 </v>
   <v>       0.79588248       0.54590053       0.75270499 </v>
   <v>       0.76643829       0.54110011       0.54925793 </v>
   <v>       0.50339676       0.01749376       0.55298170 </v>
   <v>       0.48258347       0.51336041       0.55553268 </v>
   <v>       0.99495913       0.00516209       0.55207172 </v>
   <v>       0.03460392       0.50600679       0.55390009 </v>
   <v>       0.24638110       0.24854479       0.55365481 </v>
   <v>       0.24499532       0.76436845       0.55258062 </v>
   <v>       0.74045025       0.21234804       0.55665614 </v>
   <v>       0.70486741       0.79281717       0.55049890 </v>
   <v>       0.00496180       0.99652445       0.65466451 </v>
   <v>       0.01345329       0.49145733       0.65572222 </v>
   <v>       0.50208943       0.00112184       0.65493165 </v>
   <v>       0.50329792       0.49393244       0.65527602 </v>
   <v>       0.25704443       0.24522619       0.65450853 </v>
   <v>       0.25066663       0.75300691       0.65470498 </v>
   <v>       0.74691366       0.25942666       0.65546460 </v>
   <v>       0.74932233       0.74466033       0.65393243 </v>
   <v>       0.13922273       0.11407670       0.60718779 </v>
   <v>       0.14618270       0.61212078       0.61081907 </v>
   <v>       0.64466113       0.11112282       0.61005683 </v>
   <v>       0.62274760       0.62627611       0.61373683 </v>
   <v>       0.35982922       0.39245536       0.60964757 </v>
   <v>       0.37403911       0.88243208       0.60614974 </v>
   <v>       0.88528250       0.37033354       0.61270092 </v>
   <v>       0.86765326       0.88187918       0.61007570 </v>
   <v>       0.11623854       0.36215903       0.60892685 </v>
   <v>       0.11991400       0.87554203       0.60841747 </v>
   <v>       0.59044074       0.34449506       0.60454444 </v>
   <v>       0.61209269       0.86396619       0.60986405 </v>
   <v>       0.38276365       0.13325668       0.60698249 </v>
   <v>       0.38017695       0.63451170       0.61358091 </v>
   <v>       0.88874495       0.14276536       0.61379428 </v>
   <v>       0.91140926       0.64987573       0.61701636 </v>
   <v>       0.00000000       0.00000000       0.75492797 </v>
   <v>       0.00000000       0.50000000       0.75492797 </v>
   <v>       0.50000000       0.00000000       0.75492797 </v>
   <v>       0.49999999       0.50000000       0.75492797 </v>
   <v>       0.25000050       0.25000000       0.75493902 </v>
   <v>       0.25000051       0.74999997       0.75493902 </v>
   <v>       0.75000047       0.25000000       0.75493902 </v>
   <v>       0.75000046       0.74999997       0.75493902 </v>
   <v>       0.13579050       0.11421000       0.70478299 </v>
   <v>       0.13579050       0.61420998       0.70478299 </v>
   <v>       0.63579045       0.11421000       0.70478299 </v>
   <v>       0.63579049       0.61420998       0.70478299 </v>
   <v>       0.36420952       0.38578999       0.70478299 </v>
   <v>       0.36420950       0.88578996       0.70478299 </v>
   <v>       0.86420954       0.38578999       0.70478299 </v>
   <v>       0.86420953       0.88578996       0.70478299 </v>
   <v>       0.11421799       0.36421899       0.70478098 </v>
   <v>       0.11421799       0.86421899       0.70478098 </v>
   <v>       0.61421800       0.36421899       0.70478098 </v>
   <v>       0.61421799       0.86421899       0.70478098 </v>
   <v>       0.38578201       0.13578149       0.70478202 </v>
   <v>       0.38578200       0.63578149       0.70478202 </v>
   <v>       0.88578199       0.13578149       0.70478202 </v>
   <v>       0.88578203       0.63578149       0.70478202 </v>
   <v>       0.13466700       0.11533200       0.80125603 </v>
   <v>       0.13466699       0.61533199       0.80125603 </v>
   <v>       0.63466699       0.11533200       0.80125603 </v>
   <v>       0.63466698       0.61533199       0.80125603 </v>
   <v>       0.36533300       0.38466799       0.80125603 </v>
   <v>       0.36533299       0.88466796       0.80125603 </v>
   <v>       0.86533295       0.38466799       0.80125603 </v>
   <v>       0.86533294       0.88466796       0.80125603 </v>
   <v>       0.11532850       0.36533700       0.80126500 </v>
   <v>       0.11532850       0.86533698       0.80126500 </v>
   <v>       0.61532850       0.36533700       0.80126500 </v>
   <v>       0.61532849       0.86533698       0.80126500 </v>
   <v>       0.38467151       0.13466300       0.80126500 </v>
   <v>       0.38467150       0.63466297       0.80126500 </v>
   <v>       0.88467149       0.13466300       0.80126500 </v>
   <v>       0.88467153       0.63466297       0.80126500 </v>
   <v>       0.99583808       0.00401848       0.60526742 </v>
   <v>       0.00531959       0.50725060       0.60418371 </v>
   <v>       0.50375157       0.00634378       0.60517359 </v>
   <v>       0.49808934       0.50348391       0.60443016 </v>
   <v>       0.24931943       0.25199924       0.60465866 </v>
   <v>       0.24669234       0.75582499       0.60364601 </v>
   <v>       0.74729373       0.25880573       0.60582558 </v>
   <v>       0.73848488       0.75650555       0.60179340 </v>
   <v>       0.00000050       0.00000050       0.70482896 </v>
   <v>       0.00000050       0.50000048       0.70482896 </v>
   <v>       0.50000048       0.00000050       0.70482896 </v>
   <v>       0.50000046       0.50000048       0.70482896 </v>
   <v>       0.24999999       0.24999947       0.70482499 </v>
   <v>       0.25000001       0.74999950       0.70482499 </v>
   <v>       0.74999999       0.24999947       0.70482499 </v>
   <v>       0.74999998       0.74999950       0.70482499 </v>
   <v>       0.00000000       0.00000000       0.80731797 </v>
   <v>       0.00000000       0.50000000       0.80731797 </v>
   <v>       0.50000000       0.00000000       0.80731797 </v>
   <v>       0.49999999       0.50000000       0.80731797 </v>
   <v>       0.24999999       0.25000000       0.80731797 </v>
   <v>       0.25000001       0.74999997       0.80731797 </v>
   <v>       0.74999999       0.25000000       0.80731797 </v>
   <v>       0.74999998       0.74999997       0.80731797 </v>
  </varray>
 </structure>
</modeling>
