<?xml version="1.0" encoding="ISO-8859-1"?>
<modeling>
 <generator>
  <i name="program" type="string">vasp </i>
  <i name="version" type="string">6.2.1  </i>
  <i name="subversion" type="string">16May21 (build Nov 15 2021 14:57:28) complex                          parallel </i>
  <i name="platform" type="string">LinuxPGI </i>
  <i name="date" type="string">2023 07 30 </i>
  <i name="time" type="string">21:18:45 </i>
 </generator>
 <incar>
  <i type="string" name="SYSTEM">PSC</i>
  <i type="int" name="ISTART">     1</i>
  <i type="string" name="PREC">Normal</i>
  <i name="BMIX">      0.01000000</i>
  <i name="AMIN">      0.01000000</i>
  <i type="int" name="ICHARG">     1</i>
  <i type="int" name="NELM">   600</i>
  <i type="int" name="ISYM">     0</i>
  <i name="ENCUT">    500.00000000</i>
  <i type="string" name="LREAL">Auto</i>
  <i type="int" name="ISMEAR">     0</i>
  <i name="SIGMA">      0.05000000</i>
  <i type="logical" name="LWAVE"> F  </i>
  <i type="logical" name="LVTOT"> T  </i>
  <i type="logical" name="GGA_COMPAT"> F  </i>
  <i type="logical" name="LDIPOL"> T  </i>
  <i type="int" name="IDIPOL">     3</i>
  <i type="int" name="IVDW">    12</i>
 </incar>
 <primitive_cell>
  <structure name="primitive_cell" >
   <crystal>
    <varray name="basis" >
     <v>      18.06080055       0.00000000       0.00000000 </v>
     <v>      -0.00491865      18.06279945       0.00000000 </v>
     <v>       0.00000000       0.00000000      62.48749924 </v>
    </varray>
    <i name="volume">  20385.21054034 </i>
    <varray name="rec_basis" >
     <v>       0.05536853       0.00001508      -0.00000000 </v>
     <v>       0.00000000       0.05536240       0.00000000 </v>
     <v>       0.00000000      -0.00000000       0.01600320 </v>
    </varray>
   </crystal>
   <varray name="positions" >
    <v>       0.47294569       0.33760039       0.56750871 </v>
    <v>       0.44512188       0.83089207       0.57423662 </v>
    <v>       0.92278505       0.25667146       0.57980206 </v>
    <v>       0.93935499       0.81926491       0.57401447 </v>
    <v>       0.31893441       0.07720962       0.56945283 </v>
    <v>       0.34940216       0.55146952       0.56224154 </v>
    <v>       0.80096286       0.09331254       0.56925924 </v>
    <v>       0.10575662       0.24735341       0.55708243 </v>
    <v>       0.07816571       0.67390328       0.57543003 </v>
    <v>       0.54491423       0.15027939       0.56084765 </v>
    <v>       0.50126061       0.64498165       0.55950790 </v>
    <v>       0.37042336       0.01276768       0.55516811 </v>
    <v>       0.29589390       0.62895021       0.55478241 </v>
    <v>       0.87393827       0.03557831       0.56006985 </v>
    <v>       0.05777447       0.25824745       0.58080281 </v>
    <v>       0.99237468       0.69659610       0.58632412 </v>
    <v>       0.57372672       0.23956271       0.56887861 </v>
    <v>       0.45072763       0.69389339       0.57850768 </v>
    <v>       0.27587110       0.43848606       0.57277191 </v>
    <v>       0.18309657       0.06005641       0.57191609 </v>
    <v>       0.67838188       0.03040939       0.57359831 </v>
    <v>       0.38642956       0.30609962       0.55813654 </v>
    <v>       0.50149783       0.87077556       0.55469640 </v>
    <v>       0.87801659       0.24029877       0.55579397 </v>
    <v>       0.98915595       0.86671056       0.55486837 </v>
    <v>       0.18137372       0.44116562       0.56679464 </v>
    <v>       0.14524070       0.98589491       0.55840948 </v>
    <v>       0.67453571       0.93708495       0.56518702 </v>
    <v>       0.42727967       0.18739962       0.55171490 </v>
    <v>       0.54455008       0.75554621       0.54276609 </v>
    <v>       0.99396005       0.23320114       0.53713740 </v>
    <v>       0.08295412       0.77655801       0.55337850 </v>
    <v>       0.18478329       0.56198118       0.55504656 </v>
    <v>       0.26244210       0.94231761       0.54684711 </v>
    <v>       0.79611087       0.93343720       0.55591899 </v>
    <v>       0.45472205       0.30492173       0.67338713 </v>
    <v>       0.44431675       0.80810849       0.67271329 </v>
    <v>       0.94278057       0.27738899       0.67489066 </v>
    <v>       0.92331671       0.72934931       0.67129094 </v>
    <v>       0.30671319       0.05008220       0.67211661 </v>
    <v>       0.29562585       0.55439673       0.67530047 </v>
    <v>       0.80182580       0.05406679       0.67456839 </v>
    <v>       0.84209455       0.47102061       0.66363115 </v>
    <v>       0.09203518       0.17348076       0.64888064 </v>
    <v>       0.11333534       0.71991869       0.65169169 </v>
    <v>       0.58034269       0.16920595       0.64956553 </v>
    <v>       0.57052162       0.66873269       0.65062024 </v>
    <v>       0.18555519       0.41179518       0.64821687 </v>
    <v>       0.16619900       0.92950960       0.64769894 </v>
    <v>       0.64209337       0.47494047       0.65742141 </v>
    <v>       0.67613337       0.91918254       0.65002143 </v>
    <v>       0.05318957       0.18703209       0.67415046 </v>
    <v>       0.05255191       0.67428184       0.66871694 </v>
    <v>       0.55627826       0.20447690       0.67434179 </v>
    <v>       0.53872450       0.69999685       0.67520164 </v>
    <v>       0.20208247       0.44462635       0.67386617 </v>
    <v>       0.19801402       0.95564575       0.67291309 </v>
    <v>       0.71553432       0.41963794       0.66670452 </v>
    <v>       0.70293602       0.95155293       0.67524755 </v>
    <v>       0.41960674       0.32451810       0.64804875 </v>
    <v>       0.42289056       0.83470972       0.64663080 </v>
    <v>       0.92214772       0.31791741       0.65008925 </v>
    <v>       0.90723198       0.80815648       0.65583906 </v>
    <v>       0.33549432       0.07491907       0.64656212 </v>
    <v>       0.32611603       0.58411118       0.65046457 </v>
    <v>       0.82979028       0.08094414       0.64891965 </v>
    <v>       0.85062588       0.55581520       0.65054253 </v>
    <v>       0.01294539       0.25676724       0.63209261 </v>
    <v>       0.02753303       0.80911666       0.64180769 </v>
    <v>       0.49714523       0.24063451       0.63080891 </v>
    <v>       0.50047289       0.74911102       0.63091312 </v>
    <v>       0.24917281       0.00089469       0.62948497 </v>
    <v>       0.26250125       0.49570211       0.63167651 </v>
    <v>       0.75352788       0.99746971       0.63180191 </v>
    <v>       0.72320852       0.56736992       0.64543702 </v>
    <v>       0.44874502       0.30128397       0.76888902 </v>
    <v>       0.44874501       0.80128391       0.76888902 </v>
    <v>       0.94874497       0.30128397       0.76888902 </v>
    <v>       0.94874501       0.80128391       0.76888902 </v>
    <v>       0.30127600       0.05129450       0.76887296 </v>
    <v>       0.30127601       0.55129450       0.76887296 </v>
    <v>       0.80127594       0.05129450       0.76887296 </v>
    <v>       0.80127598       0.55129450       0.76887296 </v>
    <v>       0.07877100       0.17118050       0.74344197 </v>
    <v>       0.07877101       0.67118045       0.74344197 </v>
    <v>       0.57877100       0.17118050       0.74344197 </v>
    <v>       0.57877099       0.67118045       0.74344197 </v>
    <v>       0.17119950       0.42117448       0.74342103 </v>
    <v>       0.17119950       0.92117451       0.74342103 </v>
    <v>       0.67119951       0.42117448       0.74342103 </v>
    <v>       0.67119950       0.92117451       0.74342103 </v>
    <v>       0.05125600       0.19871499       0.76888902 </v>
    <v>       0.05125600       0.69871493       0.76888902 </v>
    <v>       0.55125603       0.19871499       0.76888902 </v>
    <v>       0.55125602       0.69871493       0.76888902 </v>
    <v>       0.19872349       0.44870397       0.76887205 </v>
    <v>       0.19872349       0.94870397       0.76887205 </v>
    <v>       0.69872352       0.44870397       0.76887205 </v>
    <v>       0.69872351       0.94870397       0.76887205 </v>
    <v>       0.42123152       0.32881747       0.74344197 </v>
    <v>       0.42123151       0.82881744       0.74344197 </v>
    <v>       0.92123147       0.32881747       0.74344197 </v>
    <v>       0.92123151       0.82881744       0.74344197 </v>
    <v>       0.32880050       0.07882500       0.74342103 </v>
    <v>       0.32880049       0.57882496       0.74342103 </v>
    <v>       0.82880048       0.07882500       0.74342103 </v>
    <v>       0.82880052       0.57882496       0.74342103 </v>
    <v>       0.00000350       0.25000148       0.72582199 </v>
    <v>       0.00000350       0.75000145       0.72582199 </v>
    <v>       0.50000351       0.25000148       0.72582199 </v>
    <v>       0.50000350       0.75000145       0.72582199 </v>
    <v>       0.25000050       0.00000000       0.72580398 </v>
    <v>       0.25000052       0.50000000       0.72580398 </v>
    <v>       0.75000050       0.00000000       0.72580398 </v>
    <v>       0.75000049       0.50000000       0.72580398 </v>
    <v>       0.72039743       0.44254905       0.54077546 </v>
    <v>       0.73728277       0.49325314       0.51727552 </v>
    <v>       0.66011700       0.55187855       0.55790968 </v>
    <v>       0.70731622       0.63749351       0.55602674 </v>
    <v>       0.85103178       0.50754701       0.56833029 </v>
    <v>       0.78916643       0.57664579       0.57806704 </v>
    <v>       0.87393877       0.56248793       0.53085551 </v>
    <v>       0.80132200       0.62388041       0.52275831 </v>
    <v>       0.87150795       0.46279979       0.51865763 </v>
    <v>       0.86312046       0.42239004       0.54415547 </v>
    <v>       0.87305386       0.32623323       0.51875567 </v>
    <v>       0.78381845       0.32289264       0.52992166 </v>
    <v>       0.63579038       0.55020829       0.51866038 </v>
    <v>       0.68939704       0.63329371       0.51535466 </v>
    <v>       0.60745288       0.63436625       0.53055180 </v>
    <v>       0.75550164       0.46769066       0.59637691 </v>
    <v>       0.75415520       0.41107386       0.57324167 </v>
    <v>       0.68424311       0.47822512       0.57788634 </v>
    <v>       0.81721226       0.69150091       0.55855032 </v>
    <v>       0.89834996       0.68932264       0.54316559 </v>
    <v>       0.88959734       0.62760070       0.56502244 </v>
    <v>       0.82073433       0.38096409       0.48495918 </v>
    <v>       0.78594353       0.29323234       0.49160016 </v>
    <v>       0.66332232       0.30480982       0.51861014 </v>
    <v>       0.73233164       0.46181612       0.47090537 </v>
    <v>       0.53667100       0.35692089       0.51762398 </v>
    <v>       0.60474901       0.51314621       0.46960183 </v>
    <v>       0.50674922       0.46214009       0.49346375 </v>
    <v>       0.99267985       0.24278226       0.55436295 </v>
    <v>       0.03462497       0.76779686       0.56357873 </v>
    <v>       0.46605677       0.22820970       0.55813135 </v>
    <v>       0.50475621       0.75747095       0.55585691 </v>
    <v>       0.23658856       0.53514986       0.55970179 </v>
    <v>       0.25810887       0.99392748       0.55586228 </v>
    <v>       0.77420390       0.98561737       0.56198380 </v>
    <v>       0.00723647       0.24581219       0.64932451 </v>
    <v>       0.01130857       0.76624646       0.65315829 </v>
    <v>       0.50058037       0.24685888       0.64826150 </v>
    <v>       0.49650527       0.75118639       0.64837065 </v>
    <v>       0.25667320       0.49710721       0.64907721 </v>
    <v>       0.25055430       0.00183973       0.64699531 </v>
    <v>       0.74556128       0.51814969       0.65330456 </v>
    <v>       0.75289982       0.99953486       0.64928557 </v>
    <v>       0.49998898       0.24999498       0.74327702 </v>
    <v>       0.49998903       0.74999496       0.74327702 </v>
    <v>       0.99998898       0.24999498       0.74327702 </v>
    <v>       0.99998903       0.74999496       0.74327702 </v>
    <v>       0.25000050       0.00000100       0.74325596 </v>
    <v>       0.25000052       0.50000100       0.74325596 </v>
    <v>       0.75000050       0.00000100       0.74325596 </v>
    <v>       0.75000049       0.50000100       0.74325596 </v>
    <v>       0.70698432       0.38046914       0.49481116 </v>
    <v>       0.65076014       0.35053464       0.50761590 </v>
    <v>       0.68910485       0.43870775       0.48100154 </v>
    <v>       0.57905593       0.38017976       0.50716128 </v>
    <v>       0.61770137       0.46765359       0.48025786 </v>
    <v>       0.56208594       0.43900110       0.49360987 </v>
    <v>       0.76215263       0.47628174       0.53255018 </v>
    <v>       0.69587014       0.58546032       0.54756051 </v>
    <v>       0.79255759       0.52510124       0.56890584 </v>
    <v>       0.82827625       0.59748710       0.53650953 </v>
    <v>       0.83310608       0.43169770       0.52900424 </v>
    <v>       0.81905343       0.35496215       0.51903277 </v>
    <v>       0.65634877       0.60049061       0.52662560 </v>
    <v>       0.74389064       0.46720091       0.57917767 </v>
    <v>       0.85933737       0.65416729       0.55196593 </v>
    <v>       0.78537940       0.35169907       0.49638603 </v>
    <v>       0.05552392       0.24794041       0.56471463 </v>
    <v>       0.03392782       0.70869776       0.57557246 </v>
    <v>       0.53388564       0.20580885       0.56223202 </v>
    <v>       0.48429958       0.69539786       0.56516681 </v>
    <v>       0.44160669       0.29632798       0.56059876 </v>
    <v>       0.47978827       0.82341074       0.56137577 </v>
    <v>       0.92734769       0.24813608       0.56361755 </v>
    <v>       0.98083506       0.81703901       0.56258671 </v>
    <v>       0.23230763       0.46576549       0.56582716 </v>
    <v>       0.19194809       0.01530243       0.56192434 </v>
    <v>       0.70335417       0.98604952       0.56651510 </v>
    <v>       0.31908200       0.03098304       0.55989806 </v>
    <v>       0.29816991       0.57363110       0.55850178 </v>
    <v>       0.81955488       0.04154166       0.56449608 </v>
    <v>       0.05293565       0.19890118       0.65818731 </v>
    <v>       0.06058713       0.71621530       0.65799580 </v>
    <v>       0.54853380       0.20534893       0.65823395 </v>
    <v>       0.53717359       0.70341688       0.65898709 </v>
    <v>       0.21329458       0.44777890       0.65788915 </v>
    <v>       0.20212568       0.96040513       0.65679164 </v>
    <v>       0.69815505       0.46735803       0.65946564 </v>
    <v>       0.70862225       0.95378057       0.65909185 </v>
    <v>       0.45579058       0.29541497       0.65737031 </v>
    <v>       0.45191316       0.80087827       0.65670044 </v>
    <v>       0.95461721       0.28256335       0.65901529 </v>
    <v>       0.94350813       0.76884648       0.66091503 </v>
    <v>       0.30087997       0.04460130       0.65608533 </v>
    <v>       0.29530075       0.54815546       0.65915430 </v>
    <v>       0.79718391       0.04829081       0.65848724 </v>
    <v>       0.81758975       0.51445696       0.65618398 </v>
    <v>       0.04586250       0.20411950       0.75272599 </v>
    <v>       0.04586250       0.70411946       0.75272599 </v>
    <v>       0.54586251       0.20411950       0.75272599 </v>
    <v>       0.54586250       0.70411946       0.75272599 </v>
    <v>       0.20411900       0.45410100       0.75270499 </v>
    <v>       0.20411899       0.95410095       0.75270499 </v>
    <v>       0.70411898       0.45410100       0.75270499 </v>
    <v>       0.70411896       0.95410095       0.75270499 </v>
    <v>       0.45414002       0.29588849       0.75272697 </v>
    <v>       0.45414001       0.79588852       0.75272697 </v>
    <v>       0.95414002       0.29588849       0.75272697 </v>
    <v>       0.95414006       0.79588852       0.75272697 </v>
    <v>       0.29588249       0.04590050       0.75270499 </v>
    <v>       0.29588248       0.54590053       0.75270499 </v>
    <v>       0.79588244       0.04590050       0.75270499 </v>
    <v>       0.79588248       0.54590053       0.75270499 </v>
    <v>       0.77000227       0.54598289       0.54610660 </v>
    <v>       0.51097573       0.01253121       0.55179591 </v>
    <v>       0.48472424       0.50194523       0.55421894 </v>
    <v>       0.00432327       0.00913107       0.55129771 </v>
    <v>       0.02859828       0.50316654       0.55495884 </v>
    <v>       0.25168050       0.24622760       0.55279276 </v>
    <v>       0.24955978       0.76646668       0.55279282 </v>
    <v>       0.73386145       0.21089698       0.55587632 </v>
    <v>       0.69933834       0.79607943       0.55502245 </v>
    <v>       0.99519657       0.98411122       0.65425909 </v>
    <v>       0.01485109       0.49494451       0.65561398 </v>
    <v>       0.49856785       0.00404065       0.65442868 </v>
    <v>       0.50199223       0.49580491       0.65479790 </v>
    <v>       0.25629273       0.24506473       0.65436422 </v>
    <v>       0.25484506       0.75477421       0.65441733 </v>
    <v>       0.74715377       0.26605203       0.65509343 </v>
    <v>       0.74611297       0.74231252       0.65471939 </v>
    <v>       0.12931324       0.12231772       0.60735250 </v>
    <v>       0.15362127       0.60542920       0.60831662 </v>
    <v>       0.64036121       0.11355857       0.61085924 </v>
    <v>       0.63029293       0.61995981       0.60866929 </v>
    <v>       0.36400557       0.38756668       0.60690856 </v>
    <v>       0.37233473       0.88279723       0.60630553 </v>
    <v>       0.88776640       0.37040020       0.60888698 </v>
    <v>       0.86765953       0.88182987       0.60611256 </v>
    <v>       0.12288698       0.36481190       0.60818933 </v>
    <v>       0.12303422       0.87542361       0.60672114 </v>
    <v>       0.59683370       0.34754785       0.60117072 </v>
    <v>       0.61529498       0.86715750       0.61307031 </v>
    <v>       0.38625102       0.13290512       0.60613930 </v>
    <v>       0.38502001       0.63341726       0.61040407 </v>
    <v>       0.88260789       0.13628713       0.61257296 </v>
    <v>       0.90141694       0.64217550       0.61462861 </v>
    <v>       0.00000000       0.00000000       0.75492797 </v>
    <v>       0.00000000       0.50000000       0.75492797 </v>
    <v>       0.50000000       0.00000000       0.75492797 </v>
    <v>       0.49999999       0.50000000       0.75492797 </v>
    <v>       0.25000050       0.25000000       0.75493902 </v>
    <v>       0.25000051       0.74999997       0.75493902 </v>
    <v>       0.75000047       0.25000000       0.75493902 </v>
    <v>       0.75000046       0.74999997       0.75493902 </v>
    <v>       0.13579050       0.11421000       0.70478299 </v>
    <v>       0.13579050       0.61420998       0.70478299 </v>
    <v>       0.63579045       0.11421000       0.70478299 </v>
    <v>       0.63579049       0.61420998       0.70478299 </v>
    <v>       0.36420952       0.38578999       0.70478299 </v>
    <v>       0.36420950       0.88578996       0.70478299 </v>
    <v>       0.86420954       0.38578999       0.70478299 </v>
    <v>       0.86420953       0.88578996       0.70478299 </v>
    <v>       0.11421799       0.36421899       0.70478098 </v>
    <v>       0.11421799       0.86421899       0.70478098 </v>
    <v>       0.61421800       0.36421899       0.70478098 </v>
    <v>       0.61421799       0.86421899       0.70478098 </v>
    <v>       0.38578201       0.13578149       0.70478202 </v>
    <v>       0.38578200       0.63578149       0.70478202 </v>
    <v>       0.88578199       0.13578149       0.70478202 </v>
    <v>       0.88578203       0.63578149       0.70478202 </v>
    <v>       0.13466700       0.11533200       0.80125603 </v>
    <v>       0.13466699       0.61533199       0.80125603 </v>
    <v>       0.63466699       0.11533200       0.80125603 </v>
    <v>       0.63466698       0.61533199       0.80125603 </v>
    <v>       0.36533300       0.38466799       0.80125603 </v>
    <v>       0.36533299       0.88466796       0.80125603 </v>
    <v>       0.86533295       0.38466799       0.80125603 </v>
    <v>       0.86533294       0.88466796       0.80125603 </v>
    <v>       0.11532850       0.36533700       0.80126500 </v>
    <v>       0.11532850       0.86533698       0.80126500 </v>
    <v>       0.61532850       0.36533700       0.80126500 </v>
    <v>       0.61532849       0.86533698       0.80126500 </v>
    <v>       0.38467151       0.13466300       0.80126500 </v>
    <v>       0.38467150       0.63466297       0.80126500 </v>
    <v>       0.88467149       0.13466300       0.80126500 </v>
    <v>       0.88467153       0.63466297       0.80126500 </v>
    <v>       0.99728379       0.00415122       0.60472966 </v>
    <v>       0.00730327       0.50342668       0.60469669 </v>
    <v>       0.50381427       0.00195396       0.60457301 </v>
    <v>       0.50218614       0.49952778       0.60407334 </v>
    <v>       0.25327627       0.25059030       0.60403537 </v>
    <v>       0.24888985       0.75189076       0.60329956 </v>
    <v>       0.74662010       0.25391381       0.60515540 </v>
    <v>       0.74254535       0.75684345       0.60391211 </v>
    <v>       0.00000050       0.00000050       0.70482896 </v>
    <v>       0.00000050       0.50000048       0.70482896 </v>
    <v>       0.50000048       0.00000050       0.70482896 </v>
    <v>       0.50000046       0.50000048       0.70482896 </v>
    <v>       0.24999999       0.24999947       0.70482499 </v>
    <v>       0.25000001       0.74999950       0.70482499 </v>
    <v>       0.74999999       0.24999947       0.70482499 </v>
    <v>       0.74999998       0.74999950       0.70482499 </v>
    <v>       0.00000000       0.00000000       0.80731797 </v>
    <v>       0.00000000       0.50000000       0.80731797 </v>
    <v>       0.50000000       0.00000000       0.80731797 </v>
    <v>       0.49999999       0.50000000       0.80731797 </v>
    <v>       0.24999999       0.25000000       0.80731797 </v>
    <v>       0.25000001       0.74999997       0.80731797 </v>
    <v>       0.74999999       0.25000000       0.80731797 </v>
    <v>       0.74999998       0.74999997       0.80731797 </v>
   </varray>
  </structure>
  <varray name="primitive_index" >
   <v type="int" >        1 </v>
   <v type="int" >        2 </v>
   <v type="int" >        3 </v>
   <v type="int" >        4 </v>
   <v type="int" >        5 </v>
   <v type="int" >        6 </v>
   <v type="int" >        7 </v>
   <v type="int" >        8 </v>
   <v type="int" >        9 </v>
   <v type="int" >       10 </v>
   <v type="int" >       11 </v>
   <v type="int" >       12 </v>
   <v type="int" >       13 </v>
   <v type="int" >       14 </v>
   <v type="int" >       15 </v>
   <v type="int" >       16 </v>
   <v type="int" >       17 </v>
   <v type="int" >       18 </v>
   <v type="int" >       19 </v>
   <v type="int" >       20 </v>
   <v type="int" >       21 </v>
   <v type="int" >       22 </v>
   <v type="int" >       23 </v>
   <v type="int" >       24 </v>
   <v type="int" >       25 </v>
   <v type="int" >       26 </v>
   <v type="int" >       27 </v>
   <v type="int" >       28 </v>
   <v type="int" >       29 </v>
   <v type="int" >       30 </v>
   <v type="int" >       31 </v>
   <v type="int" >       32 </v>
   <v type="int" >       33 </v>
   <v type="int" >       34 </v>
   <v type="int" >       35 </v>
   <v type="int" >       36 </v>
   <v type="int" >       37 </v>
   <v type="int" >       38 </v>
   <v type="int" >       39 </v>
   <v type="int" >       40 </v>
   <v type="int" >       41 </v>
   <v type="int" >       42 </v>
   <v type="int" >       43 </v>
   <v type="int" >       44 </v>
   <v type="int" >       45 </v>
   <v type="int" >       46 </v>
   <v type="int" >       47 </v>
   <v type="int" >       48 </v>
   <v type="int" >       49 </v>
   <v type="int" >       50 </v>
   <v type="int" >       51 </v>
   <v type="int" >       52 </v>
   <v type="int" >       53 </v>
   <v type="int" >       54 </v>
   <v type="int" >       55 </v>
   <v type="int" >       56 </v>
   <v type="int" >       57 </v>
   <v type="int" >       58 </v>
   <v type="int" >       59 </v>
   <v type="int" >       60 </v>
   <v type="int" >       61 </v>
   <v type="int" >       62 </v>
   <v type="int" >       63 </v>
   <v type="int" >       64 </v>
   <v type="int" >       65 </v>
   <v type="int" >       66 </v>
   <v type="int" >       67 </v>
   <v type="int" >       68 </v>
   <v type="int" >       69 </v>
   <v type="int" >       70 </v>
   <v type="int" >       71 </v>
   <v type="int" >       72 </v>
   <v type="int" >       73 </v>
   <v type="int" >       74 </v>
   <v type="int" >       75 </v>
   <v type="int" >       76 </v>
   <v type="int" >       77 </v>
   <v type="int" >       78 </v>
   <v type="int" >       79 </v>
   <v type="int" >       80 </v>
   <v type="int" >       81 </v>
   <v type="int" >       82 </v>
   <v type="int" >       83 </v>
   <v type="int" >       84 </v>
   <v type="int" >       85 </v>
   <v type="int" >       86 </v>
   <v type="int" >       87 </v>
   <v type="int" >       88 </v>
   <v type="int" >       89 </v>
   <v type="int" >       90 </v>
   <v type="int" >       91 </v>
   <v type="int" >       92 </v>
   <v type="int" >       93 </v>
   <v type="int" >       94 </v>
   <v type="int" >       95 </v>
   <v type="int" >       96 </v>
   <v type="int" >       97 </v>
   <v type="int" >       98 </v>
   <v type="int" >       99 </v>
   <v type="int" >      100 </v>
   <v type="int" >      101 </v>
   <v type="int" >      102 </v>
   <v type="int" >      103 </v>
   <v type="int" >      104 </v>
   <v type="int" >      105 </v>
   <v type="int" >      106 </v>
   <v type="int" >      107 </v>
   <v type="int" >      108 </v>
   <v type="int" >      109 </v>
   <v type="int" >      110 </v>
   <v type="int" >      111 </v>
   <v type="int" >      112 </v>
   <v type="int" >      113 </v>
   <v type="int" >      114 </v>
   <v type="int" >      115 </v>
   <v type="int" >      116 </v>
   <v type="int" >      117 </v>
   <v type="int" >      118 </v>
   <v type="int" >      119 </v>
   <v type="int" >      120 </v>
   <v type="int" >      121 </v>
   <v type="int" >      122 </v>
   <v type="int" >      123 </v>
   <v type="int" >      124 </v>
   <v type="int" >      125 </v>
   <v type="int" >      126 </v>
   <v type="int" >      127 </v>
   <v type="int" >      128 </v>
   <v type="int" >      129 </v>
   <v type="int" >      130 </v>
   <v type="int" >      131 </v>
   <v type="int" >      132 </v>
   <v type="int" >      133 </v>
   <v type="int" >      134 </v>
   <v type="int" >      135 </v>
   <v type="int" >      136 </v>
   <v type="int" >      137 </v>
   <v type="int" >      138 </v>
   <v type="int" >      139 </v>
   <v type="int" >      140 </v>
   <v type="int" >      141 </v>
   <v type="int" >      142 </v>
   <v type="int" >      143 </v>
   <v type="int" >      144 </v>
   <v type="int" >      145 </v>
   <v type="int" >      146 </v>
   <v type="int" >      147 </v>
   <v type="int" >      148 </v>
   <v type="int" >      149 </v>
   <v type="int" >      150 </v>
   <v type="int" >      151 </v>
   <v type="int" >      152 </v>
   <v type="int" >      153 </v>
   <v type="int" >      154 </v>
   <v type="int" >      155 </v>
   <v type="int" >      156 </v>
   <v type="int" >      157 </v>
   <v type="int" >      158 </v>
   <v type="int" >      159 </v>
   <v type="int" >      160 </v>
   <v type="int" >      161 </v>
   <v type="int" >      162 </v>
   <v type="int" >      163 </v>
   <v type="int" >      164 </v>
   <v type="int" >      165 </v>
   <v type="int" >      166 </v>
   <v type="int" >      167 </v>
   <v type="int" >      168 </v>
   <v type="int" >      169 </v>
   <v type="int" >      170 </v>
   <v type="int" >      171 </v>
   <v type="int" >      172 </v>
   <v type="int" >      173 </v>
   <v type="int" >      174 </v>
   <v type="int" >      175 </v>
   <v type="int" >      176 </v>
   <v type="int" >      177 </v>
   <v type="int" >      178 </v>
   <v type="int" >      179 </v>
   <v type="int" >      180 </v>
   <v type="int" >      181 </v>
   <v type="int" >      182 </v>
   <v type="int" >      183 </v>
   <v type="int" >      184 </v>
   <v type="int" >      185 </v>
   <v type="int" >      186 </v>
   <v type="int" >      187 </v>
   <v type="int" >      188 </v>
   <v type="int" >      189 </v>
   <v type="int" >      190 </v>
   <v type="int" >      191 </v>
   <v type="int" >      192 </v>
   <v type="int" >      193 </v>
   <v type="int" >      194 </v>
   <v type="int" >      195 </v>
   <v type="int" >      196 </v>
   <v type="int" >      197 </v>
   <v type="int" >      198 </v>
   <v type="int" >      199 </v>
   <v type="int" >      200 </v>
   <v type="int" >      201 </v>
   <v type="int" >      202 </v>
   <v type="int" >      203 </v>
   <v type="int" >      204 </v>
   <v type="int" >      205 </v>
   <v type="int" >      206 </v>
   <v type="int" >      207 </v>
   <v type="int" >      208 </v>
   <v type="int" >      209 </v>
   <v type="int" >      210 </v>
   <v type="int" >      211 </v>
   <v type="int" >      212 </v>
   <v type="int" >      213 </v>
   <v type="int" >      214 </v>
   <v type="int" >      215 </v>
   <v type="int" >      216 </v>
   <v type="int" >      217 </v>
   <v type="int" >      218 </v>
   <v type="int" >      219 </v>
   <v type="int" >      220 </v>
   <v type="int" >      221 </v>
   <v type="int" >      222 </v>
   <v type="int" >      223 </v>
   <v type="int" >      224 </v>
   <v type="int" >      225 </v>
   <v type="int" >      226 </v>
   <v type="int" >      227 </v>
   <v type="int" >      228 </v>
   <v type="int" >      229 </v>
   <v type="int" >      230 </v>
   <v type="int" >      231 </v>
   <v type="int" >      232 </v>
   <v type="int" >      233 </v>
   <v type="int" >      234 </v>
   <v type="int" >      235 </v>
   <v type="int" >      236 </v>
   <v type="int" >      237 </v>
   <v type="int" >      238 </v>
   <v type="int" >      239 </v>
   <v type="int" >      240 </v>
   <v type="int" >      241 </v>
   <v type="int" >      242 </v>
   <v type="int" >      243 </v>
   <v type="int" >      244 </v>
   <v type="int" >      245 </v>
   <v type="int" >      246 </v>
   <v type="int" >      247 </v>
   <v type="int" >      248 </v>
   <v type="int" >      249 </v>
   <v type="int" >      250 </v>
   <v type="int" >      251 </v>
   <v type="int" >      252 </v>
   <v type="int" >      253 </v>
   <v type="int" >      254 </v>
   <v type="int" >      255 </v>
   <v type="int" >      256 </v>
   <v type="int" >      257 </v>
   <v type="int" >      258 </v>
   <v type="int" >      259 </v>
   <v type="int" >      260 </v>
   <v type="int" >      261 </v>
   <v type="int" >      262 </v>
   <v type="int" >      263 </v>
   <v type="int" >      264 </v>
   <v type="int" >      265 </v>
   <v type="int" >      266 </v>
   <v type="int" >      267 </v>
   <v type="int" >      268 </v>
   <v type="int" >      269 </v>
   <v type="int" >      270 </v>
   <v type="int" >      271 </v>
   <v type="int" >      272 </v>
   <v type="int" >      273 </v>
   <v type="int" >      274 </v>
   <v type="int" >      275 </v>
   <v type="int" >      276 </v>
   <v type="int" >      277 </v>
   <v type="int" >      278 </v>
   <v type="int" >      279 </v>
   <v type="int" >      280 </v>
   <v type="int" >      281 </v>
   <v type="int" >      282 </v>
   <v type="int" >      283 </v>
   <v type="int" >      284 </v>
   <v type="int" >      285 </v>
   <v type="int" >      286 </v>
   <v type="int" >      287 </v>
   <v type="int" >      288 </v>
   <v type="int" >      289 </v>
   <v type="int" >      290 </v>
   <v type="int" >      291 </v>
   <v type="int" >      292 </v>
   <v type="int" >      293 </v>
   <v type="int" >      294 </v>
   <v type="int" >      295 </v>
   <v type="int" >      296 </v>
   <v type="int" >      297 </v>
   <v type="int" >      298 </v>
   <v type="int" >      299 </v>
   <v type="int" >      300 </v>
   <v type="int" >      301 </v>
   <v type="int" >      302 </v>
   <v type="int" >      303 </v>
   <v type="int" >      304 </v>
   <v type="int" >      305 </v>
   <v type="int" >      306 </v>
   <v type="int" >      307 </v>
   <v type="int" >      308 </v>
   <v type="int" >      309 </v>
   <v type="int" >      310 </v>
   <v type="int" >      311 </v>
   <v type="int" >      312 </v>
   <v type="int" >      313 </v>
   <v type="int" >      314 </v>
   <v type="int" >      315 </v>
   <v type="int" >      316 </v>
   <v type="int" >      317 </v>
   <v type="int" >      318 </v>
   <v type="int" >      319 </v>
   <v type="int" >      320 </v>
   <v type="int" >      321 </v>
   <v type="int" >      322 </v>
   <v type="int" >      323 </v>
   <v type="int" >      324 </v>
   <v type="int" >      325 </v>
  </varray>
 </primitive_cell>
 <kpoints>
  <generation param="Gamma">
   <v type="int" name="divisions">       3        3        1 </v>
   <v name="usershift">      0.00000000       0.00000000       0.00000000 </v>
   <v name="genvec1">      0.33333333       0.00000000       0.00000000 </v>
   <v name="genvec2">      0.00000000       0.33333333       0.00000000 </v>
   <v name="genvec3">      0.00000000       0.00000000       1.00000000 </v>
   <v name="shift">      0.00000000       0.00000000       0.00000000 </v>
  </generation>
  <varray name="kpointlist" >
   <v>       0.00000000       0.00000000       0.00000000 </v>
   <v>       0.33333333       0.00000000       0.00000000 </v>
   <v>       0.00000000       0.33333333       0.00000000 </v>
   <v>       0.33333333       0.33333333       0.00000000 </v>
   <v>      -0.33333333       0.33333333       0.00000000 </v>
  </varray>
  <varray name="weights" >
   <v>       0.11111111 </v>
   <v>       0.22222222 </v>
   <v>       0.22222222 </v>
   <v>       0.22222222 </v>
   <v>       0.22222222 </v>
  </varray>
 </kpoints>
 <parameters>
  <separator name="general" >
   <i type="string" name="SYSTEM">PSC</i>
   <i type="logical" name="LCOMPAT"> F  </i>
  </separator>
  <separator name="electronic" >
   <i type="string" name="PREC">normal</i>
   <i name="ENMAX">    500.00000000</i>
   <i name="ENAUG">    644.87300000</i>
   <i name="EDIFF">      0.00010000</i>
   <i type="int" name="IALGO">    38</i>
   <i type="int" name="IWAVPR">    10</i>
   <i type="int" name="NBANDS">   732</i>
   <i type="int" name="NBANDSLOW">    -1</i>
   <i type="int" name="NBANDSHIGH">    -1</i>
   <i name="NELECT">   1134.00000000</i>
   <i type="int" name="TURBO">     0</i>
   <i type="int" name="IRESTART">     0</i>
   <i type="int" name="NREBOOT">     0</i>
   <i type="int" name="NMIN">     0</i>
   <i name="EREF">      0.00000000</i>
   <separator name="electronic smearing" >
    <i type="int" name="ISMEAR">     0</i>
    <i name="SIGMA">      0.05000000</i>
    <i name="KSPACING">      0.50000000</i>
    <i type="logical" name="KGAMMA"> T  </i>
    <i type="logical" name="KBLOWUP"> T  </i>
   </separator>
   <separator name="electronic projectors" >
    <i type="logical" name="LREAL"> T  </i>
    <v name="ROPT">     -0.00050000     -0.00050000     -0.00050000     -0.00050000     -0.00050000</v>
    <i type="int" name="LMAXPAW">  -100</i>
    <i type="int" name="LMAXMIX">     2</i>
    <i type="logical" name="NLSPLINE"> F  </i>
   </separator>
   <separator name="electronic startup" >
    <i type="int" name="ISTART">     0</i>
    <i type="int" name="ICHARG">     1</i>
    <i type="int" name="INIWAV">     1</i>
   </separator>
   <separator name="electronic spin" >
    <i type="int" name="ISPIN">     1</i>
    <i type="logical" name="LNONCOLLINEAR"> F  </i>
    <v name="MAGMOM">      1.00000000      1.00000000      1.00000000      1.00000000      1.00000000      1.00000000      1.00000000      1.00000000      1.00000000      1.00000000      1.00000000      1.00000000      1.00000000      1.00000000      1.00000000      1.00000000      1.00000000      1.00000000      1.00000000      1.00000000
      1.00000000      1.00000000      1.00000000      1.00000000      1.00000000      1.00000000      1.00000000      1.00000000      1.00000000      1.00000000      1.00000000      1.00000000      1.00000000      1.00000000      1.00000000      1.00000000      1.00000000      1.00000000      1.00000000      1.00000000
      1.00000000      1.00000000      1.00000000      1.00000000      1.00000000      1.00000000      1.00000000      1.00000000      1.00000000      1.00000000      1.00000000      1.00000000      1.00000000      1.00000000      1.00000000      1.00000000      1.00000000      1.00000000      1.00000000      1.00000000
      1.00000000      1.00000000      1.00000000      1.00000000      1.00000000      1.00000000      1.00000000      1.00000000      1.00000000      1.00000000      1.00000000      1.00000000      1.00000000      1.00000000      1.00000000      1.00000000      1.00000000      1.00000000      1.00000000      1.00000000
      1.00000000      1.00000000      1.00000000      1.00000000      1.00000000      1.00000000      1.00000000      1.00000000      1.00000000      1.00000000      1.00000000      1.00000000      1.00000000      1.00000000      1.00000000      1.00000000      1.00000000      1.00000000      1.00000000      1.00000000
      1.00000000      1.00000000      1.00000000      1.00000000      1.00000000      1.00000000      1.00000000      1.00000000      1.00000000      1.00000000      1.00000000      1.00000000      1.00000000      1.00000000      1.00000000      1.00000000      1.00000000      1.00000000      1.00000000      1.00000000
      1.00000000      1.00000000      1.00000000      1.00000000      1.00000000      1.00000000      1.00000000      1.00000000      1.00000000      1.00000000      1.00000000      1.00000000      1.00000000      1.00000000      1.00000000      1.00000000      1.00000000      1.00000000      1.00000000      1.00000000
      1.00000000      1.00000000      1.00000000      1.00000000      1.00000000      1.00000000      1.00000000      1.00000000      1.00000000      1.00000000      1.00000000      1.00000000      1.00000000      1.00000000      1.00000000      1.00000000      1.00000000      1.00000000      1.00000000      1.00000000
      1.00000000      1.00000000      1.00000000      1.00000000      1.00000000      1.00000000      1.00000000      1.00000000      1.00000000      1.00000000      1.00000000      1.00000000      1.00000000      1.00000000      1.00000000      1.00000000      1.00000000      1.00000000      1.00000000      1.00000000
      1.00000000      1.00000000      1.00000000      1.00000000      1.00000000      1.00000000      1.00000000      1.00000000      1.00000000      1.00000000      1.00000000      1.00000000      1.00000000      1.00000000      1.00000000      1.00000000      1.00000000      1.00000000      1.00000000      1.00000000
      1.00000000      1.00000000      1.00000000      1.00000000      1.00000000      1.00000000      1.00000000      1.00000000      1.00000000      1.00000000      1.00000000      1.00000000      1.00000000      1.00000000      1.00000000      1.00000000      1.00000000      1.00000000      1.00000000      1.00000000
      1.00000000      1.00000000      1.00000000      1.00000000      1.00000000      1.00000000      1.00000000      1.00000000      1.00000000      1.00000000      1.00000000      1.00000000      1.00000000      1.00000000      1.00000000      1.00000000      1.00000000      1.00000000      1.00000000      1.00000000
      1.00000000      1.00000000      1.00000000      1.00000000      1.00000000      1.00000000      1.00000000      1.00000000      1.00000000      1.00000000      1.00000000      1.00000000      1.00000000      1.00000000      1.00000000      1.00000000      1.00000000      1.00000000      1.00000000      1.00000000
      1.00000000      1.00000000      1.00000000      1.00000000      1.00000000      1.00000000      1.00000000      1.00000000      1.00000000      1.00000000      1.00000000      1.00000000      1.00000000      1.00000000      1.00000000      1.00000000      1.00000000      1.00000000      1.00000000      1.00000000
      1.00000000      1.00000000      1.00000000      1.00000000      1.00000000      1.00000000      1.00000000      1.00000000      1.00000000      1.00000000      1.00000000      1.00000000      1.00000000      1.00000000      1.00000000      1.00000000      1.00000000      1.00000000      1.00000000      1.00000000
      1.00000000      1.00000000      1.00000000      1.00000000      1.00000000      1.00000000      1.00000000      1.00000000      1.00000000      1.00000000      1.00000000      1.00000000      1.00000000      1.00000000      1.00000000      1.00000000      1.00000000      1.00000000      1.00000000      1.00000000
      1.00000000      1.00000000      1.00000000      1.00000000      1.00000000</v>
    <i name="NUPDOWN">     -1.00000000</i>
    <i type="logical" name="LSORBIT"> F  </i>
    <v name="SAXIS">      0.00000000      0.00000000      1.00000000</v>
    <i type="logical" name="LSPIRAL"> F  </i>
    <v name="QSPIRAL">      0.00000000      0.00000000      0.00000000</v>
    <i type="logical" name="LZEROZ"> F  </i>
   </separator>
   <separator name="electronic exchange-correlation" >
    <i type="logical" name="LASPH"> F  </i>
    <i type="logical" name="LMETAGGA"> F  </i>
   </separator>
   <separator name="electronic convergence" >
    <i type="int" name="NELM">   600</i>
    <i type="int" name="NELMDL">     0</i>
    <i type="int" name="NELMIN">     2</i>
    <i name="ENINI">    500.00000000</i>
    <separator name="electronic convergence detail" >
     <i type="logical" name="LDIAG"> T  </i>
     <i type="logical" name="LSUBROT"> F  </i>
     <i name="WEIMIN">      0.00000000</i>
     <i name="EBREAK">      0.00000003</i>
     <i name="DEPER">      0.30000000</i>
     <i type="int" name="NRMM">     4</i>
     <i name="TIME">      0.40000000</i>
    </separator>
   </separator>
   <separator name="electronic mixer" >
    <i name="AMIX">      0.40000000</i>
    <i name="BMIX">      0.01000000</i>
    <i name="AMIN">      0.01000000</i>
    <i name="AMIX_MAG">      1.60000000</i>
    <i name="BMIX_MAG">      0.01000000</i>
    <separator name="electronic mixer details" >
     <i type="int" name="IMIX">     4</i>
     <i type="logical" name="MIXFIRST"> F  </i>
     <i type="int" name="MAXMIX">   -45</i>
     <i name="WC">    100.00000000</i>
     <i type="int" name="INIMIX">     1</i>
     <i type="int" name="MIXPRE">     1</i>
     <i type="int" name="MREMOVE">     5</i>
    </separator>
   </separator>
   <separator name="electronic dipolcorrection" >
    <i type="logical" name="LDIPOL"> T  </i>
    <i type="logical" name="LMONO"> F  </i>
    <i type="int" name="IDIPOL">     3</i>
    <i name="EPSILON">      1.00000000</i>
    <v name="DIPOL">   -100.00000000   -100.00000000   -100.00000000</v>
    <i name="EFIELD">      0.00000000</i>
   </separator>
  </separator>
  <separator name="grids" >
   <i type="int" name="NGX">   100</i>
   <i type="int" name="NGY">   100</i>
   <i type="int" name="NGZ">   350</i>
   <i type="int" name="NGXF">   200</i>
   <i type="int" name="NGYF">   200</i>
   <i type="int" name="NGZF">   700</i>
   <i type="logical" name="ADDGRID"> F  </i>
  </separator>
  <separator name="ionic" >
   <i type="int" name="NSW">     0</i>
   <i type="int" name="IBRION">    -1</i>
   <i type="int" name="MDALGO">     0</i>
   <i type="int" name="ISIF">     2</i>
   <i name="PSTRESS">      0.00000000</i>
   <i name="EDIFFG">      0.00100000</i>
   <i type="int" name="NFREE">     0</i>
   <i name="POTIM">      0.50000000</i>
   <i name="SMASS">     -3.00000000</i>
   <i name="SCALEE">      1.00000000</i>
  </separator>
  <separator name="ionic md" >
   <i name="TEBEG">      0.00010000</i>
   <i name="TEEND">      0.00010000</i>
   <i type="int" name="NBLOCK">     1</i>
   <i type="int" name="KBLOCK">     1</i>
   <i type="int" name="NPACO">   256</i>
   <i name="APACO">     16.00000000</i>
  </separator>
  <separator name="symmetry" >
   <i type="int" name="ISYM">     0</i>
   <i name="SYMPREC">      0.00001000</i>
  </separator>
  <separator name="dos" >
   <i type="int" name="LORBIT">     0</i>
   <v name="RWIGS">     -1.00000000     -1.00000000     -1.00000000     -1.00000000     -1.00000000</v>
   <i type="int" name="NEDOS">   301</i>
   <i name="EMIN">     10.00000000</i>
   <i name="EMAX">    -10.00000000</i>
   <i name="EFERMI">      0.00000000</i>
  </separator>
  <separator name="writing" >
   <i type="int" name="NWRITE">     2</i>
   <i type="logical" name="LWAVE"> F  </i>
   <i type="logical" name="LDOWNSAMPLE"> F  </i>
   <i type="logical" name="LCHARG"> T  </i>
   <i type="logical" name="LPARD"> F  </i>
   <i type="logical" name="LVTOT"> T  </i>
   <i type="logical" name="LVHAR"> F  </i>
   <i type="logical" name="LELF"> F  </i>
   <i type="logical" name="LOPTICS"> F  </i>
   <v name="STM">      0.00000000      0.00000000      0.00000000      0.00000000      0.00000000      0.00000000      0.00000000</v>
  </separator>
  <separator name="performance" >
   <i type="int" name="NPAR">     4</i>
   <i type="int" name="NSIM">     4</i>
   <i type="int" name="NBLK">    -1</i>
   <i type="logical" name="LPLANE"> T  </i>
   <i type="logical" name="LSCALAPACK"> T  </i>
   <i type="logical" name="LSCAAWARE"> F  </i>
   <i type="logical" name="LSCALU"> F  </i>
   <i type="logical" name="LASYNC"> F  </i>
   <i type="logical" name="LORBITALREAL"> F  </i>
  </separator>
  <separator name="miscellaneous" >
   <i type="int" name="IDIOT">     3</i>
   <i type="int" name="PHON_NSTRUCT">    -1</i>
   <i type="logical" name="LMUSIC"> F  </i>
   <v name="POMASS">      1.00000000     12.01100000     14.00100000    126.90400000    207.20000000</v>
   <v name="DARWINR">      0.00000000      0.00000000      0.00000000      0.00000000      0.00000000</v>
   <v name="DARWINV">      1.00000000      1.00000000      1.00000000      1.00000000      1.00000000</v>
   <i type="logical" name="LCORR"> T  </i>
  </separator>
  <i type="logical" name="GGA_COMPAT"> F  </i>
  <i type="logical" name="LBERRY"> F  </i>
  <i type="int" name="ICORELEVEL">     0</i>
  <i type="logical" name="LDAU"> F  </i>
  <i type="int" name="I_CONSTRAINED_M">     0</i>
  <separator name="electronic exchange-correlation" >
   <i type="string" name="GGA">--</i>
   <i type="int" name="VOSKOWN">     0</i>
   <i type="logical" name="LHFCALC"> F  </i>
   <i type="string" name="PRECFOCK"></i>
   <i type="logical" name="LSYMGRAD"> F  </i>
   <i type="logical" name="LHFONE"> F  </i>
   <i type="logical" name="LRHFCALC"> F  </i>
   <i type="logical" name="LTHOMAS"> F  </i>
   <i type="logical" name="LMODELHF"> F  </i>
   <i type="logical" name="LFOCKACE"> F  </i>
   <i name="ENCUT4O">     -1.00000000</i>
   <i type="int" name="EXXOEP">     0</i>
   <i type="int" name="FOURORBIT">     0</i>
   <i name="AEXX">      0.00000000</i>
   <i name="HFALPHA">      0.00000000</i>
   <i name="MCALPHA">      0.00000000</i>
   <i name="ALDAX">      1.00000000</i>
   <i name="AGGAX">      1.00000000</i>
   <i name="ALDAC">      1.00000000</i>
   <i name="AGGAC">      1.00000000</i>
   <i type="int" name="NKREDX">     1</i>
   <i type="int" name="NKREDY">     1</i>
   <i type="int" name="NKREDZ">     1</i>
   <i type="logical" name="SHIFTRED"> F  </i>
   <i type="logical" name="ODDONLY"> F  </i>
   <i type="logical" name="EVENONLY"> F  </i>
   <i type="int" name="LMAXFOCK">     0</i>
   <i type="int" name="NMAXFOCKAE">     0</i>
   <i type="logical" name="LFOCKAEDFT"> F  </i>
   <i name="HFSCREEN">      0.00000000</i>
   <i name="HFSCREENC">      0.00000000</i>
   <i type="int" name="NBANDSGWLOW">     0</i>
  </separator>
  <separator name="vdW DFT" >
   <i type="logical" name="LUSE_VDW"> F  </i>
   <i name="Zab_VDW">     -0.84910000</i>
   <i name="PARAM1">      0.12340000</i>
   <i name="PARAM2">      1.00000000</i>
   <i name="PARAM3">      0.00000000</i>
  </separator>
  <separator name="model GW" >
   <i type="int" name="MODEL_GW">     0</i>
   <i name="MODEL_EPS0">     37.63423484</i>
   <i name="MODEL_ALPHA">      1.00000000</i>
  </separator>
  <separator name="linear response parameters" >
   <i type="logical" name="LEPSILON"> F  </i>
   <i type="logical" name="LRPA"> F  </i>
   <i type="logical" name="LNABLA"> F  </i>
   <i type="logical" name="LVEL"> F  </i>
   <i type="int" name="KINTER">     0</i>
   <i name="CSHIFT">      0.10000000</i>
   <i name="OMEGAMAX">     -1.00000000</i>
   <i name="DEG_THRESHOLD">      0.00200000</i>
   <i name="RTIME">     -0.10000000</i>
   <i name="WPLASMAI">      0.00000000</i>
   <v name="DFIELD">      0.00000000      0.00000000      0.00000000</v>
   <v name="WPLASMA">      0.00000000      0.00000000      0.00000000      0.00000000      0.00000000      0.00000000      0.00000000      0.00000000      0.00000000</v>
  </separator>
  <separator name="orbital magnetization" >
   <i type="logical" name="NUCIND"> F  </i>
   <v name="MAGPOS">      0.00000000      0.00000000      0.00000000</v>
   <i type="logical" name="LNICSALL"> T  </i>
   <i type="logical" name="ORBITALMAG"> F  </i>
   <i type="logical" name="LMAGBLOCH"> F  </i>
   <i type="logical" name="LCHIMAG"> F  </i>
   <i type="logical" name="LGAUGE"> T  </i>
   <i type="int" name="MAGATOM">     0</i>
   <v name="MAGDIPOL">      0.00000000      0.00000000      0.00000000</v>
   <v name="AVECCONST">      0.00000000      0.00000000      0.00000000</v>
  </separator>
  <separator name="response functions" >
   <i type="logical" name="LFINITE_TEMPERATURE"> F  </i>
   <i type="logical" name="LADDER"> F  </i>
   <i type="logical" name="LRPAFORCE"> F  </i>
   <i type="logical" name="LFXC"> F  </i>
   <i type="logical" name="LHARTREE"> T  </i>
   <i type="int" name="IBSE">     0</i>
   <v type="int" name="KPOINT">    -1     0     0     0</v>
   <i type="logical" name="LTCTC"> F  </i>
   <i type="logical" name="LTCTE"> F  </i>
   <i type="logical" name="LTETE"> F  </i>
   <i type="logical" name="LTRIPLET"> F  </i>
   <i type="logical" name="LFXCEPS"> F  </i>
   <i type="logical" name="LFXHEG"> F  </i>
   <i type="int" name="NATURALO">     2</i>
   <i type="logical" name="LHOLEGF"> F  </i>
   <i type="logical" name="L2ORDER"> F  </i>
   <i type="logical" name="LDMP1"> F  </i>
   <i type="logical" name="LMP2LT"> F  </i>
   <i type="logical" name="LSMP2LT"> F  </i>
   <i type="logical" name="LGWLF"> F  </i>
   <i name="ENCUTGW">     -2.00000000</i>
   <i name="ENCUTGWSOFT">     -2.00000000</i>
   <i name="ENCUTLF">     -1.00000000</i>
   <i type="logical" name="LESF_SPLINES"> F  </i>
   <i type="int" name="LMAXMP2">    -1</i>
   <i name="SCISSOR">      0.00000000</i>
   <i type="int" name="NOMEGA">     0</i>
   <i type="int" name="NOMEGAR">     0</i>
   <i type="int" name="NBANDSGW">    -1</i>
   <i type="int" name="NBANDSO">    -1</i>
   <i type="int" name="NBANDSV">    -1</i>
   <i type="int" name="NELM">   600</i>
   <i type="int" name="NELMHF">     1</i>
   <i type="int" name="DIM">     3</i>
   <i type="int" name="IESPILON">     4</i>
   <i type="int" name="ANTIRES">     0</i>
   <i name="OMEGAMAX">    -30.00000000</i>
   <i name="OMEGAMIN">    -30.00000000</i>
   <i name="OMEGATL">   -200.00000000</i>
   <i type="int" name="OMEGAGRID">     0</i>
   <i name="CSHIFT">     -0.10000000</i>
   <i type="logical" name="LSELFENERGY"> F  </i>
   <i type="logical" name="LSPECTRAL"> F  </i>
   <i type="logical" name="LSPECTRALGW"> F  </i>
   <i type="logical" name="LSINGLES"> F  </i>
   <i type="logical" name="LFERMIGW"> F  </i>
   <i type="logical" name="ODDONLYGW"> F  </i>
   <i type="logical" name="EVENONLYGW"> F  </i>
   <i type="int" name="NKREDLFX">     1</i>
   <i type="int" name="NKREDLFY">     1</i>
   <i type="int" name="NKREDLFZ">     1</i>
   <i type="int" name="MAXMEM">  2800</i>
   <i type="int" name="TELESCOPE">     0</i>
   <i type="int" name="NTAUPAR">    -1</i>
   <i type="int" name="NOMEGAPAR">    -1</i>
   <i name="DAMP_NEWTON">      0.80000001</i>
   <i name="LAMBDA">      1.00000000</i>
  </separator>
  <separator name="External order field" >
   <i name="OFIELD_KAPPA">      0.00000000</i>
   <v name="OFIELD_K">      0.00000000      0.00000000      0.00000000</v>
   <i name="OFIELD_Q6_NEAR">      0.00000000</i>
   <i name="OFIELD_Q6_FAR">      0.00000000</i>
   <i name="OFIELD_A">      0.00000000</i>
  </separator>
 </parameters>
 <atominfo>
  <atoms>     325 </atoms>
  <types>       5 </types>
  <array name="atoms" >
   <dimension dim="1">ion</dimension>
   <field type="string">element</field>
   <field type="int">atomtype</field>
   <set>
    <rc><c>H </c><c>   1</c></rc>
    <rc><c>H </c><c>   1</c></rc>
    <rc><c>H </c><c>   1</c></rc>
    <rc><c>H </c><c>   1</c></rc>
    <rc><c>H </c><c>   1</c></rc>
    <rc><c>H </c><c>   1</c></rc>
    <rc><c>H </c><c>   1</c></rc>
    <rc><c>H </c><c>   1</c></rc>
    <rc><c>H </c><c>   1</c></rc>
    <rc><c>H </c><c>   1</c></rc>
    <rc><c>H </c><c>   1</c></rc>
    <rc><c>H </c><c>   1</c></rc>
    <rc><c>H </c><c>   1</c></rc>
    <rc><c>H </c><c>   1</c></rc>
    <rc><c>H </c><c>   1</c></rc>
    <rc><c>H </c><c>   1</c></rc>
    <rc><c>H </c><c>   1</c></rc>
    <rc><c>H </c><c>   1</c></rc>
    <rc><c>H </c><c>   1</c></rc>
    <rc><c>H </c><c>   1</c></rc>
    <rc><c>H </c><c>   1</c></rc>
    <rc><c>H </c><c>   1</c></rc>
    <rc><c>H </c><c>   1</c></rc>
    <rc><c>H </c><c>   1</c></rc>
    <rc><c>H </c><c>   1</c></rc>
    <rc><c>H </c><c>   1</c></rc>
    <rc><c>H </c><c>   1</c></rc>
    <rc><c>H </c><c>   1</c></rc>
    <rc><c>H </c><c>   1</c></rc>
    <rc><c>H </c><c>   1</c></rc>
    <rc><c>H </c><c>   1</c></rc>
    <rc><c>H </c><c>   1</c></rc>
    <rc><c>H </c><c>   1</c></rc>
    <rc><c>H </c><c>   1</c></rc>
    <rc><c>H </c><c>   1</c></rc>
    <rc><c>H </c><c>   1</c></rc>
    <rc><c>H </c><c>   1</c></rc>
    <rc><c>H </c><c>   1</c></rc>
    <rc><c>H </c><c>   1</c></rc>
    <rc><c>H </c><c>   1</c></rc>
    <rc><c>H </c><c>   1</c></rc>
    <rc><c>H </c><c>   1</c></rc>
    <rc><c>H </c><c>   1</c></rc>
    <rc><c>H </c><c>   1</c></rc>
    <rc><c>H </c><c>   1</c></rc>
    <rc><c>H </c><c>   1</c></rc>
    <rc><c>H </c><c>   1</c></rc>
    <rc><c>H </c><c>   1</c></rc>
    <rc><c>H </c><c>   1</c></rc>
    <rc><c>H </c><c>   1</c></rc>
    <rc><c>H </c><c>   1</c></rc>
    <rc><c>H </c><c>   1</c></rc>
    <rc><c>H </c><c>   1</c></rc>
    <rc><c>H </c><c>   1</c></rc>
    <rc><c>H </c><c>   1</c></rc>
    <rc><c>H </c><c>   1</c></rc>
    <rc><c>H </c><c>   1</c></rc>
    <rc><c>H </c><c>   1</c></rc>
    <rc><c>H </c><c>   1</c></rc>
    <rc><c>H </c><c>   1</c></rc>
    <rc><c>H </c><c>   1</c></rc>
    <rc><c>H </c><c>   1</c></rc>
    <rc><c>H </c><c>   1</c></rc>
    <rc><c>H </c><c>   1</c></rc>
    <rc><c>H </c><c>   1</c></rc>
    <rc><c>H </c><c>   1</c></rc>
    <rc><c>H </c><c>   1</c></rc>
    <rc><c>H </c><c>   1</c></rc>
    <rc><c>H </c><c>   1</c></rc>
    <rc><c>H </c><c>   1</c></rc>
    <rc><c>H </c><c>   1</c></rc>
    <rc><c>H </c><c>   1</c></rc>
    <rc><c>H </c><c>   1</c></rc>
    <rc><c>H </c><c>   1</c></rc>
    <rc><c>H </c><c>   1</c></rc>
    <rc><c>H </c><c>   1</c></rc>
    <rc><c>H </c><c>   1</c></rc>
    <rc><c>H </c><c>   1</c></rc>
    <rc><c>H </c><c>   1</c></rc>
    <rc><c>H </c><c>   1</c></rc>
    <rc><c>H </c><c>   1</c></rc>
    <rc><c>H </c><c>   1</c></rc>
    <rc><c>H </c><c>   1</c></rc>
    <rc><c>H </c><c>   1</c></rc>
    <rc><c>H </c><c>   1</c></rc>
    <rc><c>H </c><c>   1</c></rc>
    <rc><c>H </c><c>   1</c></rc>
    <rc><c>H </c><c>   1</c></rc>
    <rc><c>H </c><c>   1</c></rc>
    <rc><c>H </c><c>   1</c></rc>
    <rc><c>H </c><c>   1</c></rc>
    <rc><c>H </c><c>   1</c></rc>
    <rc><c>H </c><c>   1</c></rc>
    <rc><c>H </c><c>   1</c></rc>
    <rc><c>H </c><c>   1</c></rc>
    <rc><c>H </c><c>   1</c></rc>
    <rc><c>H </c><c>   1</c></rc>
    <rc><c>H </c><c>   1</c></rc>
    <rc><c>H </c><c>   1</c></rc>
    <rc><c>H </c><c>   1</c></rc>
    <rc><c>H </c><c>   1</c></rc>
    <rc><c>H </c><c>   1</c></rc>
    <rc><c>H </c><c>   1</c></rc>
    <rc><c>H </c><c>   1</c></rc>
    <rc><c>H </c><c>   1</c></rc>
    <rc><c>H </c><c>   1</c></rc>
    <rc><c>H </c><c>   1</c></rc>
    <rc><c>H </c><c>   1</c></rc>
    <rc><c>H </c><c>   1</c></rc>
    <rc><c>H </c><c>   1</c></rc>
    <rc><c>H </c><c>   1</c></rc>
    <rc><c>H </c><c>   1</c></rc>
    <rc><c>H </c><c>   1</c></rc>
    <rc><c>H </c><c>   1</c></rc>
    <rc><c>H </c><c>   1</c></rc>
    <rc><c>H </c><c>   1</c></rc>
    <rc><c>H </c><c>   1</c></rc>
    <rc><c>H </c><c>   1</c></rc>
    <rc><c>H </c><c>   1</c></rc>
    <rc><c>H </c><c>   1</c></rc>
    <rc><c>H </c><c>   1</c></rc>
    <rc><c>H </c><c>   1</c></rc>
    <rc><c>H </c><c>   1</c></rc>
    <rc><c>H </c><c>   1</c></rc>
    <rc><c>H </c><c>   1</c></rc>
    <rc><c>H </c><c>   1</c></rc>
    <rc><c>H </c><c>   1</c></rc>
    <rc><c>H </c><c>   1</c></rc>
    <rc><c>H </c><c>   1</c></rc>
    <rc><c>H </c><c>   1</c></rc>
    <rc><c>H </c><c>   1</c></rc>
    <rc><c>H </c><c>   1</c></rc>
    <rc><c>H </c><c>   1</c></rc>
    <rc><c>H </c><c>   1</c></rc>
    <rc><c>H </c><c>   1</c></rc>
    <rc><c>H </c><c>   1</c></rc>
    <rc><c>H </c><c>   1</c></rc>
    <rc><c>H </c><c>   1</c></rc>
    <rc><c>H </c><c>   1</c></rc>
    <rc><c>H </c><c>   1</c></rc>
    <rc><c>H </c><c>   1</c></rc>
    <rc><c>H </c><c>   1</c></rc>
    <rc><c>H </c><c>   1</c></rc>
    <rc><c>C </c><c>   2</c></rc>
    <rc><c>C </c><c>   2</c></rc>
    <rc><c>C </c><c>   2</c></rc>
    <rc><c>C </c><c>   2</c></rc>
    <rc><c>C </c><c>   2</c></rc>
    <rc><c>C </c><c>   2</c></rc>
    <rc><c>C </c><c>   2</c></rc>
    <rc><c>C </c><c>   2</c></rc>
    <rc><c>C </c><c>   2</c></rc>
    <rc><c>C </c><c>   2</c></rc>
    <rc><c>C </c><c>   2</c></rc>
    <rc><c>C </c><c>   2</c></rc>
    <rc><c>C </c><c>   2</c></rc>
    <rc><c>C </c><c>   2</c></rc>
    <rc><c>C </c><c>   2</c></rc>
    <rc><c>C </c><c>   2</c></rc>
    <rc><c>C </c><c>   2</c></rc>
    <rc><c>C </c><c>   2</c></rc>
    <rc><c>C </c><c>   2</c></rc>
    <rc><c>C </c><c>   2</c></rc>
    <rc><c>C </c><c>   2</c></rc>
    <rc><c>C </c><c>   2</c></rc>
    <rc><c>C </c><c>   2</c></rc>
    <rc><c>C </c><c>   2</c></rc>
    <rc><c>C </c><c>   2</c></rc>
    <rc><c>C </c><c>   2</c></rc>
    <rc><c>C </c><c>   2</c></rc>
    <rc><c>C </c><c>   2</c></rc>
    <rc><c>C </c><c>   2</c></rc>
    <rc><c>C </c><c>   2</c></rc>
    <rc><c>C </c><c>   2</c></rc>
    <rc><c>C </c><c>   2</c></rc>
    <rc><c>C </c><c>   2</c></rc>
    <rc><c>C </c><c>   2</c></rc>
    <rc><c>C </c><c>   2</c></rc>
    <rc><c>C </c><c>   2</c></rc>
    <rc><c>C </c><c>   2</c></rc>
    <rc><c>C </c><c>   2</c></rc>
    <rc><c>C </c><c>   2</c></rc>
    <rc><c>N </c><c>   3</c></rc>
    <rc><c>N </c><c>   3</c></rc>
    <rc><c>N </c><c>   3</c></rc>
    <rc><c>N </c><c>   3</c></rc>
    <rc><c>N </c><c>   3</c></rc>
    <rc><c>N </c><c>   3</c></rc>
    <rc><c>N </c><c>   3</c></rc>
    <rc><c>N </c><c>   3</c></rc>
    <rc><c>N </c><c>   3</c></rc>
    <rc><c>N </c><c>   3</c></rc>
    <rc><c>N </c><c>   3</c></rc>
    <rc><c>N </c><c>   3</c></rc>
    <rc><c>N </c><c>   3</c></rc>
    <rc><c>N </c><c>   3</c></rc>
    <rc><c>N </c><c>   3</c></rc>
    <rc><c>N </c><c>   3</c></rc>
    <rc><c>N </c><c>   3</c></rc>
    <rc><c>N </c><c>   3</c></rc>
    <rc><c>N </c><c>   3</c></rc>
    <rc><c>N </c><c>   3</c></rc>
    <rc><c>N </c><c>   3</c></rc>
    <rc><c>N </c><c>   3</c></rc>
    <rc><c>N </c><c>   3</c></rc>
    <rc><c>N </c><c>   3</c></rc>
    <rc><c>N </c><c>   3</c></rc>
    <rc><c>N </c><c>   3</c></rc>
    <rc><c>N </c><c>   3</c></rc>
    <rc><c>N </c><c>   3</c></rc>
    <rc><c>N </c><c>   3</c></rc>
    <rc><c>N </c><c>   3</c></rc>
    <rc><c>N </c><c>   3</c></rc>
    <rc><c>N </c><c>   3</c></rc>
    <rc><c>N </c><c>   3</c></rc>
    <rc><c>N </c><c>   3</c></rc>
    <rc><c>N </c><c>   3</c></rc>
    <rc><c>N </c><c>   3</c></rc>
    <rc><c>N </c><c>   3</c></rc>
    <rc><c>N </c><c>   3</c></rc>
    <rc><c>N </c><c>   3</c></rc>
    <rc><c>N </c><c>   3</c></rc>
    <rc><c>N </c><c>   3</c></rc>
    <rc><c>N </c><c>   3</c></rc>
    <rc><c>N </c><c>   3</c></rc>
    <rc><c>N </c><c>   3</c></rc>
    <rc><c>N </c><c>   3</c></rc>
    <rc><c>N </c><c>   3</c></rc>
    <rc><c>N </c><c>   3</c></rc>
    <rc><c>I </c><c>   4</c></rc>
    <rc><c>I </c><c>   4</c></rc>
    <rc><c>I </c><c>   4</c></rc>
    <rc><c>I </c><c>   4</c></rc>
    <rc><c>I </c><c>   4</c></rc>
    <rc><c>I </c><c>   4</c></rc>
    <rc><c>I </c><c>   4</c></rc>
    <rc><c>I </c><c>   4</c></rc>
    <rc><c>I </c><c>   4</c></rc>
    <rc><c>I </c><c>   4</c></rc>
    <rc><c>I </c><c>   4</c></rc>
    <rc><c>I </c><c>   4</c></rc>
    <rc><c>I </c><c>   4</c></rc>
    <rc><c>I </c><c>   4</c></rc>
    <rc><c>I </c><c>   4</c></rc>
    <rc><c>I </c><c>   4</c></rc>
    <rc><c>I </c><c>   4</c></rc>
    <rc><c>I </c><c>   4</c></rc>
    <rc><c>I </c><c>   4</c></rc>
    <rc><c>I </c><c>   4</c></rc>
    <rc><c>I </c><c>   4</c></rc>
    <rc><c>I </c><c>   4</c></rc>
    <rc><c>I </c><c>   4</c></rc>
    <rc><c>I </c><c>   4</c></rc>
    <rc><c>I </c><c>   4</c></rc>
    <rc><c>I </c><c>   4</c></rc>
    <rc><c>I </c><c>   4</c></rc>
    <rc><c>I </c><c>   4</c></rc>
    <rc><c>I </c><c>   4</c></rc>
    <rc><c>I </c><c>   4</c></rc>
    <rc><c>I </c><c>   4</c></rc>
    <rc><c>I </c><c>   4</c></rc>
    <rc><c>I </c><c>   4</c></rc>
    <rc><c>I </c><c>   4</c></rc>
    <rc><c>I </c><c>   4</c></rc>
    <rc><c>I </c><c>   4</c></rc>
    <rc><c>I </c><c>   4</c></rc>
    <rc><c>I </c><c>   4</c></rc>
    <rc><c>I </c><c>   4</c></rc>
    <rc><c>I </c><c>   4</c></rc>
    <rc><c>I </c><c>   4</c></rc>
    <rc><c>I </c><c>   4</c></rc>
    <rc><c>I </c><c>   4</c></rc>
    <rc><c>I </c><c>   4</c></rc>
    <rc><c>I </c><c>   4</c></rc>
    <rc><c>I </c><c>   4</c></rc>
    <rc><c>I </c><c>   4</c></rc>
    <rc><c>I </c><c>   4</c></rc>
    <rc><c>I </c><c>   4</c></rc>
    <rc><c>I </c><c>   4</c></rc>
    <rc><c>I </c><c>   4</c></rc>
    <rc><c>I </c><c>   4</c></rc>
    <rc><c>I </c><c>   4</c></rc>
    <rc><c>I </c><c>   4</c></rc>
    <rc><c>I </c><c>   4</c></rc>
    <rc><c>I </c><c>   4</c></rc>
    <rc><c>I </c><c>   4</c></rc>
    <rc><c>I </c><c>   4</c></rc>
    <rc><c>I </c><c>   4</c></rc>
    <rc><c>I </c><c>   4</c></rc>
    <rc><c>I </c><c>   4</c></rc>
    <rc><c>I </c><c>   4</c></rc>
    <rc><c>I </c><c>   4</c></rc>
    <rc><c>I </c><c>   4</c></rc>
    <rc><c>I </c><c>   4</c></rc>
    <rc><c>I </c><c>   4</c></rc>
    <rc><c>I </c><c>   4</c></rc>
    <rc><c>I </c><c>   4</c></rc>
    <rc><c>I </c><c>   4</c></rc>
    <rc><c>I </c><c>   4</c></rc>
    <rc><c>I </c><c>   4</c></rc>
    <rc><c>I </c><c>   4</c></rc>
    <rc><c>Pb</c><c>   5</c></rc>
    <rc><c>Pb</c><c>   5</c></rc>
    <rc><c>Pb</c><c>   5</c></rc>
    <rc><c>Pb</c><c>   5</c></rc>
    <rc><c>Pb</c><c>   5</c></rc>
    <rc><c>Pb</c><c>   5</c></rc>
    <rc><c>Pb</c><c>   5</c></rc>
    <rc><c>Pb</c><c>   5</c></rc>
    <rc><c>Pb</c><c>   5</c></rc>
    <rc><c>Pb</c><c>   5</c></rc>
    <rc><c>Pb</c><c>   5</c></rc>
    <rc><c>Pb</c><c>   5</c></rc>
    <rc><c>Pb</c><c>   5</c></rc>
    <rc><c>Pb</c><c>   5</c></rc>
    <rc><c>Pb</c><c>   5</c></rc>
    <rc><c>Pb</c><c>   5</c></rc>
    <rc><c>Pb</c><c>   5</c></rc>
    <rc><c>Pb</c><c>   5</c></rc>
    <rc><c>Pb</c><c>   5</c></rc>
    <rc><c>Pb</c><c>   5</c></rc>
    <rc><c>Pb</c><c>   5</c></rc>
    <rc><c>Pb</c><c>   5</c></rc>
    <rc><c>Pb</c><c>   5</c></rc>
    <rc><c>Pb</c><c>   5</c></rc>
   </set>
  </array>
  <array name="atomtypes" >
   <dimension dim="1">type</dimension>
   <field type="int">atomspertype</field>
   <field type="string">element</field>
   <field>mass</field>
   <field>valence</field>
   <field type="string">pseudopotential</field>
   <set>
    <rc><c> 143</c><c>H </c><c>      1.00000000</c><c>      1.00000000</c><c>  PAW_PBE H 15Jun2001                   </c></rc>
    <rc><c>  39</c><c>C </c><c>     12.01100000</c><c>      4.00000000</c><c>  PAW_PBE C 08Apr2002                   </c></rc>
    <rc><c>  47</c><c>N </c><c>     14.00100000</c><c>      5.00000000</c><c>  PAW_PBE N 08Apr2002                   </c></rc>
    <rc><c>  72</c><c>I </c><c>    126.90400000</c><c>      7.00000000</c><c>  PAW_PBE I 08Apr2002                   </c></rc>
    <rc><c>  24</c><c>Pb</c><c>    207.20000000</c><c>      4.00000000</c><c>  PAW_PBE Pb 08Apr2002                  </c></rc>
   </set>
  </array>
 </atominfo>
 <structure name="initialpos" >
  <crystal>
   <varray name="basis" >
    <v>      18.06080055       0.00000000       0.00000000 </v>
    <v>      -0.00491865      18.06279945       0.00000000 </v>
    <v>       0.00000000       0.00000000      62.48749924 </v>
   </varray>
   <i name="volume">  20385.21054034 </i>
   <varray name="rec_basis" >
    <v>       0.05536853       0.00001508      -0.00000000 </v>
    <v>       0.00000000       0.05536240       0.00000000 </v>
    <v>       0.00000000      -0.00000000       0.01600320 </v>
   </varray>
  </crystal>
  <varray name="positions" >
   <v>       0.47294569       0.33760039       0.56750871 </v>
   <v>       0.44512188       0.83089207       0.57423662 </v>
   <v>       0.92278505       0.25667146       0.57980206 </v>
   <v>       0.93935499       0.81926491       0.57401447 </v>
   <v>       0.31893441       0.07720962       0.56945283 </v>
   <v>       0.34940216       0.55146952       0.56224154 </v>
   <v>       0.80096286       0.09331254       0.56925924 </v>
   <v>       0.10575662       0.24735341       0.55708243 </v>
   <v>       0.07816571       0.67390328       0.57543003 </v>
   <v>       0.54491423       0.15027939       0.56084765 </v>
   <v>       0.50126061       0.64498165       0.55950790 </v>
   <v>       0.37042336       0.01276768       0.55516811 </v>
   <v>       0.29589390       0.62895021       0.55478241 </v>
   <v>       0.87393827       0.03557831       0.56006985 </v>
   <v>       0.05777447       0.25824745       0.58080281 </v>
   <v>       0.99237468       0.69659610       0.58632412 </v>
   <v>       0.57372672       0.23956271       0.56887861 </v>
   <v>       0.45072763       0.69389339       0.57850768 </v>
   <v>       0.27587110       0.43848606       0.57277191 </v>
   <v>       0.18309657       0.06005641       0.57191609 </v>
   <v>       0.67838188       0.03040939       0.57359831 </v>
   <v>       0.38642956       0.30609962       0.55813654 </v>
   <v>       0.50149783       0.87077556       0.55469640 </v>
   <v>       0.87801659       0.24029877       0.55579397 </v>
   <v>       0.98915595       0.86671056       0.55486837 </v>
   <v>       0.18137372       0.44116562       0.56679464 </v>
   <v>       0.14524070       0.98589491       0.55840948 </v>
   <v>       0.67453571       0.93708495       0.56518702 </v>
   <v>       0.42727967       0.18739962       0.55171490 </v>
   <v>       0.54455008       0.75554621       0.54276609 </v>
   <v>       0.99396005       0.23320114       0.53713740 </v>
   <v>       0.08295412       0.77655801       0.55337850 </v>
   <v>       0.18478329       0.56198118       0.55504656 </v>
   <v>       0.26244210       0.94231761       0.54684711 </v>
   <v>       0.79611087       0.93343720       0.55591899 </v>
   <v>       0.45472205       0.30492173       0.67338713 </v>
   <v>       0.44431675       0.80810849       0.67271329 </v>
   <v>       0.94278057       0.27738899       0.67489066 </v>
   <v>       0.92331671       0.72934931       0.67129094 </v>
   <v>       0.30671319       0.05008220       0.67211661 </v>
   <v>       0.29562585       0.55439673       0.67530047 </v>
   <v>       0.80182580       0.05406679       0.67456839 </v>
   <v>       0.84209455       0.47102061       0.66363115 </v>
   <v>       0.09203518       0.17348076       0.64888064 </v>
   <v>       0.11333534       0.71991869       0.65169169 </v>
   <v>       0.58034269       0.16920595       0.64956553 </v>
   <v>       0.57052162       0.66873269       0.65062024 </v>
   <v>       0.18555519       0.41179518       0.64821687 </v>
   <v>       0.16619900       0.92950960       0.64769894 </v>
   <v>       0.64209337       0.47494047       0.65742141 </v>
   <v>       0.67613337       0.91918254       0.65002143 </v>
   <v>       0.05318957       0.18703209       0.67415046 </v>
   <v>       0.05255191       0.67428184       0.66871694 </v>
   <v>       0.55627826       0.20447690       0.67434179 </v>
   <v>       0.53872450       0.69999685       0.67520164 </v>
   <v>       0.20208247       0.44462635       0.67386617 </v>
   <v>       0.19801402       0.95564575       0.67291309 </v>
   <v>       0.71553432       0.41963794       0.66670452 </v>
   <v>       0.70293602       0.95155293       0.67524755 </v>
   <v>       0.41960674       0.32451810       0.64804875 </v>
   <v>       0.42289056       0.83470972       0.64663080 </v>
   <v>       0.92214772       0.31791741       0.65008925 </v>
   <v>       0.90723198       0.80815648       0.65583906 </v>
   <v>       0.33549432       0.07491907       0.64656212 </v>
   <v>       0.32611603       0.58411118       0.65046457 </v>
   <v>       0.82979028       0.08094414       0.64891965 </v>
   <v>       0.85062588       0.55581520       0.65054253 </v>
   <v>       0.01294539       0.25676724       0.63209261 </v>
   <v>       0.02753303       0.80911666       0.64180769 </v>
   <v>       0.49714523       0.24063451       0.63080891 </v>
   <v>       0.50047289       0.74911102       0.63091312 </v>
   <v>       0.24917281       0.00089469       0.62948497 </v>
   <v>       0.26250125       0.49570211       0.63167651 </v>
   <v>       0.75352788       0.99746971       0.63180191 </v>
   <v>       0.72320852       0.56736992       0.64543702 </v>
   <v>       0.44874502       0.30128397       0.76888902 </v>
   <v>       0.44874501       0.80128391       0.76888902 </v>
   <v>       0.94874497       0.30128397       0.76888902 </v>
   <v>       0.94874501       0.80128391       0.76888902 </v>
   <v>       0.30127600       0.05129450       0.76887296 </v>
   <v>       0.30127601       0.55129450       0.76887296 </v>
   <v>       0.80127594       0.05129450       0.76887296 </v>
   <v>       0.80127598       0.55129450       0.76887296 </v>
   <v>       0.07877100       0.17118050       0.74344197 </v>
   <v>       0.07877101       0.67118045       0.74344197 </v>
   <v>       0.57877100       0.17118050       0.74344197 </v>
   <v>       0.57877099       0.67118045       0.74344197 </v>
   <v>       0.17119950       0.42117448       0.74342103 </v>
   <v>       0.17119950       0.92117451       0.74342103 </v>
   <v>       0.67119951       0.42117448       0.74342103 </v>
   <v>       0.67119950       0.92117451       0.74342103 </v>
   <v>       0.05125600       0.19871499       0.76888902 </v>
   <v>       0.05125600       0.69871493       0.76888902 </v>
   <v>       0.55125603       0.19871499       0.76888902 </v>
   <v>       0.55125602       0.69871493       0.76888902 </v>
   <v>       0.19872349       0.44870397       0.76887205 </v>
   <v>       0.19872349       0.94870397       0.76887205 </v>
   <v>       0.69872352       0.44870397       0.76887205 </v>
   <v>       0.69872351       0.94870397       0.76887205 </v>
   <v>       0.42123152       0.32881747       0.74344197 </v>
   <v>       0.42123151       0.82881744       0.74344197 </v>
   <v>       0.92123147       0.32881747       0.74344197 </v>
   <v>       0.92123151       0.82881744       0.74344197 </v>
   <v>       0.32880050       0.07882500       0.74342103 </v>
   <v>       0.32880049       0.57882496       0.74342103 </v>
   <v>       0.82880048       0.07882500       0.74342103 </v>
   <v>       0.82880052       0.57882496       0.74342103 </v>
   <v>       0.00000350       0.25000148       0.72582199 </v>
   <v>       0.00000350       0.75000145       0.72582199 </v>
   <v>       0.50000351       0.25000148       0.72582199 </v>
   <v>       0.50000350       0.75000145       0.72582199 </v>
   <v>       0.25000050       0.00000000       0.72580398 </v>
   <v>       0.25000052       0.50000000       0.72580398 </v>
   <v>       0.75000050       0.00000000       0.72580398 </v>
   <v>       0.75000049       0.50000000       0.72580398 </v>
   <v>       0.72039743       0.44254905       0.54077546 </v>
   <v>       0.73728277       0.49325314       0.51727552 </v>
   <v>       0.66011700       0.55187855       0.55790968 </v>
   <v>       0.70731622       0.63749351       0.55602674 </v>
   <v>       0.85103178       0.50754701       0.56833029 </v>
   <v>       0.78916643       0.57664579       0.57806704 </v>
   <v>       0.87393877       0.56248793       0.53085551 </v>
   <v>       0.80132200       0.62388041       0.52275831 </v>
   <v>       0.87150795       0.46279979       0.51865763 </v>
   <v>       0.86312046       0.42239004       0.54415547 </v>
   <v>       0.87305386       0.32623323       0.51875567 </v>
   <v>       0.78381845       0.32289264       0.52992166 </v>
   <v>       0.63579038       0.55020829       0.51866038 </v>
   <v>       0.68939704       0.63329371       0.51535466 </v>
   <v>       0.60745288       0.63436625       0.53055180 </v>
   <v>       0.75550164       0.46769066       0.59637691 </v>
   <v>       0.75415520       0.41107386       0.57324167 </v>
   <v>       0.68424311       0.47822512       0.57788634 </v>
   <v>       0.81721226       0.69150091       0.55855032 </v>
   <v>       0.89834996       0.68932264       0.54316559 </v>
   <v>       0.88959734       0.62760070       0.56502244 </v>
   <v>       0.82073433       0.38096409       0.48495918 </v>
   <v>       0.78594353       0.29323234       0.49160016 </v>
   <v>       0.66332232       0.30480982       0.51861014 </v>
   <v>       0.73233164       0.46181612       0.47090537 </v>
   <v>       0.53667100       0.35692089       0.51762398 </v>
   <v>       0.60474901       0.51314621       0.46960183 </v>
   <v>       0.50674922       0.46214009       0.49346375 </v>
   <v>       0.99267985       0.24278226       0.55436295 </v>
   <v>       0.03462497       0.76779686       0.56357873 </v>
   <v>       0.46605677       0.22820970       0.55813135 </v>
   <v>       0.50475621       0.75747095       0.55585691 </v>
   <v>       0.23658856       0.53514986       0.55970179 </v>
   <v>       0.25810887       0.99392748       0.55586228 </v>
   <v>       0.77420390       0.98561737       0.56198380 </v>
   <v>       0.00723647       0.24581219       0.64932451 </v>
   <v>       0.01130857       0.76624646       0.65315829 </v>
   <v>       0.50058037       0.24685888       0.64826150 </v>
   <v>       0.49650527       0.75118639       0.64837065 </v>
   <v>       0.25667320       0.49710721       0.64907721 </v>
   <v>       0.25055430       0.00183973       0.64699531 </v>
   <v>       0.74556128       0.51814969       0.65330456 </v>
   <v>       0.75289982       0.99953486       0.64928557 </v>
   <v>       0.49998898       0.24999498       0.74327702 </v>
   <v>       0.49998903       0.74999496       0.74327702 </v>
   <v>       0.99998898       0.24999498       0.74327702 </v>
   <v>       0.99998903       0.74999496       0.74327702 </v>
   <v>       0.25000050       0.00000100       0.74325596 </v>
   <v>       0.25000052       0.50000100       0.74325596 </v>
   <v>       0.75000050       0.00000100       0.74325596 </v>
   <v>       0.75000049       0.50000100       0.74325596 </v>
   <v>       0.70698432       0.38046914       0.49481116 </v>
   <v>       0.65076014       0.35053464       0.50761590 </v>
   <v>       0.68910485       0.43870775       0.48100154 </v>
   <v>       0.57905593       0.38017976       0.50716128 </v>
   <v>       0.61770137       0.46765359       0.48025786 </v>
   <v>       0.56208594       0.43900110       0.49360987 </v>
   <v>       0.76215263       0.47628174       0.53255018 </v>
   <v>       0.69587014       0.58546032       0.54756051 </v>
   <v>       0.79255759       0.52510124       0.56890584 </v>
   <v>       0.82827625       0.59748710       0.53650953 </v>
   <v>       0.83310608       0.43169770       0.52900424 </v>
   <v>       0.81905343       0.35496215       0.51903277 </v>
   <v>       0.65634877       0.60049061       0.52662560 </v>
   <v>       0.74389064       0.46720091       0.57917767 </v>
   <v>       0.85933737       0.65416729       0.55196593 </v>
   <v>       0.78537940       0.35169907       0.49638603 </v>
   <v>       0.05552392       0.24794041       0.56471463 </v>
   <v>       0.03392782       0.70869776       0.57557246 </v>
   <v>       0.53388564       0.20580885       0.56223202 </v>
   <v>       0.48429958       0.69539786       0.56516681 </v>
   <v>       0.44160669       0.29632798       0.56059876 </v>
   <v>       0.47978827       0.82341074       0.56137577 </v>
   <v>       0.92734769       0.24813608       0.56361755 </v>
   <v>       0.98083506       0.81703901       0.56258671 </v>
   <v>       0.23230763       0.46576549       0.56582716 </v>
   <v>       0.19194809       0.01530243       0.56192434 </v>
   <v>       0.70335417       0.98604952       0.56651510 </v>
   <v>       0.31908200       0.03098304       0.55989806 </v>
   <v>       0.29816991       0.57363110       0.55850178 </v>
   <v>       0.81955488       0.04154166       0.56449608 </v>
   <v>       0.05293565       0.19890118       0.65818731 </v>
   <v>       0.06058713       0.71621530       0.65799580 </v>
   <v>       0.54853380       0.20534893       0.65823395 </v>
   <v>       0.53717359       0.70341688       0.65898709 </v>
   <v>       0.21329458       0.44777890       0.65788915 </v>
   <v>       0.20212568       0.96040513       0.65679164 </v>
   <v>       0.69815505       0.46735803       0.65946564 </v>
   <v>       0.70862225       0.95378057       0.65909185 </v>
   <v>       0.45579058       0.29541497       0.65737031 </v>
   <v>       0.45191316       0.80087827       0.65670044 </v>
   <v>       0.95461721       0.28256335       0.65901529 </v>
   <v>       0.94350813       0.76884648       0.66091503 </v>
   <v>       0.30087997       0.04460130       0.65608533 </v>
   <v>       0.29530075       0.54815546       0.65915430 </v>
   <v>       0.79718391       0.04829081       0.65848724 </v>
   <v>       0.81758975       0.51445696       0.65618398 </v>
   <v>       0.04586250       0.20411950       0.75272599 </v>
   <v>       0.04586250       0.70411946       0.75272599 </v>
   <v>       0.54586251       0.20411950       0.75272599 </v>
   <v>       0.54586250       0.70411946       0.75272599 </v>
   <v>       0.20411900       0.45410100       0.75270499 </v>
   <v>       0.20411899       0.95410095       0.75270499 </v>
   <v>       0.70411898       0.45410100       0.75270499 </v>
   <v>       0.70411896       0.95410095       0.75270499 </v>
   <v>       0.45414002       0.29588849       0.75272697 </v>
   <v>       0.45414001       0.79588852       0.75272697 </v>
   <v>       0.95414002       0.29588849       0.75272697 </v>
[...]
   <v>       0.54491423       0.15027939       0.56084765 </v>
   <v>       0.50126061       0.64498165       0.55950790 </v>
   <v>       0.37042336       0.01276768       0.55516811 </v>
   <v>       0.29589390       0.62895021       0.55478241 </v>
   <v>       0.87393827       0.03557831       0.56006985 </v>
   <v>       0.05777447       0.25824745       0.58080281 </v>
   <v>       0.99237468       0.69659610       0.58632412 </v>
   <v>       0.57372672       0.23956271       0.56887861 </v>
   <v>       0.45072763       0.69389339       0.57850768 </v>
   <v>       0.27587110       0.43848606       0.57277191 </v>
   <v>       0.18309657       0.06005641       0.57191609 </v>
   <v>       0.67838188       0.03040939       0.57359831 </v>
   <v>       0.38642956       0.30609962       0.55813654 </v>
   <v>       0.50149783       0.87077556       0.55469640 </v>
   <v>       0.87801659       0.24029877       0.55579397 </v>
   <v>       0.98915595       0.86671056       0.55486837 </v>
   <v>       0.18137372       0.44116562       0.56679464 </v>
   <v>       0.14524070       0.98589491       0.55840948 </v>
   <v>       0.67453571       0.93708495       0.56518702 </v>
   <v>       0.42727967       0.18739962       0.55171490 </v>
   <v>       0.54455008       0.75554621       0.54276609 </v>
   <v>       0.99396005       0.23320114       0.53713740 </v>
   <v>       0.08295412       0.77655801       0.55337850 </v>
   <v>       0.18478329       0.56198118       0.55504656 </v>
   <v>       0.26244210       0.94231761       0.54684711 </v>
   <v>       0.79611087       0.93343720       0.55591899 </v>
   <v>       0.45472205       0.30492173       0.67338713 </v>
   <v>       0.44431675       0.80810849       0.67271329 </v>
   <v>       0.94278057       0.27738899       0.67489066 </v>
   <v>       0.92331671       0.72934931       0.67129094 </v>
   <v>       0.30671319       0.05008220       0.67211661 </v>
   <v>       0.29562585       0.55439673       0.67530047 </v>
   <v>       0.80182580       0.05406679       0.67456839 </v>
   <v>       0.84209455       0.47102061       0.66363115 </v>
   <v>       0.09203518       0.17348076       0.64888064 </v>
   <v>       0.11333534       0.71991869       0.65169169 </v>
   <v>       0.58034269       0.16920595       0.64956553 </v>
   <v>       0.57052162       0.66873269       0.65062024 </v>
   <v>       0.18555519       0.41179518       0.64821687 </v>
   <v>       0.16619900       0.92950960       0.64769894 </v>
   <v>       0.64209337       0.47494047       0.65742141 </v>
   <v>       0.67613337       0.91918254       0.65002143 </v>
   <v>       0.05318957       0.18703209       0.67415046 </v>
   <v>       0.05255191       0.67428184       0.66871694 </v>
   <v>       0.55627826       0.20447690       0.67434179 </v>
   <v>       0.53872450       0.69999685       0.67520164 </v>
   <v>       0.20208247       0.44462635       0.67386617 </v>
   <v>       0.19801402       0.95564575       0.67291309 </v>
   <v>       0.71553432       0.41963794       0.66670452 </v>
   <v>       0.70293602       0.95155293       0.67524755 </v>
   <v>       0.41960674       0.32451810       0.64804875 </v>
   <v>       0.42289056       0.83470972       0.64663080 </v>
   <v>       0.92214772       0.31791741       0.65008925 </v>
   <v>       0.90723198       0.80815648       0.65583906 </v>
   <v>       0.33549432       0.07491907       0.64656212 </v>
   <v>       0.32611603       0.58411118       0.65046457 </v>
   <v>       0.82979028       0.08094414       0.64891965 </v>
   <v>       0.85062588       0.55581520       0.65054253 </v>
   <v>       0.01294539       0.25676724       0.63209261 </v>
   <v>       0.02753303       0.80911666       0.64180769 </v>
   <v>       0.49714523       0.24063451       0.63080891 </v>
   <v>       0.50047289       0.74911102       0.63091312 </v>
   <v>       0.24917281       0.00089469       0.62948497 </v>
   <v>       0.26250125       0.49570211       0.63167651 </v>
   <v>       0.75352788       0.99746971       0.63180191 </v>
   <v>       0.72320852       0.56736992       0.64543702 </v>
   <v>       0.44874502       0.30128397       0.76888902 </v>
   <v>       0.44874501       0.80128391       0.76888902 </v>
   <v>       0.94874497       0.30128397       0.76888902 </v>
   <v>       0.94874501       0.80128391       0.76888902 </v>
   <v>       0.30127600       0.05129450       0.76887296 </v>
   <v>       0.30127601       0.55129450       0.76887296 </v>
   <v>       0.80127594       0.05129450       0.76887296 </v>
   <v>       0.80127598       0.55129450       0.76887296 </v>
   <v>       0.07877100       0.17118050       0.74344197 </v>
   <v>       0.07877101       0.67118045       0.74344197 </v>
   <v>       0.57877100       0.17118050       0.74344197 </v>
   <v>       0.57877099       0.67118045       0.74344197 </v>
   <v>       0.17119950       0.42117448       0.74342103 </v>
   <v>       0.17119950       0.92117451       0.74342103 </v>
   <v>       0.67119951       0.42117448       0.74342103 </v>
   <v>       0.67119950       0.92117451       0.74342103 </v>
   <v>       0.05125600       0.19871499       0.76888902 </v>
   <v>       0.05125600       0.69871493       0.76888902 </v>
   <v>       0.55125603       0.19871499       0.76888902 </v>
   <v>       0.55125602       0.69871493       0.76888902 </v>
   <v>       0.19872349       0.44870397       0.76887205 </v>
   <v>       0.19872349       0.94870397       0.76887205 </v>
   <v>       0.69872352       0.44870397       0.76887205 </v>
   <v>       0.69872351       0.94870397       0.76887205 </v>
   <v>       0.42123152       0.32881747       0.74344197 </v>
   <v>       0.42123151       0.82881744       0.74344197 </v>
   <v>       0.92123147       0.32881747       0.74344197 </v>
   <v>       0.92123151       0.82881744       0.74344197 </v>
   <v>       0.32880050       0.07882500       0.74342103 </v>
   <v>       0.32880049       0.57882496       0.74342103 </v>
   <v>       0.82880048       0.07882500       0.74342103 </v>
   <v>       0.82880052       0.57882496       0.74342103 </v>
   <v>       0.00000350       0.25000148       0.72582199 </v>
   <v>       0.00000350       0.75000145       0.72582199 </v>
   <v>       0.50000351       0.25000148       0.72582199 </v>
   <v>       0.50000350       0.75000145       0.72582199 </v>
   <v>       0.25000050       0.00000000       0.72580398 </v>
   <v>       0.25000052       0.50000000       0.72580398 </v>
   <v>       0.75000050       0.00000000       0.72580398 </v>
   <v>       0.75000049       0.50000000       0.72580398 </v>
   <v>       0.72039743       0.44254905       0.54077546 </v>
   <v>       0.73728277       0.49325314       0.51727552 </v>
   <v>       0.66011700       0.55187855       0.55790968 </v>
   <v>       0.70731622       0.63749351       0.55602674 </v>
   <v>       0.85103178       0.50754701       0.56833029 </v>
   <v>       0.78916643       0.57664579       0.57806704 </v>
   <v>       0.87393877       0.56248793       0.53085551 </v>
   <v>       0.80132200       0.62388041       0.52275831 </v>
   <v>       0.87150795       0.46279979       0.51865763 </v>
   <v>       0.86312046       0.42239004       0.54415547 </v>
   <v>       0.87305386       0.32623323       0.51875567 </v>
   <v>       0.78381845       0.32289264       0.52992166 </v>
   <v>       0.63579038       0.55020829       0.51866038 </v>
   <v>       0.68939704       0.63329371       0.51535466 </v>
   <v>       0.60745288       0.63436625       0.53055180 </v>
   <v>       0.75550164       0.46769066       0.59637691 </v>
   <v>       0.75415520       0.41107386       0.57324167 </v>
   <v>       0.68424311       0.47822512       0.57788634 </v>
   <v>       0.81721226       0.69150091       0.55855032 </v>
   <v>       0.89834996       0.68932264       0.54316559 </v>
   <v>       0.88959734       0.62760070       0.56502244 </v>
   <v>       0.82073433       0.38096409       0.48495918 </v>
   <v>       0.78594353       0.29323234       0.49160016 </v>
   <v>       0.66332232       0.30480982       0.51861014 </v>
   <v>       0.73233164       0.46181612       0.47090537 </v>
   <v>       0.53667100       0.35692089       0.51762398 </v>
   <v>       0.60474901       0.51314621       0.46960183 </v>
   <v>       0.50674922       0.46214009       0.49346375 </v>
   <v>       0.99267985       0.24278226       0.55436295 </v>
   <v>       0.03462497       0.76779686       0.56357873 </v>
   <v>       0.46605677       0.22820970       0.55813135 </v>
   <v>       0.50475621       0.75747095       0.55585691 </v>
   <v>       0.23658856       0.53514986       0.55970179 </v>
   <v>       0.25810887       0.99392748       0.55586228 </v>
   <v>       0.77420390       0.98561737       0.56198380 </v>
   <v>       0.00723647       0.24581219       0.64932451 </v>
   <v>       0.01130857       0.76624646       0.65315829 </v>
   <v>       0.50058037       0.24685888       0.64826150 </v>
   <v>       0.49650527       0.75118639       0.64837065 </v>
   <v>       0.25667320       0.49710721       0.64907721 </v>
   <v>       0.25055430       0.00183973       0.64699531 </v>
   <v>       0.74556128       0.51814969       0.65330456 </v>
   <v>       0.75289982       0.99953486       0.64928557 </v>
   <v>       0.49998898       0.24999498       0.74327702 </v>
   <v>       0.49998903       0.74999496       0.74327702 </v>
   <v>       0.99998898       0.24999498       0.74327702 </v>
   <v>       0.99998903       0.74999496       0.74327702 </v>
   <v>       0.25000050       0.00000100       0.74325596 </v>
   <v>       0.25000052       0.50000100       0.74325596 </v>
   <v>       0.75000050       0.00000100       0.74325596 </v>
   <v>       0.75000049       0.50000100       0.74325596 </v>
   <v>       0.70698432       0.38046914       0.49481116 </v>
   <v>       0.65076014       0.35053464       0.50761590 </v>
   <v>       0.68910485       0.43870775       0.48100154 </v>
   <v>       0.57905593       0.38017976       0.50716128 </v>
   <v>       0.61770137       0.46765359       0.48025786 </v>
   <v>       0.56208594       0.43900110       0.49360987 </v>
   <v>       0.76215263       0.47628174       0.53255018 </v>
   <v>       0.69587014       0.58546032       0.54756051 </v>
   <v>       0.79255759       0.52510124       0.56890584 </v>
   <v>       0.82827625       0.59748710       0.53650953 </v>
   <v>       0.83310608       0.43169770       0.52900424 </v>
   <v>       0.81905343       0.35496215       0.51903277 </v>
   <v>       0.65634877       0.60049061       0.52662560 </v>
   <v>       0.74389064       0.46720091       0.57917767 </v>
   <v>       0.85933737       0.65416729       0.55196593 </v>
   <v>       0.78537940       0.35169907       0.49638603 </v>
   <v>       0.05552392       0.24794041       0.56471463 </v>
   <v>       0.03392782       0.70869776       0.57557246 </v>
   <v>       0.53388564       0.20580885       0.56223202 </v>
   <v>       0.48429958       0.69539786       0.56516681 </v>
   <v>       0.44160669       0.29632798       0.56059876 </v>
   <v>       0.47978827       0.82341074       0.56137577 </v>
   <v>       0.92734769       0.24813608       0.56361755 </v>
   <v>       0.98083506       0.81703901       0.56258671 </v>
   <v>       0.23230763       0.46576549       0.56582716 </v>
   <v>       0.19194809       0.01530243       0.56192434 </v>
   <v>       0.70335417       0.98604952       0.56651510 </v>
   <v>       0.31908200       0.03098304       0.55989806 </v>
   <v>       0.29816991       0.57363110       0.55850178 </v>
   <v>       0.81955488       0.04154166       0.56449608 </v>
   <v>       0.05293565       0.19890118       0.65818731 </v>
   <v>       0.06058713       0.71621530       0.65799580 </v>
   <v>       0.54853380       0.20534893       0.65823395 </v>
   <v>       0.53717359       0.70341688       0.65898709 </v>
   <v>       0.21329458       0.44777890       0.65788915 </v>
   <v>       0.20212568       0.96040513       0.65679164 </v>
   <v>       0.69815505       0.46735803       0.65946564 </v>
   <v>       0.70862225       0.95378057       0.65909185 </v>
   <v>       0.45579058       0.29541497       0.65737031 </v>
   <v>       0.45191316       0.80087827       0.65670044 </v>
   <v>       0.95461721       0.28256335       0.65901529 </v>
   <v>       0.94350813       0.76884648       0.66091503 </v>
   <v>       0.30087997       0.04460130       0.65608533 </v>
   <v>       0.29530075       0.54815546       0.65915430 </v>
   <v>       0.79718391       0.04829081       0.65848724 </v>
   <v>       0.81758975       0.51445696       0.65618398 </v>
   <v>       0.04586250       0.20411950       0.75272599 </v>
   <v>       0.04586250       0.70411946       0.75272599 </v>
   <v>       0.54586251       0.20411950       0.75272599 </v>
   <v>       0.54586250       0.70411946       0.75272599 </v>
   <v>       0.20411900       0.45410100       0.75270499 </v>
   <v>       0.20411899       0.95410095       0.75270499 </v>
   <v>       0.70411898       0.45410100       0.75270499 </v>
   <v>       0.70411896       0.95410095       0.75270499 </v>
   <v>       0.45414002       0.29588849       0.75272697 </v>
   <v>       0.45414001       0.79588852       0.75272697 </v>
   <v>       0.95414002       0.29588849       0.75272697 </v>
   <v>       0.95414006       0.79588852       0.75272697 </v>
   <v>       0.29588249       0.04590050       0.75270499 </v>
   <v>       0.29588248       0.54590053       0.75270499 </v>
   <v>       0.79588244       0.04590050       0.75270499 </v>
   <v>       0.79588248       0.54590053       0.75270499 </v>
   <v>       0.77000227       0.54598289       0.54610660 </v>
   <v>       0.51097573       0.01253121       0.55179591 </v>
   <v>       0.48472424       0.50194523       0.55421894 </v>
   <v>       0.00432327       0.00913107       0.55129771 </v>
   <v>       0.02859828       0.50316654       0.55495884 </v>
   <v>       0.25168050       0.24622760       0.55279276 </v>
   <v>       0.24955978       0.76646668       0.55279282 </v>
   <v>       0.73386145       0.21089698       0.55587632 </v>
   <v>       0.69933834       0.79607943       0.55502245 </v>
   <v>       0.99519657       0.98411122       0.65425909 </v>
   <v>       0.01485109       0.49494451       0.65561398 </v>
   <v>       0.49856785       0.00404065       0.65442868 </v>
   <v>       0.50199223       0.49580491       0.65479790 </v>
   <v>       0.25629273       0.24506473       0.65436422 </v>
   <v>       0.25484506       0.75477421       0.65441733 </v>
   <v>       0.74715377       0.26605203       0.65509343 </v>
   <v>       0.74611297       0.74231252       0.65471939 </v>
   <v>       0.12931324       0.12231772       0.60735250 </v>
   <v>       0.15362127       0.60542920       0.60831662 </v>
   <v>       0.64036121       0.11355857       0.61085924 </v>
   <v>       0.63029293       0.61995981       0.60866929 </v>
   <v>       0.36400557       0.38756668       0.60690856 </v>
   <v>       0.37233473       0.88279723       0.60630553 </v>
   <v>       0.88776640       0.37040020       0.60888698 </v>
   <v>       0.86765953       0.88182987       0.60611256 </v>
   <v>       0.12288698       0.36481190       0.60818933 </v>
   <v>       0.12303422       0.87542361       0.60672114 </v>
   <v>       0.59683370       0.34754785       0.60117072 </v>
   <v>       0.61529498       0.86715750       0.61307031 </v>
   <v>       0.38625102       0.13290512       0.60613930 </v>
   <v>       0.38502001       0.63341726       0.61040407 </v>
   <v>       0.88260789       0.13628713       0.61257296 </v>
   <v>       0.90141694       0.64217550       0.61462861 </v>
   <v>       0.00000000       0.00000000       0.75492797 </v>
   <v>       0.00000000       0.50000000       0.75492797 </v>
   <v>       0.50000000       0.00000000       0.75492797 </v>
   <v>       0.49999999       0.50000000       0.75492797 </v>
   <v>       0.25000050       0.25000000       0.75493902 </v>
   <v>       0.25000051       0.74999997       0.75493902 </v>
   <v>       0.75000047       0.25000000       0.75493902 </v>
   <v>       0.75000046       0.74999997       0.75493902 </v>
   <v>       0.13579050       0.11421000       0.70478299 </v>
   <v>       0.13579050       0.61420998       0.70478299 </v>
   <v>       0.63579045       0.11421000       0.70478299 </v>
   <v>       0.63579049       0.61420998       0.70478299 </v>
   <v>       0.36420952       0.38578999       0.70478299 </v>
   <v>       0.36420950       0.88578996       0.70478299 </v>
   <v>       0.86420954       0.38578999       0.70478299 </v>
   <v>       0.86420953       0.88578996       0.70478299 </v>
   <v>       0.11421799       0.36421899       0.70478098 </v>
   <v>       0.11421799       0.86421899       0.70478098 </v>
   <v>       0.61421800       0.36421899       0.70478098 </v>
   <v>       0.61421799       0.86421899       0.70478098 </v>
   <v>       0.38578201       0.13578149       0.70478202 </v>
   <v>       0.38578200       0.63578149       0.70478202 </v>
   <v>       0.88578199       0.13578149       0.70478202 </v>
   <v>       0.88578203       0.63578149       0.70478202 </v>
   <v>       0.13466700       0.11533200       0.80125603 </v>
   <v>       0.13466699       0.61533199       0.80125603 </v>
   <v>       0.63466699       0.11533200       0.80125603 </v>
   <v>       0.63466698       0.61533199       0.80125603 </v>
   <v>       0.36533300       0.38466799       0.80125603 </v>
   <v>       0.36533299       0.88466796       0.80125603 </v>
   <v>       0.86533295       0.38466799       0.80125603 </v>
   <v>       0.86533294       0.88466796       0.80125603 </v>
   <v>       0.11532850       0.36533700       0.80126500 </v>
   <v>       0.11532850       0.86533698       0.80126500 </v>
   <v>       0.61532850       0.36533700       0.80126500 </v>
   <v>       0.61532849       0.86533698       0.80126500 </v>
   <v>       0.38467151       0.13466300       0.80126500 </v>
   <v>       0.38467150       0.63466297       0.80126500 </v>
   <v>       0.88467149       0.13466300       0.80126500 </v>
   <v>       0.88467153       0.63466297       0.80126500 </v>
   <v>       0.99728379       0.00415122       0.60472966 </v>
   <v>       0.00730327       0.50342668       0.60469669 </v>
   <v>       0.50381427       0.00195396       0.60457301 </v>
   <v>       0.50218614       0.49952778       0.60407334 </v>
   <v>       0.25327627       0.25059030       0.60403537 </v>
   <v>       0.24888985       0.75189076       0.60329956 </v>
   <v>       0.74662010       0.25391381       0.60515540 </v>
   <v>       0.74254535       0.75684345       0.60391211 </v>
   <v>       0.00000050       0.00000050       0.70482896 </v>
   <v>       0.00000050       0.50000048       0.70482896 </v>
   <v>       0.50000048       0.00000050       0.70482896 </v>
   <v>       0.50000046       0.50000048       0.70482896 </v>
   <v>       0.24999999       0.24999947       0.70482499 </v>
   <v>       0.25000001       0.74999950       0.70482499 </v>
   <v>       0.74999999       0.24999947       0.70482499 </v>
   <v>       0.74999998       0.74999950       0.70482499 </v>
   <v>       0.00000000       0.00000000       0.80731797 </v>
   <v>       0.00000000       0.50000000       0.80731797 </v>
   <v>       0.50000000       0.00000000       0.80731797 </v>
   <v>       0.49999999       0.50000000       0.80731797 </v>
   <v>       0.24999999       0.25000000       0.80731797 </v>
   <v>       0.25000001       0.74999997       0.80731797 </v>
   <v>       0.74999999       0.25000000       0.80731797 </v>
   <v>       0.74999998       0.74999997       0.80731797 </v>
  </varray>
 </structure>
</modeling>
