 vasp.6.2.1 16May21 (build Nov 15 2021 14:57:28) complex                         
 executed on             LinuxPGI date 2023.07.30  13:30:13
 running on    4 total cores
 distrk:  each k-point on    4 cores,    1 groups
 distr:  one band on NCORE=   1 cores,    4 groups


--------------------------------------------------------------------------------------------------------


 INCAR:
   SYSTEM = PSC
   ISTART = 1
   ICHARG = 1
   PREC = Normal
   ENCUT = 500
   GGA_COMPAT = F
   NELM = 600
   ISYM = 0
   LREAL = Auto
   ISMEAR = 0
   SIGMA = 0.05
   AMIN = 0.01
   BMIX = 0.01
   LVTOT = T
   LWAVE = F
   LDIPOL = T
   IDIPOL = 3
   LVDW = T
   IVDW = 12

 POTCAR:    PAW_PBE H 15Jun2001                   
 POTCAR:    PAW_PBE C 08Apr2002                   
 POTCAR:    PAW_PBE N 08Apr2002                   
 POTCAR:    PAW_PBE I 08Apr2002                   
 POTCAR:    PAW_PBE Pb 08Apr2002                  
 WARNING: For LVTOT=.TRUE., VASP.5.x writes the TOTAL local potential to the
     file LOCPOT. If you want only the Hartree contributions, use LVHAR=.TRUE.
     instead. 

 POTCAR:    PAW_PBE H 15Jun2001                   
   SHA256 =  030f79b5d3ab3cf0e668861823c8fb652ff669f3e15e46930bd03bfd63a607b6 H/POTCAR              
   COPYR  = (c) Copyright 15Jun2001 Georg Kresse                                                    
   COPYR  = This file is part of the software VASP. Any use, copying, and all other rights are regul
   COPYR  = If you do not have a valid VASP license, you may not use, copy or distribute this file. 
   VRHFIN =H: ultrasoft test                                                                        
   LEXCH  = PE                                                                                      
   EATOM  =    12.4884 eV,    0.9179 Ry                                                             
                                                                                                    
   TITEL  = PAW_PBE H 15Jun2001                                                                     
   LULTRA =        F    use ultrasoft PP ?                                                          
   IUNSCR =        0    unscreen: 0-lin 1-nonlin 2-no                                               
   RPACOR =    0.000    partial core radius                                                         
   POMASS =    1.000; ZVAL   =    1.000    mass and valenz                                          
   RCORE  =    1.100    outmost cutoff radius                                                       
   RWIGS  =    0.700; RWIGS  =    0.370    wigner-seitz radius (au A)                               
   ENMAX  =  250.000; ENMIN  =  200.000 eV                                                          
   RCLOC  =    0.701    cutoff for local pot                                                        
   LCOR   =        T    correct aug charges                                                         
   LPAW   =        T    paw PP                                                                      
   EAUG   =  400.000                                                                                
   RMAX   =    1.123    core radius for proj-oper                                                   
   RAUG   =    1.200    factor for augmentation sphere                                              
   RDEP   =    1.112    radius for radial grids                                                     
   RDEPT  =    0.926    core radius for aug-charge                                                  
                                                                                                    
   Atomic configuration                                                                             
    2 entries                                                                                       
     n  l   j            E        occ.                                                              
     1  0  0.50        -6.4927   1.0000                                                             
     2  1  0.50        -3.4015   0.0000                                                             
   Description                                                                                      
     l       E           TYP  RCUT    TYP  RCUT                                                     
     0     -6.4927494     23  1.100                                                                 
     0      6.8029130     23  1.100                                                                 
     1     -4.0817478     23  1.100                                                                 
  local pseudopotential read in
  atomic valenz-charges read in
  non local Contribution for L=            0  read in
    real space projection operators read in
  non local Contribution for L=            0  read in
    real space projection operators read in
  non local Contribution for L=            1  read in
    real space projection operators read in
    PAW grid and wavefunctions read in
 
   number of l-projection  operators is LMAX  =            3
   number of lm-projection operators is LMMAX =            5
 
 POTCAR:    PAW_PBE C 08Apr2002                   
   SHA256 =  253f7b50bb8d59471dbedb8285d89021f4a42ed1a2c5d38a03a736e69125dd95 C/POTCAR              
   COPYR  = (c) Copyright 08Apr2002 Georg Kresse                                                    
   COPYR  = This file is part of the software VASP. Any use, copying, and all other rights are regul
   COPYR  = If you do not have a valid VASP license, you may not use, copy or distribute this file. 
   VRHFIN =C: s2p2                                                                                  
   LEXCH  = PE                                                                                      
   EATOM  =   147.1560 eV,   10.8157 Ry                                                             
                                                                                                    
   TITEL  = PAW_PBE C 08Apr2002                                                                     
   LULTRA =        F    use ultrasoft PP ?                                                          
   IUNSCR =        1    unscreen: 0-lin 1-nonlin 2-no                                               
   RPACOR =    1.200    partial core radius                                                         
   POMASS =   12.011; ZVAL   =    4.000    mass and valenz                                          
   RCORE  =    1.500    outmost cutoff radius                                                       
   RWIGS  =    1.630; RWIGS  =    0.863    wigner-seitz radius (au A)                               
   ENMAX  =  400.000; ENMIN  =  300.000 eV                                                          
   ICORE  =        2    local potential                                                             
   LCOR   =        T    correct aug charges                                                         
   LPAW   =        T    paw PP                                                                      
   EAUG   =  644.873                                                                                
   DEXC   =    0.000                                                                                
   RMAX   =    1.529    core radius for proj-oper                                                   
   RAUG   =    1.300    factor for augmentation sphere                                              
   RDEP   =    1.501    radius for radial grids                                                     
   RDEPT  =    1.300    core radius for aug-charge                                                  
                                                                                                    
   Atomic configuration                                                                             
    4 entries                                                                                       
     n  l   j            E        occ.                                                              
     1  0  0.50      -273.3789   2.0000                                                             
     2  0  0.50       -13.7508   2.0000                                                             
     2  1  0.50        -5.2854   2.0000                                                             
     3  2  1.50        -5.4423   0.0000                                                             
   Description                                                                                      
     l       E           TYP  RCUT    TYP  RCUT                                                     
     0    -13.7508458     23  1.200                                                                 
     0     -8.2022199     23  1.200                                                                 
     1     -5.2854383     23  1.500                                                                 
     1     34.0145650     23  1.500                                                                 
     2     -5.4423304      7  1.500                                                                 
  local pseudopotential read in
  partial core-charges read in
  partial kinetic energy density read in
  atomic valenz-charges read in
  non local Contribution for L=            0  read in
    real space projection operators read in
  non local Contribution for L=            0  read in
    real space projection operators read in
  non local Contribution for L=            1  read in
    real space projection operators read in
  non local Contribution for L=            1  read in
    real space projection operators read in
    PAW grid and wavefunctions read in
 
   number of l-projection  operators is LMAX  =            4
   number of lm-projection operators is LMMAX =            8
 
 POTCAR:    PAW_PBE N 08Apr2002                   
   SHA256 =  e053789ff3a61a86a1b75d8a110fcc91f86041011e7b0817c7c99e4e8a6349d7 N/POTCAR              
   COPYR  = (c) Copyright 08Apr2002 Georg Kresse                                                    
   COPYR  = This file is part of the software VASP. Any use, copying, and all other rights are regul
   COPYR  = If you do not have a valid VASP license, you may not use, copy or distribute this file. 
   VRHFIN =N: s2p3                                                                                  
   LEXCH  = PE                                                                                      
   EATOM  =   264.5486 eV,   19.4438 Ry                                                             
                                                                                                    
   TITEL  = PAW_PBE N 08Apr2002                                                                     
   LULTRA =        F    use ultrasoft PP ?                                                          
   IUNSCR =        1    unscreen: 0-lin 1-nonlin 2-no                                               
   RPACOR =    1.200    partial core radius                                                         
   POMASS =   14.001; ZVAL   =    5.000    mass and valenz                                          
   RCORE  =    1.500    outmost cutoff radius                                                       
   RWIGS  =    1.400; RWIGS  =    0.741    wigner-seitz radius (au A)                               
   ENMAX  =  400.000; ENMIN  =  300.000 eV                                                          
   ICORE  =        2    local potential                                                             
   LCOR   =        T    correct aug charges                                                         
   LPAW   =        T    paw PP                                                                      
   EAUG   =  627.112                                                                                
   DEXC   =    0.000                                                                                
   RMAX   =    1.529    core radius for proj-oper                                                   
   RAUG   =    1.300    factor for augmentation sphere                                              
   RDEP   =    1.514    radius for radial grids                                                     
   RDEPT  =    1.338    core radius for aug-charge                                                  
                                                                                                    
   Atomic configuration                                                                             
    4 entries                                                                                       
     n  l   j            E        occ.                                                              
     1  0  0.50      -384.7179   2.0000                                                             
     2  0  0.50       -18.5828   2.0000                                                             
     2  1  0.50        -7.0898   3.0000                                                             
     3  2  1.50        -6.8029   0.0000                                                             
   Description                                                                                      
     l       E           TYP  RCUT    TYP  RCUT                                                     
     0    -18.5828119     23  1.200                                                                 
     0    -13.5018863     23  1.200                                                                 
     1     -7.0897853     23  1.500                                                                 
     1      9.5240782     23  1.500                                                                 
     2     -6.8029130      7  1.500                                                                 
  local pseudopotential read in
  partial core-charges read in
  partial kinetic energy density read in
  atomic valenz-charges read in
  non local Contribution for L=            0  read in
    real space projection operators read in
  non local Contribution for L=            0  read in
    real space projection operators read in
  non local Contribution for L=            1  read in
    real space projection operators read in
  non local Contribution for L=            1  read in
    real space projection operators read in
    PAW grid and wavefunctions read in
 
   number of l-projection  operators is LMAX  =            4
   number of lm-projection operators is LMMAX =            8
 
 POTCAR:    PAW_PBE I 08Apr2002                   
   SHA256 =  e40f3f59b681c1fc3e3091736183c4589116986673d2b852a5012aec72758799 I/POTCAR              
   COPYR  = (c) Copyright 08Apr2002 Georg Kresse                                                    
   COPYR  = This file is part of the software VASP. Any use, copying, and all other rights are regul
   COPYR  = If you do not have a valid VASP license, you may not use, copy or distribute this file. 
   VRHFIN =I : s2p5                                                                                 
   LEXCH  = PE                                                                                      
   EATOM  =   315.8678 eV,   23.2156 Ry                                                             
                                                                                                    
   TITEL  = PAW_PBE I 08Apr2002                                                                     
   LULTRA =        F    use ultrasoft PP ?                                                          
   IUNSCR =        1    unscreen: 0-lin 1-nonlin 2-no                                               
   RPACOR =    2.200    partial core radius                                                         
   POMASS =  126.904; ZVAL   =    7.000    mass and valenz                                          
   RCORE  =    2.300    outmost cutoff radius                                                       
   RWIGS  =    2.810; RWIGS  =    1.487    wigner-seitz radius (au A)                               
   ENMAX  =  175.647; ENMIN  =  131.735 eV                                                          
   ICORE  =        3    local potential                                                             
   LCOR   =        T    correct aug charges                                                         
   LPAW   =        T    paw PP                                                                      
   EAUG   =  370.139                                                                                
   DEXC   =    0.000                                                                                
   RMAX   =    2.359    core radius for proj-oper                                                   
   RAUG   =    1.300    factor for augmentation sphere                                              
   RDEP   =    2.392    radius for radial grids                                                     
   RDEPT  =    2.170    core radius for aug-charge                                                  
                                                                                                    
   Atomic configuration                                                                             
   13 entries                                                                                       
     n  l   j            E        occ.                                                              
     1  0  0.50    -32976.3739   2.0000                                                             
     2  0  0.50     -5094.5933   2.0000                                                             
     2  1  1.50     -4572.0131   6.0000                                                             
     3  0  0.50     -1028.2813   2.0000                                                             
     3  1  1.50      -859.0250   6.0000                                                             
     3  2  2.50      -605.7620  10.0000                                                             
     4  0  0.50      -180.5540   2.0000                                                             
     4  1  1.50      -127.5306   6.0000                                                             
     4  2  2.50       -50.2720  10.0000                                                             
     5  0  0.50       -17.4058   2.0000                                                             
     5  1  0.50        -7.0851   5.0000                                                             
     5  2  1.50        -7.0750   0.0000                                                             
     4  3  2.50        -7.0750   0.0000                                                             
   Description                                                                                      
     l       E           TYP  RCUT    TYP  RCUT                                                     
     0    -17.4058016     23  2.300                                                                 
     0    -18.7663842     23  2.300                                                                 
     1     -7.0850686     23  2.300                                                                 
     1     -4.2150896     23  2.300                                                                 
     2     -7.0750295     23  2.300                                                                 
     3     -1.3605826     23  2.300                                                                 
  local pseudopotential read in
  partial core-charges read in
  partial kinetic energy density read in
  atomic valenz-charges read in
  non local Contribution for L=            0  read in
    real space projection operators read in
  non local Contribution for L=            0  read in
    real space projection operators read in
  non local Contribution for L=            1  read in
    real space projection operators read in
  non local Contribution for L=            1  read in
    real space projection operators read in
  non local Contribution for L=            2  read in
    real space projection operators read in
    PAW grid and wavefunctions read in
 
   number of l-projection  operators is LMAX  =            5
   number of lm-projection operators is LMMAX =           13
 
 POTCAR:    PAW_PBE Pb 08Apr2002                  
   SHA256 =  797118a27cf1bcd06b9881c67a26cdde129e3cd1a551dd4a281f9681ce847303 Pb/POTCAR             
   COPYR  = (c) Copyright 08Apr2002 Georg Kresse                                                    
   COPYR  = This file is part of the software VASP. Any use, copying, and all other rights are regul
   COPYR  = If you do not have a valid VASP license, you may not use, copy or distribute this file. 
   VRHFIN =Pb:                                                                                      
   LEXCH  = PE                                                                                      
   EATOM  =    96.9868 eV,    7.1283 Ry                                                             
                                                                                                    
   TITEL  = PAW_PBE Pb 08Apr2002                                                                    
   LULTRA =        F    use ultrasoft PP ?                                                          
   IUNSCR =        1    unscreen: 0-lin 1-nonlin 2-no                                               
   RPACOR =    2.200    partial core radius                                                         
   POMASS =  207.200; ZVAL   =    4.000    mass and valenz                                          
   RCORE  =    3.100    outmost cutoff radius                                                       
   RWIGS  =    3.260; RWIGS  =    1.725    wigner-seitz radius (au A)                               
   ENMAX  =   97.973; ENMIN  =   73.480 eV                                                          
   ICORE  =        3    local potential                                                             
   LCOR   =        T    correct aug charges                                                         
   LPAW   =        T    paw PP                                                                      
   EAUG   =  234.873                                                                                
   DEXC   =    0.000                                                                                
   RMAX   =    3.158    core radius for proj-oper                                                   
   RAUG   =    1.300    factor for augmentation sphere                                              
   RDEP   =    3.202    radius for radial grids                                                     
   RDEPT  =    2.659    core radius for aug-charge                                                  
                                                                                                    
   Atomic configuration                                                                             
   17 entries                                                                                       
     n  l   j            E        occ.                                                              
     1  0  0.50    -88091.8466   2.0000                                                             
     2  0  0.50    -15753.4197   2.0000                                                             
     2  1  1.50    -13508.1797   6.0000                                                             
     3  0  0.50     -3781.7194   2.0000                                                             
     3  1  1.50     -3138.2529   6.0000                                                             
     3  2  2.50     -2483.2977  10.0000                                                             
     4  0  0.50      -856.2895   2.0000                                                             
     4  1  1.50      -645.4943   6.0000                                                             
     4  2  2.50      -401.8768  10.0000                                                             
     4  3  3.50      -132.9059  14.0000                                                             
     5  0  0.50      -144.0950   2.0000                                                             
     5  1  1.50       -85.7879   6.0000                                                             
     5  2  2.50       -21.1769  10.0000                                                             
     6  0  0.50       -12.0372   2.0000                                                             
     6  1  1.50        -3.4971   2.0000                                                             
     6  2  2.50        -1.3606   0.0000                                                             
     5  3  2.50        -2.7212   0.0000                                                             
   Description                                                                                      
     l       E           TYP  RCUT    TYP  RCUT                                                     
     0    -12.0371566     23  3.100                                                                 
     0    -13.3977392     23  3.100                                                                 
     1     -3.4971341     23  3.100                                                                 
     1     -5.4423304     23  3.100                                                                 
     2     -1.3605826     23  3.100                                                                 
     3     -1.3605826     23  3.100                                                                 
  local pseudopotential read in
  partial core-charges read in
  partial kinetic energy density read in
  atomic valenz-charges read in
  non local Contribution for L=            0  read in
    real space projection operators read in
  non local Contribution for L=            0  read in
    real space projection operators read in
  non local Contribution for L=            1  read in
    real space projection operators read in
  non local Contribution for L=            1  read in
    real space projection operators read in
  non local Contribution for L=            2  read in
    real space projection operators read in
    PAW grid and wavefunctions read in
 
   number of l-projection  operators is LMAX  =            5
   number of lm-projection operators is LMMAX =           13
 
 Optimization of the real space projectors (new method)

 maximal supplied QI-value         = 34.20
 optimisation between [QCUT,QGAM] = [ 11.29, 22.57] = [ 35.68,142.71] Ry 
 Optimized for a Real-space Cutoff    1.16 Angstroem

   l    n(q)    QCUT    max X(q) W(low)/X(q) W(high)/X(q)  e(spline) 
   0      8    11.287    19.460    0.40E-03    0.73E-03    0.16E-06
   0      8    11.287    12.209    0.38E-03    0.70E-03    0.15E-06
   1      7    11.287     4.655    0.22E-03    0.25E-04    0.22E-06
 Optimization of the real space projectors (new method)

 maximal supplied QI-value         = 25.13
 optimisation between [QCUT,QGAM] = [ 11.31, 22.87] = [ 35.82,146.48] Ry 
 Optimized for a Real-space Cutoff    1.00 Angstroem

   l    n(q)    QCUT    max X(q) W(low)/X(q) W(high)/X(q)  e(spline) 
   0      7    11.310   115.676    0.43E-03    0.13E-02    0.19E-06
   0      7    11.310    87.132    0.43E-03    0.13E-02    0.18E-06
   1      6    11.310     4.429    0.42E-03    0.74E-03    0.11E-06
   1      6    11.310     2.733    0.34E-03    0.55E-03    0.92E-07
 Optimization of the real space projectors (new method)

 maximal supplied QI-value         = 25.13
 optimisation between [QCUT,QGAM] = [ 11.31, 22.87] = [ 35.82,146.48] Ry 
 Optimized for a Real-space Cutoff    1.27 Angstroem

   l    n(q)    QCUT    max X(q) W(low)/X(q) W(high)/X(q)  e(spline) 
   0      9    11.310    79.467    0.75E-04    0.16E-03    0.36E-06
   0      9    11.310    66.151    0.74E-04    0.16E-03    0.36E-06
   1      8    11.310    17.416    0.35E-03    0.12E-03    0.95E-06
   1      8    11.310    12.382    0.37E-03    0.13E-03    0.98E-06
 Optimization of the real space projectors (new method)

 maximal supplied QI-value         = 16.25
 optimisation between [QCUT,QGAM] = [ 11.38, 22.75] = [ 36.24,144.96] Ry 
 Optimized for a Real-space Cutoff    1.31 Angstroem

   l    n(q)    QCUT    max X(q) W(low)/X(q) W(high)/X(q)  e(spline) 
   0      9    11.376   194.483    0.24E-03    0.23E-03    0.67E-07
   0      9    11.376   190.334    0.23E-03    0.22E-03    0.65E-07
   1      8    11.376   116.687    0.25E-03    0.63E-04    0.16E-06
   1      8    11.376    88.696    0.25E-03    0.61E-04    0.16E-06
   2      8    11.376     4.877    0.17E-03    0.14E-03    0.29E-07
 Optimization of the real space projectors (new method)

 maximal supplied QI-value         = 12.09
 optimisation between [QCUT,QGAM] = [ 11.37, 22.86] = [ 36.19,146.31] Ry 
 Optimized for a Real-space Cutoff    1.66 Angstroem

   l    n(q)    QCUT    max X(q) W(low)/X(q) W(high)/X(q)  e(spline) 
   0     11    11.369   135.111    0.12E-03    0.69E-04    0.19E-05
   0     11    11.369   146.850    0.11E-03    0.65E-04    0.18E-05
   1     11    11.369   148.016    0.17E-03    0.32E-03    0.89E-06
   1     11    11.369   122.989    0.17E-03    0.32E-03    0.91E-06
   2     10    11.369     8.916    0.12E-03    0.45E-04    0.33E-06
  PAW_PBE H 15Jun2001                   :
 energy of atom  1       EATOM=  -12.4884
 kinetic energy error for atom=    0.0020 (will be added to EATOM!!)
  PAW_PBE C 08Apr2002                   :
 energy of atom  2       EATOM= -147.1560
 kinetic energy error for atom=    0.0076 (will be added to EATOM!!)
  PAW_PBE N 08Apr2002                   :
 energy of atom  3       EATOM= -264.5486
 kinetic energy error for atom=    0.0138 (will be added to EATOM!!)
  PAW_PBE I 08Apr2002                   :
 energy of atom  4       EATOM= -315.8678
 kinetic energy error for atom=    0.0009 (will be added to EATOM!!)
  PAW_PBE Pb 08Apr2002                  :
 energy of atom  5       EATOM=  -96.9868
 kinetic energy error for atom=    0.0000 (will be added to EATOM!!)
 
 
 POSCAR:  H  C  N  I Pb
  positions in cartesian coordinates
  No initial velocities read in
 exchange correlation table for  LEXCH =        8
   RHO(1)=    0.500       N(1)  =     2000
   RHO(2)=  100.500       N(2)  =     4000
 


--------------------------------------------------------------------------------------------------------


 ion  position               nearest neighbor table
   1  0.410  0.278  0.567- 187 1.02
   2  0.412  0.703  0.573- 188 1.03
   3  0.929  0.289  0.581- 189 1.03
   4  0.932  0.814  0.574- 190 1.02
   5  0.323  0.092  0.566- 194 1.02
   6  0.318  0.577  0.570- 195 1.03
   7  0.802  0.098  0.569- 196 1.02
   8  0.111  0.240  0.562- 183 1.03
   9  0.081  0.680  0.569- 184 1.02
  10  0.591  0.189  0.565- 185 1.03
  11  0.602  0.748  0.559- 186 1.04
  12  0.378  0.021  0.555- 194 1.03
  13  0.253  0.623  0.554- 195 1.01
  14  0.875  0.044  0.559- 196 1.02
  15  0.063  0.286  0.583- 183 1.03
  16  0.995  0.694  0.582- 184 1.03
  17  0.498  0.172  0.572- 185 1.02
  18  0.548  0.689  0.575- 186 1.02
  19  0.306  0.440  0.573- 191 1.03
  20  0.189  0.066  0.570- 192 1.02
  21  0.679  0.033  0.573- 193 1.02
  22  0.450  0.361  0.558- 187 1.03
  23  0.377  0.770  0.556- 188 1.02
  24  0.885  0.239  0.561- 189 1.02
  25  0.978  0.873  0.556- 190 1.03
  26  0.234  0.400  0.559- 191 1.02
  27  0.155  0.986  0.558- 192 1.01
  28  0.677  0.942  0.563- 193 1.01
  29  0.567  0.310  0.555- 146 1.09
  30  0.497  0.808  0.545- 147 1.09
  31  1.000  0.201  0.546- 144 1.08
  32  0.075  0.791  0.551- 145 1.09
  33  0.189  0.512  0.546- 148 1.09
  34  0.275  0.946  0.549- 149 1.09
  35  0.799  0.942  0.553- 150 1.09
  36  0.453  0.294  0.674- 205 1.02
  37  0.440  0.811  0.672- 206 1.02
  38  0.961  0.282  0.678- 207 1.02
  39  0.917  0.742  0.669- 208 1.03
  40  0.299  0.042  0.675- 209 1.03
  41  0.304  0.556  0.674- 210 1.02
  42  0.795  0.054  0.675- 211 1.02
  43  0.827  0.505  0.670- 212 1.02
  44  0.090  0.171  0.647- 197 1.03
  45  0.105  0.697  0.652- 198 1.02
  46  0.577  0.164  0.646- 199 1.03
  47  0.575  0.678  0.651- 200 1.01
  48  0.186  0.413  0.651- 201 1.01
  49  0.163  0.931  0.646- 202 1.01
  50  0.642  0.458  0.651- 203 1.02
  51  0.676  0.917  0.649- 204 1.02
  52  0.066  0.187  0.673- 197 1.03
  53  0.029  0.658  0.665- 198 1.02
  54  0.544  0.184  0.672- 199 1.02
  55  0.543  0.712  0.675- 200 1.03
  56  0.216  0.443  0.676- 201 1.03
  57  0.186  0.954  0.672- 202 1.02
  58  0.702  0.436  0.672- 203 1.03
  59  0.698  0.949  0.675- 204 1.03
  60  0.439  0.340  0.650- 205 1.02
  61  0.414  0.830  0.645- 206 1.02
  62  0.926  0.320  0.655- 207 1.01
  63  0.927  0.831  0.658- 208 1.02
  64  0.342  0.062  0.651- 209 1.00
  65  0.321  0.590  0.649- 210 1.02
  66  0.827  0.080  0.650- 211 1.02
  67  0.837  0.567  0.649- 212 1.01
  68  0.004  0.253  0.633- 151 1.09
  69  0.045  0.808  0.645- 152 1.09
  70  0.514  0.263  0.630- 153 1.08
  71  0.498  0.748  0.631- 154 1.08
  72  0.258  0.995  0.631- 156 1.09
  73  0.248  0.502  0.632- 155 1.09
  74  0.756  0.994  0.632- 158 1.08
  75  0.720  0.542  0.635- 157 1.09
  76  0.449  0.301  0.769- 221 1.02
  77  0.449  0.801  0.769- 222 1.02
  78  0.949  0.301  0.769- 223 1.02
  79  0.949  0.801  0.769- 224 1.02
  80  0.301  0.051  0.769- 225 1.02
  81  0.301  0.551  0.769- 226 1.02
  82  0.801  0.051  0.769- 227 1.02
  83  0.801  0.551  0.769- 228 1.02
  84  0.079  0.171  0.743- 213 1.02
  85  0.079  0.671  0.743- 214 1.02
  86  0.579  0.171  0.743- 215 1.02
  87  0.579  0.671  0.743- 216 1.02
  88  0.171  0.421  0.743- 217 1.02
  89  0.171  0.921  0.743- 218 1.02
  90  0.671  0.421  0.743- 219 1.02
  91  0.671  0.921  0.743- 220 1.02
  92  0.051  0.199  0.769- 213 1.02
  93  0.051  0.699  0.769- 214 1.02
  94  0.551  0.199  0.769- 215 1.02
  95  0.551  0.699  0.769- 216 1.02
  96  0.199  0.449  0.769- 217 1.02
  97  0.199  0.949  0.769- 218 1.02
  98  0.699  0.449  0.769- 219 1.02
  99  0.699  0.949  0.769- 220 1.02
 100  0.421  0.329  0.743- 221 1.02
 101  0.421  0.829  0.743- 222 1.02
 102  0.921  0.329  0.743- 223 1.02
 103  0.921  0.829  0.743- 224 1.02
 104  0.329  0.079  0.743- 225 1.02
 105  0.329  0.579  0.743- 226 1.02
 106  0.829  0.079  0.743- 227 1.02
 107  0.829  0.579  0.743- 228 1.02
 108  0.000  0.250  0.726- 161 1.09
 109  0.000  0.750  0.726- 162 1.09
 110  0.500  0.250  0.726- 159 1.09
 111  0.500  0.750  0.726- 160 1.09
 112  0.250  0.000  0.726- 163 1.09
 113  0.250  0.500  0.726- 164 1.09
 114  0.750  0.000  0.726- 165 1.09
 115  0.750  0.500  0.726- 166 1.09
 116  0.800  0.509  0.515- 173 1.09
 117  0.879  0.501  0.531- 173 1.09
 118  0.763  0.623  0.532- 174 1.10
 119  0.762  0.627  0.560- 174 1.10
 120  0.686  0.449  0.551- 175 1.10
 121  0.671  0.541  0.559- 175 1.10
 122  0.798  0.428  0.567- 176 1.09
 123  0.867  0.497  0.569- 176 1.10
 124  0.858  0.376  0.539- 177 1.10
 125  0.763  0.378  0.533- 177 1.10
 126  0.782  0.382  0.496- 178 1.10
 127  0.875  0.409  0.498- 178 1.10
 128  0.898  0.619  0.531- 179 1.10
 129  0.907  0.606  0.559- 179 1.10
 130  0.870  0.690  0.548- 179 1.10
 131  0.600  0.516  0.527- 180 1.10
 132  0.680  0.487  0.512- 180 1.10
 133  0.668  0.581  0.520- 180 1.10
 134  0.709  0.507  0.588- 181 1.09
 135  0.779  0.576  0.591- 181 1.09
 136  0.792  0.487  0.602- 181 1.10
 137  0.823  0.256  0.513- 182 1.11
 138  0.844  0.275  0.487- 182 1.10
 139  0.924  0.160  0.498- 168 1.09
 140  0.972  0.384  0.518- 169 1.09
 141  0.056  0.127  0.504- 170 1.10
 142  0.101  0.352  0.523- 171 1.09
 143  0.147  0.223  0.515- 172 1.09
 144  0.998  0.236  0.560-  31 1.08 183 1.31 189 1.32
 145  0.028  0.774  0.561-  32 1.09 184 1.31 190 1.31
 146  0.522  0.274  0.560-  29 1.09 185 1.31 187 1.32
 147  0.490  0.761  0.556-  30 1.09 186 1.31 188 1.31
 148  0.240  0.511  0.556-  33 1.09 191 1.31 195 1.31
 149  0.267  0.000  0.556-  34 1.09 194 1.31 192 1.32
 150  0.776  0.993  0.560-  35 1.09 196 1.31 193 1.31
 151  0.007  0.246  0.650-  68 1.09 197 1.31 207 1.32
 152  0.016  0.765  0.654-  69 1.09 198 1.31 208 1.32
 153  0.508  0.252  0.647-  70 1.08 199 1.31 205 1.31
 154  0.495  0.754  0.648-  71 1.08 200 1.31 206 1.31
 155  0.254  0.501  0.649-  73 1.09 210 1.31 201 1.31
 156  0.252  0.997  0.648-  72 1.09 209 1.31 202 1.32
 157  0.739  0.513  0.649-  75 1.09 212 1.31 203 1.31
 158  0.752  0.998  0.649-  74 1.08 211 1.31 204 1.31
 159  0.500  0.250  0.743- 110 1.09 221 1.31 215 1.31
 160  0.500  0.750  0.743- 111 1.09 222 1.31 216 1.31
 161  1.000  0.250  0.743- 108 1.09 223 1.31 213 1.31
 162  1.000  0.750  0.743- 109 1.09 224 1.31 214 1.31
 163  0.250  0.000  0.743- 112 1.09 225 1.31 218 1.31
 164  0.250  0.500  0.743- 113 1.09 226 1.31 217 1.31
 165  0.750  0.000  0.743- 114 1.09 227 1.31 220 1.31
 166  0.750  0.500  0.743- 115 1.09 228 1.31 219 1.31
 167  0.937  0.275  0.507- 169 1.40 168 1.41 182 1.51
 168  0.963  0.202  0.504- 139 1.09 170 1.40 167 1.41
 169  0.989  0.328  0.514- 140 1.09 167 1.40 171 1.40
 170  0.038  0.184  0.506- 141 1.10 168 1.40 172 1.41
 171  0.064  0.310  0.517- 142 1.09 172 1.39 169 1.40
 172  0.088  0.238  0.513- 143 1.09 171 1.39 170 1.41
 173  0.821  0.484  0.530- 116 1.09 117 1.09 229 1.51 177 1.53
 174  0.792  0.603  0.547- 119 1.10 118 1.10 179 1.51 229 1.52
 175  0.696  0.507  0.546- 120 1.10 121 1.10 180 1.52 229 1.53
 176  0.807  0.488  0.569- 122 1.09 123 1.10 181 1.50 229 1.52
 177  0.817  0.400  0.528- 124 1.10 125 1.10 173 1.53 178 1.54
 178  0.833  0.373  0.505- 127 1.10 126 1.10 182 1.52 177 1.54
 179  0.872  0.630  0.546- 129 1.10 128 1.10 130 1.10 174 1.51
 180  0.661  0.524  0.525- 133 1.10 132 1.10 131 1.10 175 1.52
 181  0.769  0.517  0.588- 135 1.09 134 1.09 136 1.10 176 1.50
 182  0.857  0.293  0.503- 138 1.10 137 1.11 167 1.51 178 1.52
 183  0.061  0.254  0.569-  15 1.03   8 1.03 144 1.31
 184  0.033  0.710  0.570-   9 1.02  16 1.03 145 1.31
 185  0.537  0.205  0.565-  17 1.02  10 1.03 146 1.31
 186  0.550  0.727  0.563-  18 1.02  11 1.04 147 1.31
 187  0.455  0.304  0.561-   1 1.02  22 1.03 146 1.32
 188  0.422  0.743  0.562-  23 1.02   2 1.03 147 1.31
 189  0.933  0.257  0.567-  24 1.02   3 1.03 144 1.32
 190  0.972  0.820  0.562-   4 1.02  25 1.03 145 1.31
 191  0.262  0.447  0.563-  26 1.02  19 1.03 148 1.31
 192  0.199  0.019  0.561-  27 1.01  20 1.02 149 1.32
 193  0.705  0.990  0.565-  28 1.01  21 1.02 150 1.31
 194  0.326  0.041  0.559-   5 1.02  12 1.03 149 1.31
 195  0.274  0.574  0.560-  13 1.01   6 1.03 148 1.31
 196  0.820  0.049  0.563-  14 1.02   7 1.02 150 1.31
 197  0.057  0.199  0.657-  52 1.03  44 1.03 151 1.31
 198  0.051  0.702  0.657-  45 1.02  53 1.02 152 1.31
 199  0.544  0.197  0.656-  54 1.02  46 1.03 153 1.31
 200  0.540  0.712  0.659-  47 1.01  55 1.03 154 1.31
 201  0.216  0.449  0.659-  48 1.01  56 1.03 155 1.31
 202  0.196  0.959  0.656-  49 1.01  57 1.02 156 1.32
 203  0.693  0.466  0.658-  50 1.02  58 1.03 157 1.31
 204  0.706  0.952  0.658-  51 1.02  59 1.03 158 1.31
 205  0.464  0.298  0.658-  60 1.02  36 1.02 153 1.31
 206  0.447  0.801  0.656-  61 1.02  37 1.02 154 1.31
 207  0.962  0.285  0.662-  62 1.01  38 1.02 151 1.32
 208  0.949  0.780  0.661-  63 1.02  39 1.03 152 1.32
 209  0.300  0.036  0.659-  64 1.00  40 1.03 156 1.31
 210  0.295  0.552  0.658-  65 1.02  41 1.02 155 1.31
 211  0.793  0.047  0.659-  42 1.02  66 1.02 158 1.31
 212  0.806  0.528  0.657-  67 1.01  43 1.02 157 1.31
 213  0.046  0.204  0.753-  92 1.02  84 1.02 161 1.31
 214  0.046  0.704  0.753-  93 1.02  85 1.02 162 1.31
 215  0.546  0.204  0.753-  94 1.02  86 1.02 159 1.31
 216  0.546  0.704  0.753-  95 1.02  87 1.02 160 1.31
 217  0.204  0.454  0.753-  96 1.02  88 1.02 164 1.31
 218  0.204  0.954  0.753-  97 1.02  89 1.02 163 1.31
 219  0.704  0.454  0.753-  98 1.02  90 1.02 166 1.31
 220  0.704  0.954  0.753-  99 1.02  91 1.02 165 1.31
 221  0.454  0.296  0.753-  76 1.02 100 1.02 159 1.31
 222  0.454  0.796  0.753-  77 1.02 101 1.02 160 1.31
 223  0.954  0.296  0.753-  78 1.02 102 1.02 161 1.31
 224  0.954  0.796  0.753-  79 1.02 103 1.02 162 1.31
 225  0.296  0.046  0.753-  80 1.02 104 1.02 163 1.31
 226  0.296  0.546  0.753-  81 1.02 105 1.02 164 1.31
 227  0.796  0.046  0.753-  82 1.02 106 1.02 165 1.31
 228  0.796  0.546  0.753-  83 1.02 107 1.02 166 1.31
 229  0.779  0.520  0.548- 173 1.51 176 1.52 174 1.52 175 1.53
 230  0.509  0.976  0.553- 304 3.17
 231  0.468  0.502  0.554- 305 3.15
 232  0.007  0.013  0.551- 302 3.29
 233  0.034  0.493  0.555- 303 3.14
 234  0.254  0.243  0.555- 306 3.20
 235  0.233  0.768  0.551- 307 3.26
 236  0.737  0.224  0.555- 308 3.22
 237  0.725  0.796  0.554- 309 3.22
 238  0.995  0.984  0.654- 302 3.15 310 3.19
 239  0.005  0.502  0.655- 311 3.08 303 3.20
 240  0.497  0.002  0.655- 312 3.14 304 3.23
 241  0.498  0.501  0.654- 313 3.16 305 3.18
 242  0.264  0.240  0.656- 314 3.10 306 3.10
 243  0.246  0.753  0.654- 307 3.15 315 3.20
 244  0.744  0.261  0.655- 308 3.09 316 3.10
 245  0.751  0.739  0.654- 317 3.16 309 3.16
 246  0.138  0.115  0.609- 302 3.19 306 3.24
 247  0.146  0.609  0.607- 303 3.13 307 3.22
 248  0.641  0.109  0.609- 308 3.23 304 3.26
 249  0.617  0.631  0.609- 305 3.19 309 3.37
 250  0.368  0.384  0.610- 306 3.16 305 3.19
 251  0.364  0.886  0.606- 304 3.18 307 3.19
 252  0.888  0.363  0.613- 308 3.26 303 3.39
 253  0.863  0.890  0.606- 309 3.10 302 3.25
 254  0.127  0.370  0.612- 306 3.20 303 3.27
 255  0.118  0.873  0.606- 307 3.12 302 3.22
 256  0.620  0.372  0.602- 308 3.20 305 3.20
 257  0.617  0.866  0.612- 309 3.14 304 3.15
 258  0.399  0.142  0.604- 306 3.24 304 3.26
 259  0.378  0.632  0.608- 305 3.23 307 3.31
 260  0.882  0.133  0.613- 302 3.16 308 3.25
 261  0.903  0.650  0.611- 303 3.27 309 3.42
 262  0.000  0.000  0.755- 310 3.13 318 3.27
 263  0.000  0.500  0.755- 311 3.13 319 3.27
 264  0.500  0.000  0.755- 312 3.13 320 3.27
 265  0.500  0.500  0.755- 313 3.13 321 3.27
 266  0.250  0.250  0.755- 314 3.13 322 3.27
 267  0.250  0.750  0.755- 315 3.13 323 3.27
 268  0.750  0.250  0.755- 316 3.13 324 3.27
 269  0.750  0.750  0.755- 317 3.13 325 3.27
 270  0.136  0.114  0.705- 310 3.20 314 3.20
 271  0.136  0.614  0.705- 311 3.20 315 3.20
 272  0.636  0.114  0.705- 312 3.20 316 3.20
 273  0.636  0.614  0.705- 313 3.20 317 3.20
 274  0.364  0.386  0.705- 313 3.20 314 3.20
 275  0.364  0.886  0.705- 312 3.20 315 3.20
 276  0.864  0.386  0.705- 311 3.20 316 3.20
 277  0.864  0.886  0.705- 310 3.20 317 3.20
 278  0.114  0.364  0.705- 314 3.21 311 3.21
 279  0.114  0.864  0.705- 315 3.21 310 3.21
 280  0.614  0.364  0.705- 316 3.21 313 3.21
 281  0.614  0.864  0.705- 317 3.21 312 3.21
 282  0.386  0.136  0.705- 314 3.21 312 3.21
 283  0.386  0.636  0.705- 315 3.21 313 3.21
 284  0.886  0.136  0.705- 316 3.21 310 3.21
 285  0.886  0.636  0.705- 317 3.21 311 3.21
 286  0.135  0.115  0.801- 318 3.22 322 3.22
 287  0.135  0.615  0.801- 319 3.22 323 3.22
 288  0.635  0.115  0.801- 320 3.22 324 3.22
 289  0.635  0.615  0.801- 321 3.22 325 3.22
 290  0.365  0.385  0.801- 321 3.22 322 3.22
 291  0.365  0.885  0.801- 320 3.22 323 3.22
 292  0.865  0.385  0.801- 319 3.22 324 3.22
 293  0.865  0.885  0.801- 318 3.22 325 3.22
 294  0.115  0.365  0.801- 319 3.23 322 3.23
 295  0.115  0.865  0.801- 318 3.23 323 3.23
 296  0.615  0.365  0.801- 321 3.23 324 3.23
 297  0.615  0.865  0.801- 320 3.23 325 3.23
 298  0.385  0.135  0.801- 320 3.23 322 3.23
 299  0.385  0.635  0.801- 321 3.23 323 3.23
 300  0.885  0.135  0.801- 318 3.23 324 3.23
 301  0.885  0.635  0.801- 319 3.23 325 3.23
 302  1.000  0.006  0.604- 238 3.15 260 3.16 246 3.19 255 3.22 253 3.25 232 3.29
 303  0.008  0.504  0.604- 247 3.13 233 3.14 239 3.20 254 3.27 261 3.27 252 3.39
 304  0.503  0.995  0.603- 257 3.15 230 3.17 251 3.18 240 3.23 258 3.26 248 3.26
 305  0.499  0.501  0.603- 231 3.15 241 3.18 250 3.19 249 3.19 256 3.20 259 3.23
 306  0.256  0.250  0.606- 242 3.10 250 3.16 234 3.20 254 3.20 258 3.24 246 3.24
 307  0.245  0.757  0.603- 255 3.12 243 3.15 251 3.19 247 3.22 235 3.26 259 3.31
 308  0.749  0.251  0.606- 244 3.09 256 3.20 236 3.22 248 3.23 260 3.25 252 3.26
 309  0.751  0.759  0.604- 253 3.10 257 3.14 245 3.16 237 3.22 249 3.37 261 3.42
 310  0.000  0.000  0.705- 262 3.13 238 3.19 270 3.20 277 3.20 279 3.21 284 3.21
 311  0.000  0.500  0.705- 239 3.08 263 3.13 271 3.20 276 3.20 278 3.21 285 3.21
 312  0.500  0.000  0.705- 264 3.13 240 3.14 272 3.20 275 3.20 281 3.21 282 3.21
 313  0.500  0.500  0.705- 265 3.13 241 3.16 273 3.20 274 3.20 280 3.21 283 3.21
 314  0.250  0.250  0.705- 242 3.10 266 3.13 270 3.20 274 3.20 282 3.21 278 3.21
 315  0.250  0.750  0.705- 267 3.13 243 3.20 271 3.20 275 3.20 283 3.21 279 3.21
 316  0.750  0.250  0.705- 244 3.10 268 3.13 272 3.20 276 3.20 284 3.21 280 3.21
 317  0.750  0.750  0.705- 269 3.13 245 3.16 273 3.20 277 3.20 285 3.21 281 3.21
 318  0.000  0.000  0.807- 286 3.22 293 3.22 300 3.23 295 3.23 262 3.27
 319  0.000  0.500  0.807- 287 3.22 292 3.22 301 3.23 294 3.23 263 3.27
 320  0.500  0.000  0.807- 288 3.22 291 3.22 298 3.23 297 3.23 264 3.27
 321  0.500  0.500  0.807- 289 3.22 290 3.22 299 3.23 296 3.23 265 3.27
 322  0.250  0.250  0.807- 290 3.22 286 3.22 294 3.23 298 3.23 266 3.27
 323  0.250  0.750  0.807- 291 3.22 287 3.22 299 3.23 295 3.23 267 3.27
 324  0.750  0.250  0.807- 292 3.22 288 3.22 296 3.23 300 3.23 268 3.27
 325  0.750  0.750  0.807- 293 3.22 289 3.22 297 3.23 301 3.23 269 3.27
 

IMPORTANT INFORMATION: All symmetrisations will be switched off!
NOSYMM: (Re-)initialisation of all symmetry stuff for point group C_1.


----------------------------------------------------------------------------------------

                                     Primitive cell                                     

  volume of cell :   20385.2105

  direct lattice vectors                    reciprocal lattice vectors
    18.060800552  0.000000000  0.000000000     0.055368531  0.000015077 -0.000000000
    -0.004918649 18.062799454  0.000000000     0.000000000  0.055362404  0.000000000
     0.000000000  0.000000000 62.487499237     0.000000000 -0.000000000  0.016003201

  length of vectors
    18.060800552 18.062800123 62.487499237     0.055368533  0.055362404  0.016003201

  position of ions in fractional coordinates (direct lattice)
     0.410037041  0.277747252  0.566655696
     0.412029935  0.702592547  0.573168779
     0.928849612  0.288752352  0.581126914
     0.931993285  0.814052351  0.573717778
     0.323463656  0.091648338  0.565884973
     0.317935778  0.576734016  0.569788708
     0.802067635  0.098056184  0.569408017
     0.110744720  0.240233903  0.562234463
     0.080558052  0.679817043  0.569322917
     0.591227400  0.189164956  0.565097951
     0.601809556  0.747791076  0.559053407
     0.377719438  0.020514818  0.555229034
     0.253121957  0.623161571  0.554288110
     0.874685810  0.044321012  0.558895233
     0.063012192  0.286293141  0.582665735
     0.995166068  0.693817041  0.581745507
     0.498083697  0.172139056  0.572163207
     0.548417360  0.688671799  0.575034753
     0.305740886  0.439974529  0.573079222
     0.188986128  0.066331048  0.569912329
     0.679211025  0.032623813  0.572896386
     0.450425624  0.360716888  0.558122251
     0.376845464  0.770492135  0.556315188
     0.884967900  0.238881913  0.560713773
     0.978369602  0.873063182  0.556447295
     0.233803641  0.399581436  0.558988330
     0.154808574  0.986457698  0.558416255
     0.677084424  0.942303238  0.563212198
     0.567123162  0.309569087  0.554596033
     0.496870099  0.807851525  0.545415730
     0.999548110  0.200879010  0.545970285
     0.075359884  0.790813971  0.550881362
     0.189324857  0.512495738  0.546195611
     0.274623187  0.945500990  0.548510344
     0.799269543  0.942436856  0.553243407
     0.453216166  0.293556653  0.673743827
     0.439681339  0.811300852  0.671588061
     0.960742542  0.281981232  0.678184779
     0.916677282  0.741837766  0.668753449
     0.298799508  0.041594835  0.675016481
     0.304485043  0.556248138  0.674134957
     0.794923695  0.054272435  0.675114401
     0.827336769  0.504629936  0.669989780
     0.090146871  0.170973032  0.646605525
     0.104567711  0.696926508  0.652128542
     0.576979091  0.164306834  0.646275503
     0.575085497  0.677700911  0.651156973
     0.185933479  0.412919429  0.650605593
     0.163082831  0.931421598  0.645596107
     0.642002128  0.458474396  0.651187252
     0.675997361  0.916530950  0.649105171
     0.065781267  0.187279246  0.673205023
     0.029030879  0.658028276  0.665306287
     0.543942852  0.184211541  0.671749287
     0.543306146  0.712169733  0.675320375
     0.216403075  0.443343841  0.675574332
     0.186022441  0.954133065  0.671925165
     0.702474026  0.435630968  0.671594349
     0.697514025  0.949143550  0.674733344
     0.439220939  0.340319948  0.649817410
     0.413902231  0.829932211  0.645415407
     0.925680194  0.319714456  0.654565491
     0.927033851  0.830874914  0.657803993
     0.341514926  0.062011463  0.650993366
     0.320730812  0.589569138  0.648640539
     0.827391834  0.079784787  0.650085591
     0.837008570  0.566625579  0.649060545
     0.003656188  0.252656992  0.632720607
     0.045030400  0.808464190  0.645236355
     0.514252400  0.262659015  0.630301117
     0.498097087  0.748490382  0.630569725
     0.257912724  0.995178943  0.630527419
     0.248321719  0.502370564  0.631856665
     0.756173414  0.994255466  0.631976073
     0.720301743  0.542362765  0.635186860
     0.448745018  0.301283966  0.768889017
     0.448745007  0.801283913  0.768889017
     0.948744965  0.301283966  0.768889017
     0.948745007  0.801283913  0.768889017
     0.301275995  0.051294496  0.768872961
     0.301276011  0.551294499  0.768872961
     0.801275943  0.051294496  0.768872961
     0.801275984  0.551294499  0.768872961
     0.078771004  0.171180501  0.743441971
     0.078771006  0.671180448  0.743441971
     0.578771004  0.171180501  0.743441971
     0.578770992  0.671180448  0.743441971
     0.171199499  0.421174482  0.743421032
     0.171199501  0.921174508  0.743421032
     0.671199512  0.421174482  0.743421032
     0.671199501  0.921174508  0.743421032
     0.051256000  0.198714991  0.768889017
     0.051256002  0.698714925  0.768889017
     0.551256027  0.198714991  0.768889017
     0.551256016  0.698714925  0.768889017
     0.198723491  0.448703970  0.768872046
     0.198723493  0.948703970  0.768872046
     0.698723518  0.448703970  0.768872046
     0.698723507  0.948703970  0.768872046
     0.421231519  0.328817467  0.743441971
     0.421231508  0.828817440  0.743441971
     0.921231466  0.328817467  0.743441971
     0.921231508  0.828817440  0.743441971
     0.328800503  0.078824997  0.743421032
     0.328800492  0.578824964  0.743421032
     0.828800477  0.078824997  0.743421032
     0.828800519  0.578824964  0.743421032
     0.000003500  0.250001478  0.725821992
     0.000003500  0.750001452  0.725821992
     0.500003506  0.250001478  0.725821992
     0.500003495  0.750001452  0.725821992
     0.250000502  0.000000000  0.725803983
     0.250000517  0.500000000  0.725803983
     0.750000502  0.000000000  0.725803983
     0.750000490  0.500000000  0.725803983
     0.800137448  0.508884164  0.514823674
     0.879219098  0.500533098  0.531374958
     0.763401153  0.623388231  0.532299887
     0.762422438  0.626873988  0.560348344
     0.686078549  0.449292030  0.550761038
     0.670623356  0.541326927  0.558517411
     0.798037564  0.428254442  0.567294313
     0.867211503  0.496987680  0.568963958
     0.858054160  0.376020962  0.539367707
     0.763025636  0.378003331  0.533393367
     0.782003526  0.381805056  0.495829793
     0.874800241  0.408658839  0.498007994
     0.898499052  0.619023551  0.530645808
     0.906834719  0.605814938  0.558661116
     0.870140591  0.689987782  0.548410592
     0.600482027  0.515529336  0.526748789
     0.679766437  0.487189693  0.511658429
     0.667748421  0.581485493  0.519594465
     0.709081425  0.506928959  0.588158471
     0.778933779  0.576032757  0.590902612
     0.791751703  0.486537008  0.601937045
     0.822637058  0.255734042  0.513387046
     0.844030391  0.275227746  0.486697504
     0.924248839  0.160010909  0.498468657
     0.972455417  0.384157669  0.517758282
     0.055891232  0.126992783  0.503675143
     0.101118259  0.352475853  0.522845054
     0.146535890  0.223467887  0.515493730
     0.998143737  0.236131944  0.559994818
     0.028112351  0.774225460  0.560724273
     0.521553948  0.274411123  0.559918021
     0.490282709  0.761358607  0.556433864
     0.239912940  0.511290947  0.555747265
     0.266686387  0.000064337  0.555791036
     0.775911882  0.992610653  0.560210926
     0.007294832  0.245657891  0.650032358
     0.016142663  0.765177518  0.654040057
     0.508206259  0.252470220  0.647306898
     0.495118337  0.753932399  0.647781053
     0.253616665  0.501076176  0.649160907
     0.252286216  0.996729577  0.647813164
     0.739328858  0.513439602  0.649406684
     0.752175594  0.997704266  0.649242833
     0.499988984  0.249994984  0.743277021
     0.499989025  0.749994958  0.743277021
     0.999988984  0.249994984  0.743277021
     0.999989025  0.749994958  0.743277021
     0.250000502  0.000001000  0.743255960
     0.250000517  0.500001003  0.743255960
     0.750000502  0.000001000  0.743255960
     0.750000491  0.500001003  0.743255960
     0.937295050  0.274936408  0.507405748
     0.963132151  0.202068028  0.503830875
     0.988786075  0.327543247  0.514225105
     0.037697565  0.184018130  0.506496203
     0.063525934  0.309813884  0.517091401
     0.088479574  0.238282263  0.513159889
     0.821221975  0.484134343  0.529519485
     0.792134084  0.603367554  0.546643393
     0.695871072  0.506875845  0.546066923
     0.807103891  0.487622001  0.568686803
     0.817134931  0.399804189  0.528310808
     0.832642095  0.372959725  0.505377571
     0.871635969  0.629619680  0.546106603
     0.660594985  0.523775756  0.524597113
     0.768814609  0.517076150  0.588307976
     0.856783306  0.292537657  0.503155752
     0.060956968  0.254481099  0.569072928
     0.033021910  0.710209355  0.570436238
     0.536661687  0.205426477  0.564963586
     0.550077897  0.727341153  0.563179965
     0.454948616  0.304481078  0.560529654
     0.422480976  0.743035165  0.561831489
     0.933329916  0.257448937  0.567350354
     0.971930895  0.820125777  0.562288063
     0.261771624  0.446519253  0.562812704
     0.199100108  0.019365610  0.561288046
     0.705236710  0.990472085  0.564957298
     0.325856345  0.040952142  0.558730039
     0.273630870  0.574454106  0.559538489
     0.820171745  0.049162502  0.563004942
     0.056567050  0.198677175  0.657268058
     0.051111078  0.702463456  0.657349312
     0.544239337  0.196985101  0.655802983
     0.540155536  0.712241855  0.658897535
     0.216419687  0.449179254  0.659245260
     0.196423949  0.958840363  0.655875446
     0.692929111  0.465925788  0.657979016
     0.705957698  0.951529650  0.658479604
     0.464465641  0.298003803  0.657762237
     0.447025191  0.800880909  0.655622282
     0.961603861  0.284870428  0.661886963
     0.948555788  0.779735323  0.660661315
     0.300450760  0.036287749  0.658684235
     0.295186377  0.551543493  0.658099951
     0.793405769  0.046777234  0.658968960
     0.805632416  0.528345925  0.656625718
     0.045862501  0.204119496  0.752725994
     0.045862500  0.704119456  0.752725994
     0.545862507  0.204119496  0.752725994
     0.545862496  0.704119456  0.752725994
     0.204119002  0.454101003  0.752704994
     0.204118991  0.954100951  0.752704994
     0.704118976  0.454101003  0.752704994
     0.704118964  0.954100951  0.752704994
     0.454140018  0.295888490  0.752726971
     0.454140007  0.795888516  0.752726971
     0.954140018  0.295888490  0.752726971
     0.954140060  0.795888516  0.752726971
     0.295882492  0.045900498  0.752704994
     0.295882481  0.545900528  0.752704994
     0.795882439  0.045900498  0.752704994
     0.795882481  0.545900528  0.752704994
     0.779363892  0.520103148  0.547725396
     0.509366857  0.975895801  0.552608575
     0.467533707  0.502246912  0.553760905
     0.007276239  0.012642779  0.551426393
     0.033806617  0.493270774  0.554588952
     0.254391347  0.242625586  0.554854813
     0.232511418  0.767920147  0.551335127
     0.736699299  0.224174980  0.555206690
     0.724900153  0.796409682  0.554310332
     0.995283928  0.984393273  0.654038836
     0.005082255  0.501977908  0.655486208
     0.497015323  0.001711570  0.654602547
     0.498414239  0.500556329  0.654258912
     0.263874656  0.240214183  0.655518013
     0.245609779  0.753349882  0.653663883
     0.743558028  0.260712680  0.655303432
     0.750952874  0.739135315  0.654369774
     0.137895595  0.114995706  0.608880573
     0.146244430  0.608928947  0.606846230
     0.641103892  0.108717400  0.608947908
     0.616579937  0.630928746  0.608999310
     0.367877928  0.384110547  0.609702942
     0.364404407  0.886098565  0.605690848
     0.888041258  0.363289509  0.612848224
     0.862733218  0.889746359  0.605500746
     0.126601035  0.369959496  0.611644492
     0.117508384  0.872815878  0.606401500
     0.619659021  0.371518691  0.602144179
     0.616507200  0.866216059  0.612350383
     0.398504299  0.141837847  0.604319541
     0.378329541  0.632080528  0.607694422
     0.882079206  0.132547022  0.612898405
     0.903211785  0.649720716  0.611078278
     0.000000000  0.000000000  0.754927972
     0.000000000  0.500000000  0.754927972
     0.500000000  0.000000000  0.754927972
     0.499999989  0.500000000  0.754927972
     0.250000496  0.250000000  0.754939022
     0.250000511  0.749999974  0.754939022
     0.750000470  0.250000000  0.754939022
     0.750000458  0.749999974  0.754939022
     0.135790500  0.114209997  0.704782994
     0.135790502  0.614209984  0.704782994
     0.635790447  0.114209997  0.704782994
     0.635790488  0.614209984  0.704782994
     0.364209516  0.385789989  0.704782994
     0.364209505  0.885789963  0.704782994
     0.864209542  0.385789989  0.704782994
     0.864209531  0.885789963  0.704782994
     0.114217990  0.364218986  0.704780979
     0.114217992  0.864218986  0.704780979
     0.614218004  0.364218986  0.704780979
     0.614217992  0.864218986  0.704780979
     0.385782012  0.135781489  0.704782017
     0.385782001  0.635781489  0.704782017
     0.885781985  0.135781489  0.704782017
     0.885782027  0.635781489  0.704782017
     0.134667000  0.115332001  0.801256025
     0.134666989  0.615331988  0.801256025
     0.634666987  0.115332001  0.801256025
     0.634666976  0.615331988  0.801256025
     0.365333002  0.384667985  0.801256025
     0.365332990  0.884667959  0.801256025
     0.865332949  0.384667985  0.801256025
     0.865332938  0.884667959  0.801256025
     0.115328503  0.365337004  0.801264999
     0.115328505  0.865336978  0.801264999
     0.615328503  0.365337004  0.801264999
     0.615328492  0.865336978  0.801264999
     0.384671513  0.134662996  0.801264999
     0.384671501  0.634662970  0.801264999
     0.884671486  0.134662996  0.801264999
     0.884671528  0.634662970  0.801264999
     0.999515215  0.006416126  0.604056243
     0.008171147  0.504173183  0.604257456
     0.502717052  0.994543370  0.602958551
     0.498514585  0.500823063  0.603427211
     0.255803596  0.250158235  0.605977892
     0.244863209  0.756619327  0.603218613
     0.748641320  0.251211786  0.605968064
     0.750797713  0.759402716  0.604137131
     0.000000500  0.000000500  0.704828963
     0.000000500  0.500000475  0.704828963
     0.500000475  0.000000500  0.704828963
     0.500000464  0.500000475  0.704828963
     0.249999994  0.249999472  0.704824995
     0.250000010  0.749999498  0.704824995
     0.749999994  0.249999472  0.704824995
     0.749999983  0.749999498  0.704824995
     0.000000000  0.000000000  0.807317968
     0.000000000  0.500000000  0.807317968
     0.500000000  0.000000000  0.807317968
     0.499999989  0.500000000  0.807317968
     0.249999994  0.250000000  0.807317968
     0.250000010  0.749999974  0.807317968
     0.749999994  0.250000000  0.807317968
     0.749999983  0.749999974  0.807317968

  ion indices of the primitive-cell ions
   primitive index   ion index
                 1           1
                 2           2
                 3           3
                 4           4
                 5           5
                 6           6
                 7           7
                 8           8
                 9           9
                10          10
                11          11
                12          12
                13          13
                14          14
                15          15
                16          16
                17          17
                18          18
                19          19
                20          20
                21          21
                22          22
                23          23
                24          24
                25          25
                26          26
                27          27
                28          28
                29          29
                30          30
                31          31
                32          32
                33          33
                34          34
                35          35
                36          36
                37          37
                38          38
                39          39
                40          40
                41          41
                42          42
                43          43
                44          44
                45          45
                46          46
                47          47
                48          48
                49          49
                50          50
                51          51
                52          52
                53          53
                54          54
                55          55
                56          56
                57          57
                58          58
                59          59
                60          60
                61          61
                62          62
                63          63
                64          64
                65          65
                66          66
                67          67
                68          68
                69          69
                70          70
                71          71
                72          72
                73          73
                74          74
                75          75
                76          76
                77          77
                78          78
                79          79
                80          80
                81          81
                82          82
                83          83
                84          84
                85          85
                86          86
                87          87
                88          88
                89          89
                90          90
                91          91
                92          92
                93          93
                94          94
                95          95
                96          96
                97          97
                98          98
                99          99
               100         100
               101         101
               102         102
               103         103
               104         104
               105         105
               106         106
               107         107
               108         108
               109         109
               110         110
               111         111
               112         112
               113         113
               114         114
               115         115
               116         116
               117         117
               118         118
               119         119
               120         120
               121         121
               122         122
               123         123
               124         124
               125         125
               126         126
               127         127
               128         128
               129         129
               130         130
               131         131
               132         132
               133         133
               134         134
               135         135
               136         136
               137         137
               138         138
               139         139
               140         140
               141         141
               142         142
               143         143
               144         144
               145         145
               146         146
               147         147
               148         148
               149         149
               150         150
               151         151
               152         152
               153         153
               154         154
               155         155
               156         156
               157         157
               158         158
               159         159
               160         160
               161         161
               162         162
               163         163
               164         164
               165         165
               166         166
               167         167
               168         168
               169         169
               170         170
               171         171
               172         172
               173         173
               174         174
               175         175
               176         176
               177         177
               178         178
               179         179
               180         180
               181         181
               182         182
               183         183
               184         184
               185         185
               186         186
               187         187
               188         188
               189         189
               190         190
               191         191
               192         192
               193         193
               194         194
               195         195
               196         196
               197         197
               198         198
               199         199
               200         200
               201         201
               202         202
               203         203
               204         204
               205         205
               206         206
               207         207
               208         208
               209         209
               210         210
               211         211
               212         212
               213         213
               214         214
               215         215
               216         216
               217         217
               218         218
               219         219
               220         220
               221         221
               222         222
               223         223
               224         224
               225         225
               226         226
               227         227
               228         228
               229         229
               230         230
               231         231
               232         232
               233         233
               234         234
               235         235
               236         236
               237         237
               238         238
               239         239
               240         240
               241         241
               242         242
               243         243
               244         244
               245         245
               246         246
               247         247
               248         248
               249         249
               250         250
               251         251
               252         252
               253         253
               254         254
               255         255
               256         256
               257         257
               258         258
               259         259
               260         260
               261         261
               262         262
               263         263
               264         264
               265         265
               266         266
               267         267
               268         268
               269         269
               270         270
               271         271
               272         272
               273         273
               274         274
               275         275
               276         276
               277         277
               278         278
               279         279
               280         280
               281         281
               282         282
               283         283
               284         284
               285         285
               286         286
               287         287
               288         288
               289         289
               290         290
               291         291
               292         292
               293         293
               294         294
               295         295
               296         296
               297         297
               298         298
               299         299
               300         300
               301         301
               302         302
               303         303
               304         304
               305         305
               306         306
               307         307
               308         308
               309         309
               310         310
               311         311
               312         312
               313         313
               314         314
               315         315
               316         316
               317         317
               318         318
               319         319
               320         320
               321         321
               322         322
               323         323
               324         324
               325         325

----------------------------------------------------------------------------------------

 
 
 KPOINTS: Automatic Mesh                          

Automatic generation of k-mesh.
 Grid dimensions read from file:
 generate k-points for:    3    3    1

 Generating k-lattice:

  Cartesian coordinates                     Fractional coordinates (reciprocal lattice)
     0.018456177  0.000005026 -0.000000000     0.333333333  0.000000000  0.000000000
     0.000000000  0.018454135  0.000000000     0.000000000  0.333333333  0.000000000
     0.000000000 -0.000000000  0.016003201     0.000000000  0.000000000  1.000000000

  Length of vectors
     0.018456178  0.018454135  0.016003201

  Shift w.r.t. Gamma in fractional coordinates (k-lattice)
     0.000000000  0.000000000  0.000000000

 
 Subroutine IBZKPT returns following result:
 ===========================================
 
 Found      5 irreducible k-points:
 
 Following reciprocal coordinates:
            Coordinates               Weight
  0.000000  0.000000  0.000000      1.000000
  0.333333  0.000000  0.000000      2.000000
  0.000000  0.333333  0.000000      2.000000
  0.333333  0.333333  0.000000      2.000000
 -0.333333  0.333333  0.000000      2.000000
 
 Following cartesian coordinates:
            Coordinates               Weight
  0.000000  0.000000  0.000000      1.000000
  0.018456  0.000005  0.000000      2.000000
  0.000000  0.018454  0.000000      2.000000
  0.018456  0.018459  0.000000      2.000000
 -0.018456  0.018449  0.000000      2.000000
 


--------------------------------------------------------------------------------------------------------




 Dimension of arrays:
   k-points           NKPTS =      5   k-points in BZ     NKDIM =      5   number of bands    NBANDS=    732
   number of dos      NEDOS =    301   number of ions     NIONS =    325
   non local maximal  LDIM  =      5   non local SUM 2l+1 LMDIM =     13
   total plane-waves  NPLWV = ******
   max r-space proj   IRMAX =   3336   max aug-charges    IRDMAX=  19845
   dimension x,y,z NGX =   100 NGY =  100 NGZ =  350
   dimension x,y,z NGXF=   200 NGYF=  200 NGZF=  700
   support grid    NGXF=   200 NGYF=  200 NGZF=  700
   ions per type =             143  39  47  72  24
   NGX,Y,Z   is equivalent  to a cutoff of   9.20,  9.20,  9.31 a.u.
   NGXF,Y,Z  is equivalent  to a cutoff of  18.41, 18.41, 18.62 a.u.

 SYSTEM =  PSC                                     
 POSCAR =   H  C  N  I Pb                          

 Startparameter for this run:
   NWRITE =      2    write-flag & timer
   PREC   = normal    normal or accurate (medium, high low for compatibility)
   ISTART =      0    job   : 0-new  1-cont  2-samecut
   ICHARG =      1    charge: 1-file 2-atom 10-const
   ISPIN  =      1    spin polarized calculation?
   LNONCOLLINEAR =      F non collinear calculations
   LSORBIT =      F    spin-orbit coupling
   INIWAV =      1    electr: 0-lowe 1-rand  2-diag
   LASPH  =      F    aspherical Exc in radial PAW
 Electronic Relaxation 1
   ENCUT  =  500.0 eV  36.75 Ry    6.06 a.u.  32.93 32.93113.93*2*pi/ulx,y,z
   ENINI  =  500.0     initial cutoff
   ENAUG  =  644.9 eV  augmentation charge cutoff
   NELM   =    600;   NELMIN=  2; NELMDL=  0     # of ELM steps 
   EDIFF  = 0.1E-03   stopping-criterion for ELM
   LREAL  =      T    real-space projection
   NLSPLINE    = F    spline interpolate recip. space projectors
   LCOMPAT=      F    compatible to vasp.4.4
   GGA_COMPAT  = F    GGA compatible to vasp.4.4-vasp.4.6
   LMAXPAW     = -100 max onsite density
   LMAXMIX     =    2 max onsite mixed and CHGCAR
   VOSKOWN=      0    Vosko Wilk Nusair interpolation
   ROPT   =   -0.00050  -0.00050  -0.00050  -0.00050
   ROPT   =   -0.00050
 Ionic relaxation
   EDIFFG = 0.1E-02   stopping-criterion for IOM
   NSW    =      0    number of steps for IOM
   NBLOCK =      1;   KBLOCK =      1    inner block; outer block 
   IBRION =     -1    ionic relax: 0-MD 1-quasi-New 2-CG
   NFREE  =      0    steps in history (QN), initial steepest desc. (CG)
   ISIF   =      2    stress and relaxation
   IWAVPR =     10    prediction:  0-non 1-charg 2-wave 3-comb
   ISYM   =      0    0-nonsym 1-usesym 2-fastsym
   LCORR  =      T    Harris-Foulkes like correction to forces

   POTIM  = 0.5000    time-step for ionic-motion
   TEIN   =    0.0    initial temperature
   TEBEG  =    0.0;   TEEND  =   0.0 temperature during run
   SMASS  =  -3.00    Nose mass-parameter (am)
   estimated Nose-frequenzy (Omega)   =  0.10E-29 period in steps = 0.13E+47 mass=  -0.745E-26a.u.
   SCALEE = 1.0000    scale energy and forces
   NPACO  =    256;   APACO  = 16.0  distance and # of slots for P.C.
   PSTRESS=    0.0 pullay stress

  Mass of Ions in am
   POMASS =   1.00 12.01 14.00126.90207.20
  Ionic Valenz
   ZVAL   =   1.00  4.00  5.00  7.00  4.00
  Atomic Wigner-Seitz radii
   RWIGS  =  -1.00 -1.00 -1.00 -1.00 -1.00
  virtual crystal weights 
   VCA    =   1.00  1.00  1.00  1.00  1.00
   NELECT =    1134.0000    total number of electrons
   NUPDOWN=      -1.0000    fix difference up-down

 DOS related values:
   EMIN   =  10.00;   EMAX   =-10.00  energy-range for DOS
   EFERMI =   0.00
   ISMEAR =     0;   SIGMA  =   0.05  broadening in eV -4-tet -1-fermi 0-gaus

 Electronic relaxation 2 (details)
   IALGO  =     38    algorithm
   LDIAG  =      T    sub-space diagonalisation (order eigenvalues)
   LSUBROT=      F    optimize rotation matrix (better conditioning)
   TURBO    =      0    0=normal 1=particle mesh
   IRESTART =      0    0=no restart 2=restart with 2 vectors
   NREBOOT  =      0    no. of reboots
   NMIN     =      0    reboot dimension
   EREF     =   0.00    reference energy to select bands
   IMIX   =      4    mixing-type and parameters
     AMIX     =   0.40;   BMIX     =  0.01
     AMIX_MAG =   1.60;   BMIX_MAG =  0.01
     AMIN     =   0.01
     WC   =   100.;   INIMIX=   1;  MIXPRE=   1;  MAXMIX= -45

 Intra band minimization:
   WEIMIN = 0.0000     energy-eigenvalue tresh-hold
   EBREAK =  0.34E-07  absolut break condition
   DEPER  =   0.30     relativ break condition  

   TIME   =   0.40     timestep for ELM

  volume/ion in A,a.u.               =      62.72       423.28
  Fermi-wavevector in a.u.,A,eV,Ry     =   0.624944  1.180972  5.313816  0.390554
  Thomas-Fermi vector in A             =   1.685677
 
 Write flags
   LWAVE        =      F    write WAVECAR
   LDOWNSAMPLE  =      F    k-point downsampling of WAVECAR
   LCHARG       =      T    write CHGCAR
   LVTOT        =      T    write LOCPOT, total local potential
   LVHAR        =      F    write LOCPOT, Hartree potential only
   LELF         =      F    write electronic localiz. function (ELF)
   LORBIT       =      0    0 simple, 1 ext, 2 COOP (PROOUT), +10 PAW based schemes


 Dipole corrections
   LMONO  =      F    monopole corrections only (constant potential shift)
   LDIPOL =      T    correct potential (dipole corrections)
   IDIPOL =      3    1-x, 2-y, 3-z, 4-all directions 
   EPSILON=  1.0000000 bulk dielectric constant

 Exchange correlation treatment:
   GGA     =    --    GGA type
   LEXCH   =     8    internal setting for exchange type
   VOSKOWN=      0    Vosko Wilk Nusair interpolation
   LHFCALC =     F    Hartree Fock is set to
   LHFONE  =     F    Hartree Fock one center treatment
   AEXX    =    0.0000 exact exchange contribution

 Linear response parameters
   LEPSILON=     F    determine dielectric tensor
   LRPA    =     F    only Hartree local field effects (RPA)
   LNABLA  =     F    use nabla operator in PAW spheres
   LVEL    =     F    velocity operator in full k-point grid
   LINTERFAST=   F  fast interpolation
   KINTER  =     0    interpolate to denser k-point grid
   CSHIFT  =0.1000    complex shift for real part using Kramers Kronig
   OMEGAMAX=  -1.0    maximum frequency
   DEG_THRESHOLD= 0.2000000E-02 threshold for treating states as degnerate
   RTIME   =   -0.100 relaxation time in fs
  (WPLASMAI=    0.000 imaginary part of plasma frequency in eV, 0.658/RTIME)
   DFIELD  = 0.0000000 0.0000000 0.0000000 field for delta impulse in time
 
 Orbital magnetization related:
   ORBITALMAG=     F  switch on orbital magnetization
   LCHIMAG   =     F  perturbation theory with respect to B field
   DQ        =  0.001000  dq finite difference perturbation B field
   LLRAUG    =     F  two centre corrections for induced B field



--------------------------------------------------------------------------------------------------------


 Static calculation
 charge density and potential will be updated during run
 non-spin polarized calculation
 Variant of blocked Davidson
 Davidson routine will perform the subspace rotation
 perform sub-space diagonalisation
    after iterative eigenvector-optimisation
 modified Broyden-mixing scheme, WC =      100.0
 initial mixing is a Kerker type mixing with AMIX =  0.4000 and BMIX =      0.0100
 Hartree-type preconditioning will be used
 using additional bands           165
 real space projection scheme for non local part
[...]
     13.54561      0.00000     45.35368         0.004137     -0.007896      0.011545
     13.54315      9.03140     45.35368        -0.007113      0.005866      0.000985
     14.44862      9.19187     32.17004        -0.110120      0.164951     -0.186286
     15.87694      9.04103     33.20429         0.081103      0.074676      0.040578
     13.78457     11.26014     33.26209        -0.041091     -0.109351      0.033622
     13.76688     11.32310     35.01477         0.025218     -0.035407      0.015167
     12.38892      8.11547     34.41568         0.046873     -0.098340      0.001768
     12.10933      9.77788     34.90036         0.028125      0.050744      0.004591
     14.41109      7.73547     35.44880        -0.020229     -0.296682     -0.001037
     15.66009      8.97699     35.55313        -0.008906      0.015922     -0.007420
     15.49530      6.79199     33.70374         0.002202     -0.027439      0.007015
     13.77899      6.82780     33.33042         0.031522      0.043682      0.005644
     14.12173      6.89647     30.98316         0.050760     -0.035956      0.022878
     15.79758      7.38152     31.11927         0.121056      0.070514     -0.077335
     16.22457     11.18130     33.15873        -0.001750      0.002244      0.036737
     16.37518     10.94271     34.90934        -0.102374      0.020848      0.003662
     15.71204     12.46311     34.26881        -0.031200     -0.041035     -0.007526
     10.84265      9.31190     32.91521         0.139946     -0.049188     -0.054518
     12.27473      8.80001     31.97226        -0.054866      0.022767      0.083264
     12.05721     10.50326     32.46816         0.049494      0.047474     -0.012897
     12.80408      9.15656     36.75255         0.040853     -0.066056      0.032184
     14.06533     10.40476     36.92403         0.040788      0.007073      0.036682
     14.29728      8.78822     37.61354         0.014746      0.047090      0.073134
     14.85623      4.61927     32.08027        -0.017424      0.213363     -0.057581
     15.24251      4.97138     30.41251         0.048443     -0.096023     -0.100174
     16.69189      2.89024     31.14806        -0.114021     -0.143314     -0.017397
     17.56143      6.93896     32.35342        -0.122552      0.104943     -0.002563
      1.00882      2.29385     31.47340        -0.007238      0.162084      0.019699
      1.82454      6.36670     32.67128         0.088642      0.052527      0.016183
      2.64546      4.03646     32.21191        -0.028490      0.073491     -0.005580
     18.02611      4.26520     34.99268        -0.138522      0.150905      0.327504
      0.50392     13.98468     35.03826         0.195344      0.113625      0.044588
      9.41833      4.95663     34.98788        -0.428769      0.095751      0.075928
      8.85115     13.75227     34.77016        -0.073718     -0.046693     -0.154517
      4.33050      9.23535     34.72726        -0.029342      0.204300     -0.117517
      4.81657      0.00116     34.72999         0.073468     -0.141283      0.073172
     14.00871     17.92933     35.00618         0.042459     -0.194115     -0.035261
      0.13054      4.43727     40.61890        -0.050543      0.020245      0.081949
      0.28779     13.82125     40.86933        -0.172721     -0.275252      0.335839
      9.17737      4.56032     40.44859        -0.254420      0.204567      0.257292
      8.93853     13.61813     40.47822        -0.092837      0.043700      0.157816
      4.57806      9.05084     40.56444        -0.256553     -0.288579      0.070121
      4.55159     18.00373     40.48022        -0.297556     -0.051057      0.257632
     13.35035      9.27416     40.57980        -0.303896     -0.376433      0.277593
     13.57999     18.02133     40.56956        -0.258557     -0.229769      0.181834
      9.02897      4.51561     46.44552         0.012317      0.001483      0.030161
      9.02651     13.54701     46.44552         0.025716     -0.009092      0.043250
     18.05937      4.51561     46.44552         0.013326      0.004538      0.044620
     18.05691     13.54701     46.44552         0.017613      0.000533      0.004868
      4.51521      0.00002     46.44421        -0.000831     -0.002999      0.060471
      4.51275      9.03142     46.44421        -0.008311     -0.006369      0.035350
     13.54561      0.00002     46.44421        -0.008951     -0.010534      0.035001
     13.54315      9.03142     46.44421        -0.007913     -0.002731      0.026737
     16.92695      4.96612     31.70652         0.187632     -0.264372     -0.088158
     17.39394      3.64991     31.48313         0.042727      0.351051      0.027849
     17.85666      5.91635     32.13264         0.111807      0.125573      0.050397
      0.67994      3.32388     31.64968         0.030203     -0.016493      0.062969
      1.14581      5.59611     32.31175        -0.071041     -0.064457     -0.020325
      1.59684      4.30404     32.06608         0.018094     -0.356562     -0.165569
     14.82955      8.74482     33.08835        -0.029171     -0.300206     -0.011860
     14.30361     10.89851     34.15838        -0.163535      0.143030      0.085577
     12.56550      9.15560     34.12236         0.013393      0.039855     -0.008872
     14.57454      8.80782     35.53582        -0.024860      0.160349     -0.064703
     14.75614      7.22158     33.01282        -0.001422     -0.149303      0.101913
     15.03635      6.73670     31.57978        -0.133298      0.323420      0.048841
     15.73935     11.37269     34.12484         0.174484     -0.001234     -0.001885
     11.92830      9.46086     32.78076        -0.063623     -0.091658     -0.066554
     13.88286      9.33984     36.76189        -0.093112     -0.017981     -0.058856
     15.47275      5.28405     31.44094        -0.179086     -0.322634      0.092587
      1.09968      4.59664     35.55994         0.082528     -0.113894     -0.140266
      0.59291     12.82837     35.64513         0.140132     -0.059433     -0.083273
      9.69153      3.71058     35.30316         0.287190      0.007326     -0.038131
      9.93127     13.13782     35.19171        -0.044469      0.299827     -0.202013
      8.21524      5.49978     35.02610         0.420066      0.043194      0.022152
      7.62669     13.42130     35.10744        -0.038111     -0.294998      0.289277
     16.85542      4.65025     35.45230         0.007868     -0.066370     -0.023495
     17.54982     14.81377     35.13597         0.048235      0.144868     -0.115728
      4.72561      8.06539     35.16876         0.231282      0.063377      0.207608
      3.59581      0.34980     35.07349         0.427689      0.134364     -0.011235
     12.73227     17.89070     35.30277         0.048298      0.361917      0.144284
      5.88503      0.73971     34.91364        -0.132648     -0.039220     -0.102095
      4.93917     10.37625     34.96416         0.331260     -0.836314      0.343597
     14.81272      0.88801     35.18077        -0.289291      0.143448      0.070167
      1.02067      3.58867     41.07104         0.347771     -0.311122      0.062739
      0.91965     12.68846     41.07611         0.077772     -0.058244     -0.080483
      9.82843      3.55810     40.97949         0.311544     -0.316925     -0.030943
      9.75214     12.86508     41.17286         0.020293      0.026696      0.784372
      3.90650      8.11343     41.19459         0.303210      0.293484      0.490772
      3.54286     17.31934     40.98402         0.673556      0.450879      0.315633
     12.51256      8.41592     41.11546         0.045867     -0.140380      0.028166
     12.74548     17.18729     41.14674         0.172318      0.184382      0.449258
      8.38716      5.38278     41.10192        -0.030909     -0.035181      0.174436
      8.06969     14.46615     40.96820        -0.152271      0.126381      0.149634
     17.36593      5.14556     41.35966         0.335689     -0.289276      0.101425
     17.12784     14.08420     41.28307         0.032886     -0.146195     -0.041883
      5.42620      0.65546     41.15953        -0.895657     -0.545619      0.565564
      5.32859      9.96242     41.12302         0.155705      0.173629      0.064483
     14.32931      0.84493     41.17732         0.117439      0.153793      0.132503
     14.54777      9.54341     41.03090         0.069063     -0.002174      0.111157
      0.82731      3.68697     47.03596         0.019113     -0.025501     -0.096820
      0.82485     12.71837     47.03596         0.021120     -0.019793     -0.061378
      9.85771      3.68697     47.03596         0.021951     -0.022180     -0.082957
      9.85525     12.71837     47.03596         0.007954     -0.012134     -0.081399
      3.68432      8.20234     47.03465        -0.006692     -0.011545     -0.069273
      3.68186     17.23373     47.03465        -0.008736     -0.005560     -0.066351
     12.71472      8.20234     47.03465        -0.007304     -0.011735     -0.060068
     12.71226     17.23373     47.03465        -0.010428     -0.005559     -0.070818
      8.20068      5.34457     47.03603        -0.022247      0.020737     -0.085001
      8.19822     14.37597     47.03603        -0.029392      0.025098     -0.085799
     17.23108      5.34457     47.03603        -0.024484      0.018241     -0.105038
     17.22862     14.37597     47.03603        -0.023369      0.025513     -0.065602
      5.34365      0.82909     47.03465         0.007749      0.011136     -0.073240
      5.34119      9.86049     47.03465         0.019030      0.016385     -0.062768
     14.37405      0.82909     47.03465         0.018085      0.020763     -0.067115
     14.37159      9.86049     47.03465         0.019618      0.017440     -0.070289
     14.07338      9.39452     34.22599        -0.032305      0.111491     -0.258808
      9.19477     17.62741     34.53113        -0.001175      0.042911      0.042495
      8.44156      9.07199     34.60313         0.029487      0.033221      0.007967
      0.13135      0.22836     34.45726        -0.023500     -0.006749     -0.008249
      0.60815      8.90985     34.65488        -0.074154     -0.044336     -0.001786
      4.59332      4.38250     34.67149         0.045112     -0.000222     -0.013635
      4.19557     13.87079     34.45155        -0.022408      0.029499     -0.039053
     13.30428      4.04923     34.69348        -0.014074      0.066389     -0.044366
     13.08836     14.38539     34.63747         0.188732     -0.084486     -0.124601
     17.97078     17.78090     40.86925        -0.003496      0.004834      0.028158
      0.08932      9.06713     40.95969         0.016232      0.016418     -0.052203
      8.97649      0.03092     40.90448         0.008835      0.005964     -0.021307
      8.99930      9.04145     40.88300        -0.051169      0.020221      0.030706
      4.76461      4.33894     40.96168        -0.016628     -0.007412     -0.016225
      4.43220     13.60761     40.84582         0.014603      0.014834      0.021978
     13.42797      4.70920     40.94827        -0.006816     -0.001331      0.046130
     13.55917     13.35085     40.88993        -0.004732     -0.009423      0.019278
      2.48994      2.07714     38.04742         0.000607      0.022479      0.009681
      2.63830     10.99896     37.92030        -0.001666      0.001581      0.024334
     11.57831      1.96374     38.05163        -0.014537      0.038760      0.003647
     11.13282     11.39634     38.05484         0.046666      0.057752     -0.052820
      6.64228      6.93811     38.09881        -0.017307      0.016513     -0.023174
      6.57708     16.00542     37.84811        -0.006272     -0.014519      0.018311
     16.03695      6.56203     38.29535         0.007616      0.165921     -0.090043
     15.57728     16.07131     37.83623         0.029213      0.021426      0.019904
      2.28470      6.68250     38.22013        -0.032924     -0.020139      0.001037
      2.11800     15.76550     37.89251        -0.031039      0.023122     -0.014436
     11.18971      6.71067     37.62648        -0.026594     -0.014960     -0.003219
     11.13035     15.64629     38.26424         0.049242     -0.054497     -0.001378
      7.19661      2.56199     37.76242        -0.013174      0.005085     -0.022623
      6.82983     11.41714     37.97330        -0.022595      0.027560     -0.012502
     15.93040      2.39417     38.29849         0.031423      0.041266     -0.032538
     16.30953     11.73577     38.18475         0.053553      0.043470     -0.098217
      0.00000      0.00000     47.17356         0.001360      0.005611      0.357641
     -0.00246      9.03140     47.17356        -0.003593     -0.004062      0.482459
      9.03040      0.00000     47.17356        -0.000689     -0.001767      0.451281
      9.02794      9.03140     47.17356        -0.003819      0.000221      0.408376
      4.51398      4.51570     47.17425        -0.001028     -0.005004      0.446736
      4.51152     13.54710     47.17425         0.003693      0.002559      0.349764
     13.54438      4.51570     47.17425         0.004046      0.000887      0.428925
     13.54192     13.54710     47.17425        -0.000034     -0.002054      0.407149
      2.45192      2.06295     44.04013         0.004902     -0.033849     -0.037823
      2.44946     11.09435     44.04013         0.053180     -0.019657     -0.000092
     11.48232      2.06295     44.04013        -0.001991      0.002059     -0.069029
     11.47986     11.09435     44.04013        -0.059689      0.024502     -0.019127
      6.57602      6.96845     44.04013        -0.010039     -0.011765     -0.051897
      6.57356     15.99985     44.04013         0.011431     -0.016830     -0.052818
     15.60642      6.96845     44.04013        -0.037649      0.047740     -0.068060
     15.60396     15.99985     44.04013        -0.049932      0.046239     -0.004322
      2.06108      6.57881     44.04000         0.026123     -0.047113     -0.039788
      2.05862     15.61021     44.04000         0.054525      0.072556     -0.031318
     11.09148      6.57881     44.04000         0.003541      0.010377     -0.018526
     11.08902     15.61021     44.04000        -0.012354     -0.008802     -0.040727
      6.96686      2.45259     44.04007         0.029107     -0.014402      0.003478
      6.96440     11.48399     44.04007        -0.003779      0.014904     -0.044651
     15.99726      2.45259     44.04007         0.017781      0.019510     -0.049378
     15.99481     11.48399     44.04007         0.023697      0.003778     -0.089133
      2.43163      2.08322     50.06849         0.002930     -0.016284      0.021994
      2.42917     11.11462     50.06849         0.019928     -0.001629      0.026437
     11.46203      2.08322     50.06849         0.011457     -0.009061      0.023953
     11.45957     11.11462     50.06849         0.008796     -0.010764      0.025207
      6.59631      6.94818     50.06849        -0.009609      0.010712      0.024373
      6.59385     15.97958     50.06849        -0.015982      0.005141      0.024001
     15.62671      6.94818     50.06849        -0.013667      0.004121      0.022889
     15.62425     15.97958     50.06849        -0.005006      0.017751      0.026089
      2.08113      6.59901     50.06905        -0.007091     -0.014446      0.024168
      2.07867     15.63041     50.06905        -0.010194     -0.007470      0.024618
     11.11153      6.59901     50.06905        -0.010802     -0.009664      0.024871
     11.10907     15.63041     50.06905        -0.008674     -0.011164      0.024853
      6.94681      2.43239     50.06905         0.009312      0.008943      0.023864
      6.94435     11.46379     50.06905         0.005605      0.015103      0.025098
     15.97721      2.43239     50.06905         0.016324      0.004861      0.023710
     15.97475     11.46379     50.06905         0.005343      0.013538      0.025298
     18.05201      0.11589     37.74596        -0.025484      0.016418      0.036362
      0.14510      9.10678     37.75854         0.027090     -0.060130      0.015170
      9.07458     17.96424     37.67737        -0.035170     -0.015657      0.046288
      9.00111      9.04627     37.70666         0.021478     -0.027801     -0.058886
      4.61879      4.51856     37.86604        -0.033256     -0.011291      0.008304
      4.41870     13.66666     37.69362         0.002608      0.006891      0.008666
     13.51983      4.53759     37.86543        -0.003303      0.001472      0.001509
     13.55627     13.71694     37.75102        -0.042890     -0.043286      0.006289
      0.00001      0.00001     44.04300        -0.051479     -0.120980      0.092750
     -0.00245      9.03141     44.04300         0.108652      0.040013      0.206301
      9.03041      0.00001     44.04300        -0.000885     -0.003595      0.041903
      9.02795      9.03141     44.04300         0.075246      0.013672      0.111778
      4.51397      4.51569     44.04275         0.021144      0.043769      0.189727
      4.51151     13.54709     44.04275        -0.105245     -0.015178      0.102042
     13.54437      4.51569     44.04275        -0.065108     -0.013779      0.175542
     13.54191     13.54709     44.04275        -0.015491      0.003026      0.109023
      0.00000      0.00000     50.44728        -0.003186      0.000143     -0.615225
     -0.00246      9.03140     50.44728        -0.002162      0.000203     -0.648573
      9.03040      0.00000     50.44728         0.002576      0.002499     -0.639169
      9.02794      9.03140     50.44728         0.002306     -0.002465     -0.630413
      4.51397      4.51570     50.44728         0.002245      0.006002     -0.636891
      4.51151     13.54710     50.44728         0.000285     -0.006088     -0.615635
     13.54437      4.51570     50.44728        -0.002839      0.005324     -0.631388
     13.54191     13.54710     50.44728         0.000062     -0.005261     -0.632469
 -----------------------------------------------------------------------------------
    total drift:                                0.024059     -0.031451      0.651208


--------------------------------------------------------------------------------------------------------



  FREE ENERGIE OF THE ION-ELECTRON SYSTEM (eV)
  ---------------------------------------------------
  free  energy   TOTEN  =     -1576.07677258 eV

  energy  without entropy=    -1576.07677258  energy(sigma->0) =    -1576.07677258
 


--------------------------------------------------------------------------------------------------------


    POTLOK:  cpu time    0.5013: real time    0.5012


--------------------------------------------------------------------------------------------------------


     LOOP+:  cpu time  265.6981: real time  266.0342
 vacuum level on the upper side and lower side of the slab         2.321         1.534
    4ORBIT:  cpu time    0.0000: real time    0.0000

 total amount of memory used by VASP MPI-rank0  8653580. kBytes
=======================================================================

   base      :      30000. kBytes
   nonlr-proj:      53618. kBytes
   fftplans  :     249280. kBytes
   grid      :     701440. kBytes
   one-center:       2636. kBytes
   wavefun   :    7616606. kBytes
 
  
  
 General timing and accounting informations for this job:
 ========================================================
  
                  Total CPU time used (sec):      477.222
                            User time (sec):      389.469
                          System time (sec):       87.753
                         Elapsed time (sec):      480.124
  
                   Maximum memory used (kb):    10307060.
                   Average memory used (kb):          N/A
  
                          Minor page faults:      3542678
                          Major page faults:           12
                 Voluntary context switches:        10727
