<?xml version="1.0" encoding="ISO-8859-1"?>
<modeling>
 <generator>
  <i name="program" type="string">vasp </i>
  <i name="version" type="string">6.2.1  </i>
  <i name="subversion" type="string">16May21 (build Nov 15 2021 14:57:28) complex                          parallel </i>
  <i name="platform" type="string">LinuxPGI </i>
  <i name="date" type="string">2023 07 30 </i>
  <i name="time" type="string">13:30:13 </i>
 </generator>
 <incar>
  <i type="string" name="SYSTEM">PSC</i>
  <i type="int" name="ISTART">     1</i>
  <i type="string" name="PREC">Normal</i>
  <i name="BMIX">      0.01000000</i>
  <i name="AMIN">      0.01000000</i>
  <i type="int" name="ICHARG">     1</i>
  <i type="int" name="NELM">   600</i>
  <i type="int" name="ISYM">     0</i>
  <i name="ENCUT">    500.00000000</i>
  <i type="string" name="LREAL">Auto</i>
  <i type="int" name="ISMEAR">     0</i>
  <i name="SIGMA">      0.05000000</i>
  <i type="logical" name="LWAVE"> F  </i>
  <i type="logical" name="LVTOT"> T  </i>
  <i type="logical" name="GGA_COMPAT"> F  </i>
  <i type="logical" name="LDIPOL"> T  </i>
  <i type="int" name="IDIPOL">     3</i>
  <i type="int" name="IVDW">    12</i>
 </incar>
 <primitive_cell>
  <structure name="primitive_cell" >
   <crystal>
    <varray name="basis" >
     <v>      18.06080055       0.00000000       0.00000000 </v>
     <v>      -0.00491865      18.06279945       0.00000000 </v>
     <v>       0.00000000       0.00000000      62.48749924 </v>
    </varray>
    <i name="volume">  20385.21054034 </i>
    <varray name="rec_basis" >
     <v>       0.05536853       0.00001508      -0.00000000 </v>
     <v>       0.00000000       0.05536240       0.00000000 </v>
     <v>       0.00000000      -0.00000000       0.01600320 </v>
    </varray>
   </crystal>
   <varray name="positions" >
    <v>       0.41003704       0.27774725       0.56665570 </v>
    <v>       0.41202993       0.70259255       0.57316878 </v>
    <v>       0.92884961       0.28875235       0.58112691 </v>
    <v>       0.93199329       0.81405235       0.57371778 </v>
    <v>       0.32346366       0.09164834       0.56588497 </v>
    <v>       0.31793578       0.57673402       0.56978871 </v>
    <v>       0.80206764       0.09805618       0.56940802 </v>
    <v>       0.11074472       0.24023390       0.56223446 </v>
    <v>       0.08055805       0.67981704       0.56932292 </v>
    <v>       0.59122740       0.18916496       0.56509795 </v>
    <v>       0.60180956       0.74779108       0.55905341 </v>
    <v>       0.37771944       0.02051482       0.55522903 </v>
    <v>       0.25312196       0.62316157       0.55428811 </v>
    <v>       0.87468581       0.04432101       0.55889523 </v>
    <v>       0.06301219       0.28629314       0.58266573 </v>
    <v>       0.99516607       0.69381704       0.58174551 </v>
    <v>       0.49808370       0.17213906       0.57216321 </v>
    <v>       0.54841736       0.68867180       0.57503475 </v>
    <v>       0.30574089       0.43997453       0.57307922 </v>
    <v>       0.18898613       0.06633105       0.56991233 </v>
    <v>       0.67921103       0.03262381       0.57289639 </v>
    <v>       0.45042562       0.36071689       0.55812225 </v>
    <v>       0.37684546       0.77049213       0.55631519 </v>
    <v>       0.88496790       0.23888191       0.56071377 </v>
    <v>       0.97836960       0.87306318       0.55644729 </v>
    <v>       0.23380364       0.39958144       0.55898833 </v>
    <v>       0.15480857       0.98645770       0.55841626 </v>
    <v>       0.67708442       0.94230324       0.56321220 </v>
    <v>       0.56712316       0.30956909       0.55459603 </v>
    <v>       0.49687010       0.80785153       0.54541573 </v>
    <v>       0.99954811       0.20087901       0.54597028 </v>
    <v>       0.07535988       0.79081397       0.55088136 </v>
    <v>       0.18932486       0.51249574       0.54619561 </v>
    <v>       0.27462319       0.94550099       0.54851034 </v>
    <v>       0.79926954       0.94243686       0.55324341 </v>
    <v>       0.45321617       0.29355665       0.67374383 </v>
    <v>       0.43968134       0.81130085       0.67158806 </v>
    <v>       0.96074254       0.28198123       0.67818478 </v>
    <v>       0.91667728       0.74183777       0.66875345 </v>
    <v>       0.29879951       0.04159484       0.67501648 </v>
    <v>       0.30448504       0.55624814       0.67413496 </v>
    <v>       0.79492369       0.05427243       0.67511440 </v>
    <v>       0.82733677       0.50462994       0.66998978 </v>
    <v>       0.09014687       0.17097303       0.64660553 </v>
    <v>       0.10456771       0.69692651       0.65212854 </v>
    <v>       0.57697909       0.16430683       0.64627550 </v>
    <v>       0.57508550       0.67770091       0.65115697 </v>
    <v>       0.18593348       0.41291943       0.65060559 </v>
    <v>       0.16308283       0.93142160       0.64559611 </v>
    <v>       0.64200213       0.45847440       0.65118725 </v>
    <v>       0.67599736       0.91653095       0.64910517 </v>
    <v>       0.06578127       0.18727925       0.67320502 </v>
    <v>       0.02903088       0.65802828       0.66530629 </v>
    <v>       0.54394285       0.18421154       0.67174929 </v>
    <v>       0.54330615       0.71216973       0.67532038 </v>
    <v>       0.21640307       0.44334384       0.67557433 </v>
    <v>       0.18602244       0.95413306       0.67192516 </v>
    <v>       0.70247403       0.43563097       0.67159435 </v>
    <v>       0.69751403       0.94914355       0.67473334 </v>
    <v>       0.43922094       0.34031995       0.64981741 </v>
    <v>       0.41390223       0.82993221       0.64541541 </v>
    <v>       0.92568019       0.31971446       0.65456549 </v>
    <v>       0.92703385       0.83087491       0.65780399 </v>
    <v>       0.34151493       0.06201146       0.65099337 </v>
    <v>       0.32073081       0.58956914       0.64864054 </v>
    <v>       0.82739183       0.07978479       0.65008559 </v>
    <v>       0.83700857       0.56662558       0.64906055 </v>
    <v>       0.00365619       0.25265699       0.63272061 </v>
    <v>       0.04503040       0.80846419       0.64523635 </v>
    <v>       0.51425240       0.26265901       0.63030112 </v>
    <v>       0.49809709       0.74849038       0.63056973 </v>
    <v>       0.25791272       0.99517894       0.63052742 </v>
    <v>       0.24832172       0.50237056       0.63185666 </v>
    <v>       0.75617341       0.99425547       0.63197607 </v>
    <v>       0.72030174       0.54236276       0.63518686 </v>
    <v>       0.44874502       0.30128397       0.76888902 </v>
    <v>       0.44874501       0.80128391       0.76888902 </v>
    <v>       0.94874497       0.30128397       0.76888902 </v>
    <v>       0.94874501       0.80128391       0.76888902 </v>
    <v>       0.30127600       0.05129450       0.76887296 </v>
    <v>       0.30127601       0.55129450       0.76887296 </v>
    <v>       0.80127594       0.05129450       0.76887296 </v>
    <v>       0.80127598       0.55129450       0.76887296 </v>
    <v>       0.07877100       0.17118050       0.74344197 </v>
    <v>       0.07877101       0.67118045       0.74344197 </v>
    <v>       0.57877100       0.17118050       0.74344197 </v>
    <v>       0.57877099       0.67118045       0.74344197 </v>
    <v>       0.17119950       0.42117448       0.74342103 </v>
    <v>       0.17119950       0.92117451       0.74342103 </v>
    <v>       0.67119951       0.42117448       0.74342103 </v>
    <v>       0.67119950       0.92117451       0.74342103 </v>
    <v>       0.05125600       0.19871499       0.76888902 </v>
    <v>       0.05125600       0.69871493       0.76888902 </v>
    <v>       0.55125603       0.19871499       0.76888902 </v>
    <v>       0.55125602       0.69871493       0.76888902 </v>
    <v>       0.19872349       0.44870397       0.76887205 </v>
    <v>       0.19872349       0.94870397       0.76887205 </v>
    <v>       0.69872352       0.44870397       0.76887205 </v>
    <v>       0.69872351       0.94870397       0.76887205 </v>
    <v>       0.42123152       0.32881747       0.74344197 </v>
    <v>       0.42123151       0.82881744       0.74344197 </v>
    <v>       0.92123147       0.32881747       0.74344197 </v>
    <v>       0.92123151       0.82881744       0.74344197 </v>
    <v>       0.32880050       0.07882500       0.74342103 </v>
    <v>       0.32880049       0.57882496       0.74342103 </v>
    <v>       0.82880048       0.07882500       0.74342103 </v>
    <v>       0.82880052       0.57882496       0.74342103 </v>
    <v>       0.00000350       0.25000148       0.72582199 </v>
    <v>       0.00000350       0.75000145       0.72582199 </v>
    <v>       0.50000351       0.25000148       0.72582199 </v>
    <v>       0.50000350       0.75000145       0.72582199 </v>
    <v>       0.25000050       0.00000000       0.72580398 </v>
    <v>       0.25000052       0.50000000       0.72580398 </v>
    <v>       0.75000050       0.00000000       0.72580398 </v>
    <v>       0.75000049       0.50000000       0.72580398 </v>
    <v>       0.80013745       0.50888416       0.51482367 </v>
    <v>       0.87921910       0.50053310       0.53137496 </v>
    <v>       0.76340115       0.62338823       0.53229989 </v>
    <v>       0.76242244       0.62687399       0.56034834 </v>
    <v>       0.68607855       0.44929203       0.55076104 </v>
    <v>       0.67062336       0.54132693       0.55851741 </v>
    <v>       0.79803756       0.42825444       0.56729431 </v>
    <v>       0.86721150       0.49698768       0.56896396 </v>
    <v>       0.85805416       0.37602096       0.53936771 </v>
    <v>       0.76302564       0.37800333       0.53339337 </v>
    <v>       0.78200353       0.38180506       0.49582979 </v>
    <v>       0.87480024       0.40865884       0.49800799 </v>
    <v>       0.89849905       0.61902355       0.53064581 </v>
    <v>       0.90683472       0.60581494       0.55866112 </v>
    <v>       0.87014059       0.68998778       0.54841059 </v>
    <v>       0.60048203       0.51552934       0.52674879 </v>
    <v>       0.67976644       0.48718969       0.51165843 </v>
    <v>       0.66774842       0.58148549       0.51959446 </v>
    <v>       0.70908142       0.50692896       0.58815847 </v>
    <v>       0.77893378       0.57603276       0.59090261 </v>
    <v>       0.79175170       0.48653701       0.60193705 </v>
    <v>       0.82263706       0.25573404       0.51338705 </v>
    <v>       0.84403039       0.27522775       0.48669750 </v>
    <v>       0.92424884       0.16001091       0.49846866 </v>
    <v>       0.97245542       0.38415767       0.51775828 </v>
    <v>       0.05589123       0.12699278       0.50367514 </v>
    <v>       0.10111826       0.35247585       0.52284505 </v>
    <v>       0.14653589       0.22346789       0.51549373 </v>
    <v>       0.99814374       0.23613194       0.55999482 </v>
    <v>       0.02811235       0.77422546       0.56072427 </v>
    <v>       0.52155395       0.27441112       0.55991802 </v>
    <v>       0.49028271       0.76135861       0.55643386 </v>
    <v>       0.23991294       0.51129095       0.55574726 </v>
    <v>       0.26668639       0.00006434       0.55579104 </v>
    <v>       0.77591188       0.99261065       0.56021093 </v>
    <v>       0.00729483       0.24565789       0.65003236 </v>
    <v>       0.01614266       0.76517752       0.65404006 </v>
    <v>       0.50820626       0.25247022       0.64730690 </v>
    <v>       0.49511834       0.75393240       0.64778105 </v>
    <v>       0.25361666       0.50107618       0.64916091 </v>
    <v>       0.25228622       0.99672958       0.64781316 </v>
    <v>       0.73932886       0.51343960       0.64940668 </v>
    <v>       0.75217559       0.99770427       0.64924283 </v>
    <v>       0.49998898       0.24999498       0.74327702 </v>
    <v>       0.49998903       0.74999496       0.74327702 </v>
    <v>       0.99998898       0.24999498       0.74327702 </v>
    <v>       0.99998903       0.74999496       0.74327702 </v>
    <v>       0.25000050       0.00000100       0.74325596 </v>
    <v>       0.25000052       0.50000100       0.74325596 </v>
    <v>       0.75000050       0.00000100       0.74325596 </v>
    <v>       0.75000049       0.50000100       0.74325596 </v>
    <v>       0.93729505       0.27493641       0.50740575 </v>
    <v>       0.96313215       0.20206803       0.50383087 </v>
    <v>       0.98878608       0.32754325       0.51422510 </v>
    <v>       0.03769757       0.18401813       0.50649620 </v>
    <v>       0.06352593       0.30981388       0.51709140 </v>
    <v>       0.08847957       0.23828226       0.51315989 </v>
    <v>       0.82122198       0.48413434       0.52951948 </v>
    <v>       0.79213408       0.60336755       0.54664339 </v>
    <v>       0.69587107       0.50687584       0.54606692 </v>
    <v>       0.80710389       0.48762200       0.56868680 </v>
    <v>       0.81713493       0.39980419       0.52831081 </v>
    <v>       0.83264209       0.37295973       0.50537757 </v>
    <v>       0.87163597       0.62961968       0.54610660 </v>
    <v>       0.66059498       0.52377576       0.52459711 </v>
    <v>       0.76881461       0.51707615       0.58830798 </v>
    <v>       0.85678331       0.29253766       0.50315575 </v>
    <v>       0.06095697       0.25448110       0.56907293 </v>
    <v>       0.03302191       0.71020935       0.57043624 </v>
    <v>       0.53666169       0.20542648       0.56496359 </v>
    <v>       0.55007790       0.72734115       0.56317996 </v>
    <v>       0.45494862       0.30448108       0.56052965 </v>
    <v>       0.42248098       0.74303516       0.56183149 </v>
    <v>       0.93332992       0.25744894       0.56735035 </v>
    <v>       0.97193089       0.82012578       0.56228806 </v>
    <v>       0.26177162       0.44651925       0.56281270 </v>
    <v>       0.19910011       0.01936561       0.56128805 </v>
    <v>       0.70523671       0.99047209       0.56495730 </v>
    <v>       0.32585634       0.04095214       0.55873004 </v>
    <v>       0.27363087       0.57445411       0.55953849 </v>
    <v>       0.82017174       0.04916250       0.56300494 </v>
    <v>       0.05656705       0.19867717       0.65726806 </v>
    <v>       0.05111108       0.70246346       0.65734931 </v>
    <v>       0.54423934       0.19698510       0.65580298 </v>
    <v>       0.54015554       0.71224185       0.65889753 </v>
    <v>       0.21641969       0.44917925       0.65924526 </v>
    <v>       0.19642395       0.95884036       0.65587545 </v>
    <v>       0.69292911       0.46592579       0.65797902 </v>
    <v>       0.70595770       0.95152965       0.65847960 </v>
    <v>       0.46446564       0.29800380       0.65776224 </v>
    <v>       0.44702519       0.80088091       0.65562228 </v>
    <v>       0.96160386       0.28487043       0.66188696 </v>
    <v>       0.94855579       0.77973532       0.66066132 </v>
    <v>       0.30045076       0.03628775       0.65868424 </v>
    <v>       0.29518638       0.55154349       0.65809995 </v>
    <v>       0.79340577       0.04677723       0.65896896 </v>
    <v>       0.80563242       0.52834593       0.65662572 </v>
    <v>       0.04586250       0.20411950       0.75272599 </v>
    <v>       0.04586250       0.70411946       0.75272599 </v>
    <v>       0.54586251       0.20411950       0.75272599 </v>
    <v>       0.54586250       0.70411946       0.75272599 </v>
    <v>       0.20411900       0.45410100       0.75270499 </v>
    <v>       0.20411899       0.95410095       0.75270499 </v>
    <v>       0.70411898       0.45410100       0.75270499 </v>
    <v>       0.70411896       0.95410095       0.75270499 </v>
    <v>       0.45414002       0.29588849       0.75272697 </v>
    <v>       0.45414001       0.79588852       0.75272697 </v>
    <v>       0.95414002       0.29588849       0.75272697 </v>
    <v>       0.95414006       0.79588852       0.75272697 </v>
    <v>       0.29588249       0.04590050       0.75270499 </v>
    <v>       0.29588248       0.54590053       0.75270499 </v>
    <v>       0.79588244       0.04590050       0.75270499 </v>
    <v>       0.79588248       0.54590053       0.75270499 </v>
    <v>       0.77936389       0.52010315       0.54772540 </v>
    <v>       0.50936686       0.97589580       0.55260858 </v>
    <v>       0.46753371       0.50224691       0.55376091 </v>
    <v>       0.00727624       0.01264278       0.55142639 </v>
    <v>       0.03380662       0.49327077       0.55458895 </v>
    <v>       0.25439135       0.24262559       0.55485481 </v>
    <v>       0.23251142       0.76792015       0.55133513 </v>
    <v>       0.73669930       0.22417498       0.55520669 </v>
    <v>       0.72490015       0.79640968       0.55431033 </v>
    <v>       0.99528393       0.98439327       0.65403884 </v>
    <v>       0.00508226       0.50197791       0.65548621 </v>
    <v>       0.49701532       0.00171157       0.65460255 </v>
    <v>       0.49841424       0.50055633       0.65425891 </v>
    <v>       0.26387466       0.24021418       0.65551801 </v>
    <v>       0.24560978       0.75334988       0.65366388 </v>
    <v>       0.74355803       0.26071268       0.65530343 </v>
    <v>       0.75095287       0.73913532       0.65436977 </v>
    <v>       0.13789559       0.11499571       0.60888057 </v>
    <v>       0.14624443       0.60892895       0.60684623 </v>
    <v>       0.64110389       0.10871740       0.60894791 </v>
    <v>       0.61657994       0.63092875       0.60899931 </v>
    <v>       0.36787793       0.38411055       0.60970294 </v>
    <v>       0.36440441       0.88609857       0.60569085 </v>
    <v>       0.88804126       0.36328951       0.61284822 </v>
    <v>       0.86273322       0.88974636       0.60550075 </v>
    <v>       0.12660103       0.36995950       0.61164449 </v>
    <v>       0.11750838       0.87281588       0.60640150 </v>
    <v>       0.61965902       0.37151869       0.60214418 </v>
    <v>       0.61650720       0.86621606       0.61235038 </v>
    <v>       0.39850430       0.14183785       0.60431954 </v>
    <v>       0.37832954       0.63208053       0.60769442 </v>
    <v>       0.88207921       0.13254702       0.61289841 </v>
    <v>       0.90321179       0.64972072       0.61107828 </v>
    <v>       0.00000000       0.00000000       0.75492797 </v>
    <v>       0.00000000       0.50000000       0.75492797 </v>
    <v>       0.50000000       0.00000000       0.75492797 </v>
    <v>       0.49999999       0.50000000       0.75492797 </v>
    <v>       0.25000050       0.25000000       0.75493902 </v>
    <v>       0.25000051       0.74999997       0.75493902 </v>
    <v>       0.75000047       0.25000000       0.75493902 </v>
    <v>       0.75000046       0.74999997       0.75493902 </v>
    <v>       0.13579050       0.11421000       0.70478299 </v>
    <v>       0.13579050       0.61420998       0.70478299 </v>
    <v>       0.63579045       0.11421000       0.70478299 </v>
    <v>       0.63579049       0.61420998       0.70478299 </v>
    <v>       0.36420952       0.38578999       0.70478299 </v>
    <v>       0.36420950       0.88578996       0.70478299 </v>
    <v>       0.86420954       0.38578999       0.70478299 </v>
    <v>       0.86420953       0.88578996       0.70478299 </v>
    <v>       0.11421799       0.36421899       0.70478098 </v>
    <v>       0.11421799       0.86421899       0.70478098 </v>
    <v>       0.61421800       0.36421899       0.70478098 </v>
    <v>       0.61421799       0.86421899       0.70478098 </v>
    <v>       0.38578201       0.13578149       0.70478202 </v>
    <v>       0.38578200       0.63578149       0.70478202 </v>
    <v>       0.88578199       0.13578149       0.70478202 </v>
    <v>       0.88578203       0.63578149       0.70478202 </v>
    <v>       0.13466700       0.11533200       0.80125603 </v>
    <v>       0.13466699       0.61533199       0.80125603 </v>
    <v>       0.63466699       0.11533200       0.80125603 </v>
    <v>       0.63466698       0.61533199       0.80125603 </v>
    <v>       0.36533300       0.38466799       0.80125603 </v>
    <v>       0.36533299       0.88466796       0.80125603 </v>
    <v>       0.86533295       0.38466799       0.80125603 </v>
    <v>       0.86533294       0.88466796       0.80125603 </v>
    <v>       0.11532850       0.36533700       0.80126500 </v>
    <v>       0.11532850       0.86533698       0.80126500 </v>
    <v>       0.61532850       0.36533700       0.80126500 </v>
    <v>       0.61532849       0.86533698       0.80126500 </v>
    <v>       0.38467151       0.13466300       0.80126500 </v>
    <v>       0.38467150       0.63466297       0.80126500 </v>
    <v>       0.88467149       0.13466300       0.80126500 </v>
    <v>       0.88467153       0.63466297       0.80126500 </v>
    <v>       0.99951522       0.00641613       0.60405624 </v>
    <v>       0.00817115       0.50417318       0.60425746 </v>
    <v>       0.50271705       0.99454337       0.60295855 </v>
    <v>       0.49851459       0.50082306       0.60342721 </v>
    <v>       0.25580360       0.25015823       0.60597789 </v>
    <v>       0.24486321       0.75661933       0.60321861 </v>
    <v>       0.74864132       0.25121179       0.60596806 </v>
    <v>       0.75079771       0.75940272       0.60413713 </v>
    <v>       0.00000050       0.00000050       0.70482896 </v>
    <v>       0.00000050       0.50000048       0.70482896 </v>
    <v>       0.50000048       0.00000050       0.70482896 </v>
    <v>       0.50000046       0.50000048       0.70482896 </v>
    <v>       0.24999999       0.24999947       0.70482499 </v>
    <v>       0.25000001       0.74999950       0.70482499 </v>
    <v>       0.74999999       0.24999947       0.70482499 </v>
    <v>       0.74999998       0.74999950       0.70482499 </v>
    <v>       0.00000000       0.00000000       0.80731797 </v>
    <v>       0.00000000       0.50000000       0.80731797 </v>
    <v>       0.50000000       0.00000000       0.80731797 </v>
    <v>       0.49999999       0.50000000       0.80731797 </v>
    <v>       0.24999999       0.25000000       0.80731797 </v>
    <v>       0.25000001       0.74999997       0.80731797 </v>
    <v>       0.74999999       0.25000000       0.80731797 </v>
    <v>       0.74999998       0.74999997       0.80731797 </v>
   </varray>
  </structure>
  <varray name="primitive_index" >
   <v type="int" >        1 </v>
   <v type="int" >        2 </v>
   <v type="int" >        3 </v>
   <v type="int" >        4 </v>
   <v type="int" >        5 </v>
   <v type="int" >        6 </v>
   <v type="int" >        7 </v>
   <v type="int" >        8 </v>
   <v type="int" >        9 </v>
   <v type="int" >       10 </v>
   <v type="int" >       11 </v>
   <v type="int" >       12 </v>
   <v type="int" >       13 </v>
   <v type="int" >       14 </v>
   <v type="int" >       15 </v>
   <v type="int" >       16 </v>
   <v type="int" >       17 </v>
   <v type="int" >       18 </v>
   <v type="int" >       19 </v>
   <v type="int" >       20 </v>
   <v type="int" >       21 </v>
   <v type="int" >       22 </v>
   <v type="int" >       23 </v>
   <v type="int" >       24 </v>
   <v type="int" >       25 </v>
   <v type="int" >       26 </v>
   <v type="int" >       27 </v>
   <v type="int" >       28 </v>
   <v type="int" >       29 </v>
   <v type="int" >       30 </v>
   <v type="int" >       31 </v>
   <v type="int" >       32 </v>
   <v type="int" >       33 </v>
   <v type="int" >       34 </v>
   <v type="int" >       35 </v>
   <v type="int" >       36 </v>
   <v type="int" >       37 </v>
   <v type="int" >       38 </v>
   <v type="int" >       39 </v>
   <v type="int" >       40 </v>
   <v type="int" >       41 </v>
   <v type="int" >       42 </v>
   <v type="int" >       43 </v>
   <v type="int" >       44 </v>
   <v type="int" >       45 </v>
   <v type="int" >       46 </v>
   <v type="int" >       47 </v>
   <v type="int" >       48 </v>
   <v type="int" >       49 </v>
   <v type="int" >       50 </v>
   <v type="int" >       51 </v>
   <v type="int" >       52 </v>
   <v type="int" >       53 </v>
   <v type="int" >       54 </v>
   <v type="int" >       55 </v>
   <v type="int" >       56 </v>
   <v type="int" >       57 </v>
   <v type="int" >       58 </v>
   <v type="int" >       59 </v>
   <v type="int" >       60 </v>
   <v type="int" >       61 </v>
   <v type="int" >       62 </v>
   <v type="int" >       63 </v>
   <v type="int" >       64 </v>
   <v type="int" >       65 </v>
   <v type="int" >       66 </v>
   <v type="int" >       67 </v>
   <v type="int" >       68 </v>
   <v type="int" >       69 </v>
   <v type="int" >       70 </v>
   <v type="int" >       71 </v>
   <v type="int" >       72 </v>
   <v type="int" >       73 </v>
   <v type="int" >       74 </v>
   <v type="int" >       75 </v>
   <v type="int" >       76 </v>
   <v type="int" >       77 </v>
   <v type="int" >       78 </v>
   <v type="int" >       79 </v>
   <v type="int" >       80 </v>
   <v type="int" >       81 </v>
   <v type="int" >       82 </v>
   <v type="int" >       83 </v>
   <v type="int" >       84 </v>
   <v type="int" >       85 </v>
   <v type="int" >       86 </v>
   <v type="int" >       87 </v>
   <v type="int" >       88 </v>
   <v type="int" >       89 </v>
   <v type="int" >       90 </v>
   <v type="int" >       91 </v>
   <v type="int" >       92 </v>
   <v type="int" >       93 </v>
   <v type="int" >       94 </v>
   <v type="int" >       95 </v>
   <v type="int" >       96 </v>
   <v type="int" >       97 </v>
   <v type="int" >       98 </v>
   <v type="int" >       99 </v>
   <v type="int" >      100 </v>
   <v type="int" >      101 </v>
   <v type="int" >      102 </v>
   <v type="int" >      103 </v>
   <v type="int" >      104 </v>
   <v type="int" >      105 </v>
   <v type="int" >      106 </v>
   <v type="int" >      107 </v>
   <v type="int" >      108 </v>
   <v type="int" >      109 </v>
   <v type="int" >      110 </v>
   <v type="int" >      111 </v>
   <v type="int" >      112 </v>
   <v type="int" >      113 </v>
   <v type="int" >      114 </v>
   <v type="int" >      115 </v>
   <v type="int" >      116 </v>
   <v type="int" >      117 </v>
   <v type="int" >      118 </v>
   <v type="int" >      119 </v>
   <v type="int" >      120 </v>
   <v type="int" >      121 </v>
   <v type="int" >      122 </v>
   <v type="int" >      123 </v>
   <v type="int" >      124 </v>
   <v type="int" >      125 </v>
   <v type="int" >      126 </v>
   <v type="int" >      127 </v>
   <v type="int" >      128 </v>
   <v type="int" >      129 </v>
   <v type="int" >      130 </v>
   <v type="int" >      131 </v>
   <v type="int" >      132 </v>
   <v type="int" >      133 </v>
   <v type="int" >      134 </v>
   <v type="int" >      135 </v>
   <v type="int" >      136 </v>
   <v type="int" >      137 </v>
   <v type="int" >      138 </v>
   <v type="int" >      139 </v>
   <v type="int" >      140 </v>
   <v type="int" >      141 </v>
   <v type="int" >      142 </v>
   <v type="int" >      143 </v>
   <v type="int" >      144 </v>
   <v type="int" >      145 </v>
   <v type="int" >      146 </v>
   <v type="int" >      147 </v>
   <v type="int" >      148 </v>
   <v type="int" >      149 </v>
   <v type="int" >      150 </v>
   <v type="int" >      151 </v>
   <v type="int" >      152 </v>
   <v type="int" >      153 </v>
   <v type="int" >      154 </v>
   <v type="int" >      155 </v>
   <v type="int" >      156 </v>
   <v type="int" >      157 </v>
   <v type="int" >      158 </v>
   <v type="int" >      159 </v>
   <v type="int" >      160 </v>
   <v type="int" >      161 </v>
   <v type="int" >      162 </v>
   <v type="int" >      163 </v>
   <v type="int" >      164 </v>
   <v type="int" >      165 </v>
   <v type="int" >      166 </v>
   <v type="int" >      167 </v>
   <v type="int" >      168 </v>
   <v type="int" >      169 </v>
   <v type="int" >      170 </v>
   <v type="int" >      171 </v>
   <v type="int" >      172 </v>
   <v type="int" >      173 </v>
   <v type="int" >      174 </v>
   <v type="int" >      175 </v>
   <v type="int" >      176 </v>
   <v type="int" >      177 </v>
   <v type="int" >      178 </v>
   <v type="int" >      179 </v>
   <v type="int" >      180 </v>
   <v type="int" >      181 </v>
   <v type="int" >      182 </v>
   <v type="int" >      183 </v>
   <v type="int" >      184 </v>
   <v type="int" >      185 </v>
   <v type="int" >      186 </v>
   <v type="int" >      187 </v>
   <v type="int" >      188 </v>
   <v type="int" >      189 </v>
   <v type="int" >      190 </v>
   <v type="int" >      191 </v>
   <v type="int" >      192 </v>
   <v type="int" >      193 </v>
   <v type="int" >      194 </v>
   <v type="int" >      195 </v>
   <v type="int" >      196 </v>
   <v type="int" >      197 </v>
   <v type="int" >      198 </v>
   <v type="int" >      199 </v>
   <v type="int" >      200 </v>
   <v type="int" >      201 </v>
   <v type="int" >      202 </v>
   <v type="int" >      203 </v>
   <v type="int" >      204 </v>
   <v type="int" >      205 </v>
   <v type="int" >      206 </v>
   <v type="int" >      207 </v>
   <v type="int" >      208 </v>
   <v type="int" >      209 </v>
   <v type="int" >      210 </v>
   <v type="int" >      211 </v>
   <v type="int" >      212 </v>
   <v type="int" >      213 </v>
   <v type="int" >      214 </v>
   <v type="int" >      215 </v>
   <v type="int" >      216 </v>
   <v type="int" >      217 </v>
   <v type="int" >      218 </v>
   <v type="int" >      219 </v>
   <v type="int" >      220 </v>
   <v type="int" >      221 </v>
   <v type="int" >      222 </v>
   <v type="int" >      223 </v>
   <v type="int" >      224 </v>
   <v type="int" >      225 </v>
   <v type="int" >      226 </v>
   <v type="int" >      227 </v>
   <v type="int" >      228 </v>
   <v type="int" >      229 </v>
   <v type="int" >      230 </v>
   <v type="int" >      231 </v>
   <v type="int" >      232 </v>
   <v type="int" >      233 </v>
   <v type="int" >      234 </v>
   <v type="int" >      235 </v>
   <v type="int" >      236 </v>
   <v type="int" >      237 </v>
   <v type="int" >      238 </v>
   <v type="int" >      239 </v>
   <v type="int" >      240 </v>
   <v type="int" >      241 </v>
   <v type="int" >      242 </v>
   <v type="int" >      243 </v>
   <v type="int" >      244 </v>
   <v type="int" >      245 </v>
   <v type="int" >      246 </v>
   <v type="int" >      247 </v>
   <v type="int" >      248 </v>
   <v type="int" >      249 </v>
   <v type="int" >      250 </v>
   <v type="int" >      251 </v>
   <v type="int" >      252 </v>
   <v type="int" >      253 </v>
   <v type="int" >      254 </v>
   <v type="int" >      255 </v>
   <v type="int" >      256 </v>
   <v type="int" >      257 </v>
   <v type="int" >      258 </v>
   <v type="int" >      259 </v>
   <v type="int" >      260 </v>
   <v type="int" >      261 </v>
   <v type="int" >      262 </v>
   <v type="int" >      263 </v>
   <v type="int" >      264 </v>
   <v type="int" >      265 </v>
   <v type="int" >      266 </v>
   <v type="int" >      267 </v>
   <v type="int" >      268 </v>
   <v type="int" >      269 </v>
   <v type="int" >      270 </v>
   <v type="int" >      271 </v>
   <v type="int" >      272 </v>
   <v type="int" >      273 </v>
   <v type="int" >      274 </v>
   <v type="int" >      275 </v>
   <v type="int" >      276 </v>
   <v type="int" >      277 </v>
   <v type="int" >      278 </v>
   <v type="int" >      279 </v>
   <v type="int" >      280 </v>
   <v type="int" >      281 </v>
   <v type="int" >      282 </v>
   <v type="int" >      283 </v>
   <v type="int" >      284 </v>
   <v type="int" >      285 </v>
   <v type="int" >      286 </v>
   <v type="int" >      287 </v>
   <v type="int" >      288 </v>
   <v type="int" >      289 </v>
   <v type="int" >      290 </v>
   <v type="int" >      291 </v>
   <v type="int" >      292 </v>
   <v type="int" >      293 </v>
   <v type="int" >      294 </v>
   <v type="int" >      295 </v>
   <v type="int" >      296 </v>
   <v type="int" >      297 </v>
   <v type="int" >      298 </v>
   <v type="int" >      299 </v>
   <v type="int" >      300 </v>
   <v type="int" >      301 </v>
   <v type="int" >      302 </v>
   <v type="int" >      303 </v>
   <v type="int" >      304 </v>
   <v type="int" >      305 </v>
   <v type="int" >      306 </v>
   <v type="int" >      307 </v>
   <v type="int" >      308 </v>
   <v type="int" >      309 </v>
   <v type="int" >      310 </v>
   <v type="int" >      311 </v>
   <v type="int" >      312 </v>
   <v type="int" >      313 </v>
   <v type="int" >      314 </v>
   <v type="int" >      315 </v>
   <v type="int" >      316 </v>
   <v type="int" >      317 </v>
   <v type="int" >      318 </v>
   <v type="int" >      319 </v>
   <v type="int" >      320 </v>
   <v type="int" >      321 </v>
   <v type="int" >      322 </v>
   <v type="int" >      323 </v>
   <v type="int" >      324 </v>
   <v type="int" >      325 </v>
  </varray>
 </primitive_cell>
 <kpoints>
  <generation param="Gamma">
   <v type="int" name="divisions">       3        3        1 </v>
   <v name="usershift">      0.00000000       0.00000000       0.00000000 </v>
   <v name="genvec1">      0.33333333       0.00000000       0.00000000 </v>
   <v name="genvec2">      0.00000000       0.33333333       0.00000000 </v>
   <v name="genvec3">      0.00000000       0.00000000       1.00000000 </v>
   <v name="shift">      0.00000000       0.00000000       0.00000000 </v>
  </generation>
  <varray name="kpointlist" >
   <v>       0.00000000       0.00000000       0.00000000 </v>
   <v>       0.33333333       0.00000000       0.00000000 </v>
   <v>       0.00000000       0.33333333       0.00000000 </v>
   <v>       0.33333333       0.33333333       0.00000000 </v>
   <v>      -0.33333333       0.33333333       0.00000000 </v>
  </varray>
  <varray name="weights" >
   <v>       0.11111111 </v>
   <v>       0.22222222 </v>
   <v>       0.22222222 </v>
   <v>       0.22222222 </v>
   <v>       0.22222222 </v>
  </varray>
 </kpoints>
 <parameters>
  <separator name="general" >
   <i type="string" name="SYSTEM">PSC</i>
   <i type="logical" name="LCOMPAT"> F  </i>
  </separator>
  <separator name="electronic" >
   <i type="string" name="PREC">normal</i>
   <i name="ENMAX">    500.00000000</i>
   <i name="ENAUG">    644.87300000</i>
   <i name="EDIFF">      0.00010000</i>
   <i type="int" name="IALGO">    38</i>
   <i type="int" name="IWAVPR">    10</i>
   <i type="int" name="NBANDS">   732</i>
   <i type="int" name="NBANDSLOW">    -1</i>
   <i type="int" name="NBANDSHIGH">    -1</i>
   <i name="NELECT">   1134.00000000</i>
   <i type="int" name="TURBO">     0</i>
   <i type="int" name="IRESTART">     0</i>
   <i type="int" name="NREBOOT">     0</i>
   <i type="int" name="NMIN">     0</i>
   <i name="EREF">      0.00000000</i>
   <separator name="electronic smearing" >
    <i type="int" name="ISMEAR">     0</i>
    <i name="SIGMA">      0.05000000</i>
    <i name="KSPACING">      0.50000000</i>
    <i type="logical" name="KGAMMA"> T  </i>
    <i type="logical" name="KBLOWUP"> T  </i>
   </separator>
   <separator name="electronic projectors" >
    <i type="logical" name="LREAL"> T  </i>
    <v name="ROPT">     -0.00050000     -0.00050000     -0.00050000     -0.00050000     -0.00050000</v>
    <i type="int" name="LMAXPAW">  -100</i>
    <i type="int" name="LMAXMIX">     2</i>
    <i type="logical" name="NLSPLINE"> F  </i>
   </separator>
   <separator name="electronic startup" >
    <i type="int" name="ISTART">     0</i>
    <i type="int" name="ICHARG">     1</i>
    <i type="int" name="INIWAV">     1</i>
   </separator>
   <separator name="electronic spin" >
    <i type="int" name="ISPIN">     1</i>
    <i type="logical" name="LNONCOLLINEAR"> F  </i>
    <v name="MAGMOM">      1.00000000      1.00000000      1.00000000      1.00000000      1.00000000      1.00000000      1.00000000      1.00000000      1.00000000      1.00000000      1.00000000      1.00000000      1.00000000      1.00000000      1.00000000      1.00000000      1.00000000      1.00000000      1.00000000      1.00000000
      1.00000000      1.00000000      1.00000000      1.00000000      1.00000000      1.00000000      1.00000000      1.00000000      1.00000000      1.00000000      1.00000000      1.00000000      1.00000000      1.00000000      1.00000000      1.00000000      1.00000000      1.00000000      1.00000000      1.00000000
      1.00000000      1.00000000      1.00000000      1.00000000      1.00000000      1.00000000      1.00000000      1.00000000      1.00000000      1.00000000      1.00000000      1.00000000      1.00000000      1.00000000      1.00000000      1.00000000      1.00000000      1.00000000      1.00000000      1.00000000
      1.00000000      1.00000000      1.00000000      1.00000000      1.00000000      1.00000000      1.00000000      1.00000000      1.00000000      1.00000000      1.00000000      1.00000000      1.00000000      1.00000000      1.00000000      1.00000000      1.00000000      1.00000000      1.00000000      1.00000000
      1.00000000      1.00000000      1.00000000      1.00000000      1.00000000      1.00000000      1.00000000      1.00000000      1.00000000      1.00000000      1.00000000      1.00000000      1.00000000      1.00000000      1.00000000      1.00000000      1.00000000      1.00000000      1.00000000      1.00000000
      1.00000000      1.00000000      1.00000000      1.00000000      1.00000000      1.00000000      1.00000000      1.00000000      1.00000000      1.00000000      1.00000000      1.00000000      1.00000000      1.00000000      1.00000000      1.00000000      1.00000000      1.00000000      1.00000000      1.00000000
      1.00000000      1.00000000      1.00000000      1.00000000      1.00000000      1.00000000      1.00000000      1.00000000      1.00000000      1.00000000      1.00000000      1.00000000      1.00000000      1.00000000      1.00000000      1.00000000      1.00000000      1.00000000      1.00000000      1.00000000
      1.00000000      1.00000000      1.00000000      1.00000000      1.00000000      1.00000000      1.00000000      1.00000000      1.00000000      1.00000000      1.00000000      1.00000000      1.00000000      1.00000000      1.00000000      1.00000000      1.00000000      1.00000000      1.00000000      1.00000000
      1.00000000      1.00000000      1.00000000      1.00000000      1.00000000      1.00000000      1.00000000      1.00000000      1.00000000      1.00000000      1.00000000      1.00000000      1.00000000      1.00000000      1.00000000      1.00000000      1.00000000      1.00000000      1.00000000      1.00000000
      1.00000000      1.00000000      1.00000000      1.00000000      1.00000000      1.00000000      1.00000000      1.00000000      1.00000000      1.00000000      1.00000000      1.00000000      1.00000000      1.00000000      1.00000000      1.00000000      1.00000000      1.00000000      1.00000000      1.00000000
      1.00000000      1.00000000      1.00000000      1.00000000      1.00000000      1.00000000      1.00000000      1.00000000      1.00000000      1.00000000      1.00000000      1.00000000      1.00000000      1.00000000      1.00000000      1.00000000      1.00000000      1.00000000      1.00000000      1.00000000
      1.00000000      1.00000000      1.00000000      1.00000000      1.00000000      1.00000000      1.00000000      1.00000000      1.00000000      1.00000000      1.00000000      1.00000000      1.00000000      1.00000000      1.00000000      1.00000000      1.00000000      1.00000000      1.00000000      1.00000000
      1.00000000      1.00000000      1.00000000      1.00000000      1.00000000      1.00000000      1.00000000      1.00000000      1.00000000      1.00000000      1.00000000      1.00000000      1.00000000      1.00000000      1.00000000      1.00000000      1.00000000      1.00000000      1.00000000      1.00000000
      1.00000000      1.00000000      1.00000000      1.00000000      1.00000000      1.00000000      1.00000000      1.00000000      1.00000000      1.00000000      1.00000000      1.00000000      1.00000000      1.00000000      1.00000000      1.00000000      1.00000000      1.00000000      1.00000000      1.00000000
      1.00000000      1.00000000      1.00000000      1.00000000      1.00000000      1.00000000      1.00000000      1.00000000      1.00000000      1.00000000      1.00000000      1.00000000      1.00000000      1.00000000      1.00000000      1.00000000      1.00000000      1.00000000      1.00000000      1.00000000
      1.00000000      1.00000000      1.00000000      1.00000000      1.00000000      1.00000000      1.00000000      1.00000000      1.00000000      1.00000000      1.00000000      1.00000000      1.00000000      1.00000000      1.00000000      1.00000000      1.00000000      1.00000000      1.00000000      1.00000000
      1.00000000      1.00000000      1.00000000      1.00000000      1.00000000</v>
    <i name="NUPDOWN">     -1.00000000</i>
    <i type="logical" name="LSORBIT"> F  </i>
    <v name="SAXIS">      0.00000000      0.00000000      1.00000000</v>
    <i type="logical" name="LSPIRAL"> F  </i>
    <v name="QSPIRAL">      0.00000000      0.00000000      0.00000000</v>
    <i type="logical" name="LZEROZ"> F  </i>
   </separator>
   <separator name="electronic exchange-correlation" >
    <i type="logical" name="LASPH"> F  </i>
    <i type="logical" name="LMETAGGA"> F  </i>
   </separator>
   <separator name="electronic convergence" >
    <i type="int" name="NELM">   600</i>
    <i type="int" name="NELMDL">     0</i>
    <i type="int" name="NELMIN">     2</i>
    <i name="ENINI">    500.00000000</i>
    <separator name="electronic convergence detail" >
     <i type="logical" name="LDIAG"> T  </i>
     <i type="logical" name="LSUBROT"> F  </i>
     <i name="WEIMIN">      0.00000000</i>
     <i name="EBREAK">      0.00000003</i>
     <i name="DEPER">      0.30000000</i>
     <i type="int" name="NRMM">     4</i>
     <i name="TIME">      0.40000000</i>
    </separator>
   </separator>
   <separator name="electronic mixer" >
    <i name="AMIX">      0.40000000</i>
    <i name="BMIX">      0.01000000</i>
    <i name="AMIN">      0.01000000</i>
    <i name="AMIX_MAG">      1.60000000</i>
    <i name="BMIX_MAG">      0.01000000</i>
    <separator name="electronic mixer details" >
     <i type="int" name="IMIX">     4</i>
     <i type="logical" name="MIXFIRST"> F  </i>
     <i type="int" name="MAXMIX">   -45</i>
     <i name="WC">    100.00000000</i>
     <i type="int" name="INIMIX">     1</i>
     <i type="int" name="MIXPRE">     1</i>
     <i type="int" name="MREMOVE">     5</i>
    </separator>
   </separator>
   <separator name="electronic dipolcorrection" >
    <i type="logical" name="LDIPOL"> T  </i>
    <i type="logical" name="LMONO"> F  </i>
    <i type="int" name="IDIPOL">     3</i>
    <i name="EPSILON">      1.00000000</i>
    <v name="DIPOL">   -100.00000000   -100.00000000   -100.00000000</v>
    <i name="EFIELD">      0.00000000</i>
   </separator>
  </separator>
  <separator name="grids" >
   <i type="int" name="NGX">   100</i>
   <i type="int" name="NGY">   100</i>
   <i type="int" name="NGZ">   350</i>
   <i type="int" name="NGXF">   200</i>
   <i type="int" name="NGYF">   200</i>
   <i type="int" name="NGZF">   700</i>
   <i type="logical" name="ADDGRID"> F  </i>
  </separator>
  <separator name="ionic" >
   <i type="int" name="NSW">     0</i>
   <i type="int" name="IBRION">    -1</i>
   <i type="int" name="MDALGO">     0</i>
   <i type="int" name="ISIF">     2</i>
   <i name="PSTRESS">      0.00000000</i>
   <i name="EDIFFG">      0.00100000</i>
   <i type="int" name="NFREE">     0</i>
   <i name="POTIM">      0.50000000</i>
   <i name="SMASS">     -3.00000000</i>
   <i name="SCALEE">      1.00000000</i>
  </separator>
  <separator name="ionic md" >
   <i name="TEBEG">      0.00010000</i>
   <i name="TEEND">      0.00010000</i>
   <i type="int" name="NBLOCK">     1</i>
   <i type="int" name="KBLOCK">     1</i>
   <i type="int" name="NPACO">   256</i>
   <i name="APACO">     16.00000000</i>
  </separator>
  <separator name="symmetry" >
   <i type="int" name="ISYM">     0</i>
   <i name="SYMPREC">      0.00001000</i>
  </separator>
  <separator name="dos" >
   <i type="int" name="LORBIT">     0</i>
   <v name="RWIGS">     -1.00000000     -1.00000000     -1.00000000     -1.00000000     -1.00000000</v>
   <i type="int" name="NEDOS">   301</i>
   <i name="EMIN">     10.00000000</i>
   <i name="EMAX">    -10.00000000</i>
   <i name="EFERMI">      0.00000000</i>
  </separator>
  <separator name="writing" >
   <i type="int" name="NWRITE">     2</i>
   <i type="logical" name="LWAVE"> F  </i>
   <i type="logical" name="LDOWNSAMPLE"> F  </i>
   <i type="logical" name="LCHARG"> T  </i>
   <i type="logical" name="LPARD"> F  </i>
   <i type="logical" name="LVTOT"> T  </i>
   <i type="logical" name="LVHAR"> F  </i>
   <i type="logical" name="LELF"> F  </i>
   <i type="logical" name="LOPTICS"> F  </i>
   <v name="STM">      0.00000000      0.00000000      0.00000000      0.00000000      0.00000000      0.00000000      0.00000000</v>
  </separator>
  <separator name="performance" >
   <i type="int" name="NPAR">     4</i>
   <i type="int" name="NSIM">     4</i>
   <i type="int" name="NBLK">    -1</i>
   <i type="logical" name="LPLANE"> T  </i>
   <i type="logical" name="LSCALAPACK"> T  </i>
   <i type="logical" name="LSCAAWARE"> F  </i>
   <i type="logical" name="LSCALU"> F  </i>
   <i type="logical" name="LASYNC"> F  </i>
   <i type="logical" name="LORBITALREAL"> F  </i>
  </separator>
  <separator name="miscellaneous" >
   <i type="int" name="IDIOT">     3</i>
   <i type="int" name="PHON_NSTRUCT">    -1</i>
   <i type="logical" name="LMUSIC"> F  </i>
   <v name="POMASS">      1.00000000     12.01100000     14.00100000    126.90400000    207.20000000</v>
   <v name="DARWINR">      0.00000000      0.00000000      0.00000000      0.00000000      0.00000000</v>
   <v name="DARWINV">      1.00000000      1.00000000      1.00000000      1.00000000      1.00000000</v>
   <i type="logical" name="LCORR"> T  </i>
  </separator>
  <i type="logical" name="GGA_COMPAT"> F  </i>
  <i type="logical" name="LBERRY"> F  </i>
  <i type="int" name="ICORELEVEL">     0</i>
  <i type="logical" name="LDAU"> F  </i>
  <i type="int" name="I_CONSTRAINED_M">     0</i>
  <separator name="electronic exchange-correlation" >
   <i type="string" name="GGA">--</i>
   <i type="int" name="VOSKOWN">     0</i>
   <i type="logical" name="LHFCALC"> F  </i>
   <i type="string" name="PRECFOCK"></i>
   <i type="logical" name="LSYMGRAD"> F  </i>
   <i type="logical" name="LHFONE"> F  </i>
   <i type="logical" name="LRHFCALC"> F  </i>
   <i type="logical" name="LTHOMAS"> F  </i>
   <i type="logical" name="LMODELHF"> F  </i>
   <i type="logical" name="LFOCKACE"> F  </i>
   <i name="ENCUT4O">     -1.00000000</i>
   <i type="int" name="EXXOEP">     0</i>
   <i type="int" name="FOURORBIT">     0</i>
   <i name="AEXX">      0.00000000</i>
   <i name="HFALPHA">      0.00000000</i>
   <i name="MCALPHA">      0.00000000</i>
   <i name="ALDAX">      1.00000000</i>
   <i name="AGGAX">      1.00000000</i>
   <i name="ALDAC">      1.00000000</i>
   <i name="AGGAC">      1.00000000</i>
   <i type="int" name="NKREDX">     1</i>
   <i type="int" name="NKREDY">     1</i>
   <i type="int" name="NKREDZ">     1</i>
   <i type="logical" name="SHIFTRED"> F  </i>
   <i type="logical" name="ODDONLY"> F  </i>
   <i type="logical" name="EVENONLY"> F  </i>
   <i type="int" name="LMAXFOCK">     0</i>
   <i type="int" name="NMAXFOCKAE">     0</i>
   <i type="logical" name="LFOCKAEDFT"> F  </i>
   <i name="HFSCREEN">      0.00000000</i>
   <i name="HFSCREENC">      0.00000000</i>
   <i type="int" name="NBANDSGWLOW">     0</i>
  </separator>
  <separator name="vdW DFT" >
   <i type="logical" name="LUSE_VDW"> F  </i>
   <i name="Zab_VDW">     -0.84910000</i>
   <i name="PARAM1">      0.12340000</i>
   <i name="PARAM2">      1.00000000</i>
   <i name="PARAM3">      0.00000000</i>
  </separator>
  <separator name="model GW" >
   <i type="int" name="MODEL_GW">     0</i>
   <i name="MODEL_EPS0">     37.63423484</i>
   <i name="MODEL_ALPHA">      1.00000000</i>
  </separator>
  <separator name="linear response parameters" >
   <i type="logical" name="LEPSILON"> F  </i>
   <i type="logical" name="LRPA"> F  </i>
   <i type="logical" name="LNABLA"> F  </i>
   <i type="logical" name="LVEL"> F  </i>
   <i type="int" name="KINTER">     0</i>
   <i name="CSHIFT">      0.10000000</i>
   <i name="OMEGAMAX">     -1.00000000</i>
   <i name="DEG_THRESHOLD">      0.00200000</i>
   <i name="RTIME">     -0.10000000</i>
   <i name="WPLASMAI">      0.00000000</i>
   <v name="DFIELD">      0.00000000      0.00000000      0.00000000</v>
   <v name="WPLASMA">      0.00000000      0.00000000      0.00000000      0.00000000      0.00000000      0.00000000      0.00000000      0.00000000      0.00000000</v>
  </separator>
  <separator name="orbital magnetization" >
   <i type="logical" name="NUCIND"> F  </i>
   <v name="MAGPOS">      0.00000000      0.00000000      0.00000000</v>
   <i type="logical" name="LNICSALL"> T  </i>
   <i type="logical" name="ORBITALMAG"> F  </i>
   <i type="logical" name="LMAGBLOCH"> F  </i>
   <i type="logical" name="LCHIMAG"> F  </i>
   <i type="logical" name="LGAUGE"> T  </i>
   <i type="int" name="MAGATOM">     0</i>
   <v name="MAGDIPOL">      0.00000000      0.00000000      0.00000000</v>
   <v name="AVECCONST">      0.00000000      0.00000000      0.00000000</v>
  </separator>
  <separator name="response functions" >
   <i type="logical" name="LFINITE_TEMPERATURE"> F  </i>
   <i type="logical" name="LADDER"> F  </i>
   <i type="logical" name="LRPAFORCE"> F  </i>
   <i type="logical" name="LFXC"> F  </i>
   <i type="logical" name="LHARTREE"> T  </i>
   <i type="int" name="IBSE">     0</i>
   <v type="int" name="KPOINT">    -1     0     0     0</v>
   <i type="logical" name="LTCTC"> F  </i>
   <i type="logical" name="LTCTE"> F  </i>
   <i type="logical" name="LTETE"> F  </i>
   <i type="logical" name="LTRIPLET"> F  </i>
   <i type="logical" name="LFXCEPS"> F  </i>
   <i type="logical" name="LFXHEG"> F  </i>
   <i type="int" name="NATURALO">     2</i>
   <i type="logical" name="LHOLEGF"> F  </i>
   <i type="logical" name="L2ORDER"> F  </i>
   <i type="logical" name="LDMP1"> F  </i>
   <i type="logical" name="LMP2LT"> F  </i>
   <i type="logical" name="LSMP2LT"> F  </i>
   <i type="logical" name="LGWLF"> F  </i>
   <i name="ENCUTGW">     -2.00000000</i>
   <i name="ENCUTGWSOFT">     -2.00000000</i>
   <i name="ENCUTLF">     -1.00000000</i>
   <i type="logical" name="LESF_SPLINES"> F  </i>
   <i type="int" name="LMAXMP2">    -1</i>
   <i name="SCISSOR">      0.00000000</i>
   <i type="int" name="NOMEGA">     0</i>
   <i type="int" name="NOMEGAR">     0</i>
   <i type="int" name="NBANDSGW">    -1</i>
   <i type="int" name="NBANDSO">    -1</i>
   <i type="int" name="NBANDSV">    -1</i>
   <i type="int" name="NELM">   600</i>
   <i type="int" name="NELMHF">     1</i>
   <i type="int" name="DIM">     3</i>
   <i type="int" name="IESPILON">     4</i>
   <i type="int" name="ANTIRES">     0</i>
   <i name="OMEGAMAX">    -30.00000000</i>
   <i name="OMEGAMIN">    -30.00000000</i>
   <i name="OMEGATL">   -200.00000000</i>
   <i type="int" name="OMEGAGRID">     0</i>
   <i name="CSHIFT">     -0.10000000</i>
   <i type="logical" name="LSELFENERGY"> F  </i>
   <i type="logical" name="LSPECTRAL"> F  </i>
   <i type="logical" name="LSPECTRALGW"> F  </i>
   <i type="logical" name="LSINGLES"> F  </i>
   <i type="logical" name="LFERMIGW"> F  </i>
   <i type="logical" name="ODDONLYGW"> F  </i>
   <i type="logical" name="EVENONLYGW"> F  </i>
   <i type="int" name="NKREDLFX">     1</i>
   <i type="int" name="NKREDLFY">     1</i>
   <i type="int" name="NKREDLFZ">     1</i>
   <i type="int" name="MAXMEM">  2800</i>
   <i type="int" name="TELESCOPE">     0</i>
   <i type="int" name="NTAUPAR">    -1</i>
   <i type="int" name="NOMEGAPAR">    -1</i>
   <i name="DAMP_NEWTON">      0.80000001</i>
   <i name="LAMBDA">      1.00000000</i>
  </separator>
  <separator name="External order field" >
   <i name="OFIELD_KAPPA">      0.00000000</i>
   <v name="OFIELD_K">      0.00000000      0.00000000      0.00000000</v>
   <i name="OFIELD_Q6_NEAR">      0.00000000</i>
   <i name="OFIELD_Q6_FAR">      0.00000000</i>
   <i name="OFIELD_A">      0.00000000</i>
  </separator>
 </parameters>
 <atominfo>
  <atoms>     325 </atoms>
  <types>       5 </types>
  <array name="atoms" >
   <dimension dim="1">ion</dimension>
   <field type="string">element</field>
   <field type="int">atomtype</field>
   <set>
    <rc><c>H </c><c>   1</c></rc>
    <rc><c>H </c><c>   1</c></rc>
    <rc><c>H </c><c>   1</c></rc>
    <rc><c>H </c><c>   1</c></rc>
    <rc><c>H </c><c>   1</c></rc>
    <rc><c>H </c><c>   1</c></rc>
    <rc><c>H </c><c>   1</c></rc>
    <rc><c>H </c><c>   1</c></rc>
    <rc><c>H </c><c>   1</c></rc>
    <rc><c>H </c><c>   1</c></rc>
    <rc><c>H </c><c>   1</c></rc>
    <rc><c>H </c><c>   1</c></rc>
    <rc><c>H </c><c>   1</c></rc>
    <rc><c>H </c><c>   1</c></rc>
    <rc><c>H </c><c>   1</c></rc>
    <rc><c>H </c><c>   1</c></rc>
    <rc><c>H </c><c>   1</c></rc>
    <rc><c>H </c><c>   1</c></rc>
    <rc><c>H </c><c>   1</c></rc>
    <rc><c>H </c><c>   1</c></rc>
    <rc><c>H </c><c>   1</c></rc>
    <rc><c>H </c><c>   1</c></rc>
    <rc><c>H </c><c>   1</c></rc>
    <rc><c>H </c><c>   1</c></rc>
    <rc><c>H </c><c>   1</c></rc>
    <rc><c>H </c><c>   1</c></rc>
    <rc><c>H </c><c>   1</c></rc>
    <rc><c>H </c><c>   1</c></rc>
    <rc><c>H </c><c>   1</c></rc>
    <rc><c>H </c><c>   1</c></rc>
    <rc><c>H </c><c>   1</c></rc>
    <rc><c>H </c><c>   1</c></rc>
    <rc><c>H </c><c>   1</c></rc>
    <rc><c>H </c><c>   1</c></rc>
    <rc><c>H </c><c>   1</c></rc>
    <rc><c>H </c><c>   1</c></rc>
    <rc><c>H </c><c>   1</c></rc>
    <rc><c>H </c><c>   1</c></rc>
    <rc><c>H </c><c>   1</c></rc>
    <rc><c>H </c><c>   1</c></rc>
    <rc><c>H </c><c>   1</c></rc>
    <rc><c>H </c><c>   1</c></rc>
    <rc><c>H </c><c>   1</c></rc>
    <rc><c>H </c><c>   1</c></rc>
    <rc><c>H </c><c>   1</c></rc>
    <rc><c>H </c><c>   1</c></rc>
    <rc><c>H </c><c>   1</c></rc>
    <rc><c>H </c><c>   1</c></rc>
    <rc><c>H </c><c>   1</c></rc>
    <rc><c>H </c><c>   1</c></rc>
    <rc><c>H </c><c>   1</c></rc>
    <rc><c>H </c><c>   1</c></rc>
    <rc><c>H </c><c>   1</c></rc>
    <rc><c>H </c><c>   1</c></rc>
    <rc><c>H </c><c>   1</c></rc>
    <rc><c>H </c><c>   1</c></rc>
    <rc><c>H </c><c>   1</c></rc>
    <rc><c>H </c><c>   1</c></rc>
    <rc><c>H </c><c>   1</c></rc>
    <rc><c>H </c><c>   1</c></rc>
    <rc><c>H </c><c>   1</c></rc>
    <rc><c>H </c><c>   1</c></rc>
    <rc><c>H </c><c>   1</c></rc>
    <rc><c>H </c><c>   1</c></rc>
    <rc><c>H </c><c>   1</c></rc>
    <rc><c>H </c><c>   1</c></rc>
    <rc><c>H </c><c>   1</c></rc>
    <rc><c>H </c><c>   1</c></rc>
    <rc><c>H </c><c>   1</c></rc>
    <rc><c>H </c><c>   1</c></rc>
    <rc><c>H </c><c>   1</c></rc>
    <rc><c>H </c><c>   1</c></rc>
    <rc><c>H </c><c>   1</c></rc>
    <rc><c>H </c><c>   1</c></rc>
    <rc><c>H </c><c>   1</c></rc>
    <rc><c>H </c><c>   1</c></rc>
    <rc><c>H </c><c>   1</c></rc>
    <rc><c>H </c><c>   1</c></rc>
    <rc><c>H </c><c>   1</c></rc>
    <rc><c>H </c><c>   1</c></rc>
    <rc><c>H </c><c>   1</c></rc>
    <rc><c>H </c><c>   1</c></rc>
    <rc><c>H </c><c>   1</c></rc>
    <rc><c>H </c><c>   1</c></rc>
    <rc><c>H </c><c>   1</c></rc>
    <rc><c>H </c><c>   1</c></rc>
    <rc><c>H </c><c>   1</c></rc>
    <rc><c>H </c><c>   1</c></rc>
    <rc><c>H </c><c>   1</c></rc>
    <rc><c>H </c><c>   1</c></rc>
    <rc><c>H </c><c>   1</c></rc>
    <rc><c>H </c><c>   1</c></rc>
    <rc><c>H </c><c>   1</c></rc>
    <rc><c>H </c><c>   1</c></rc>
    <rc><c>H </c><c>   1</c></rc>
    <rc><c>H </c><c>   1</c></rc>
    <rc><c>H </c><c>   1</c></rc>
    <rc><c>H </c><c>   1</c></rc>
    <rc><c>H </c><c>   1</c></rc>
    <rc><c>H </c><c>   1</c></rc>
    <rc><c>H </c><c>   1</c></rc>
    <rc><c>H </c><c>   1</c></rc>
    <rc><c>H </c><c>   1</c></rc>
    <rc><c>H </c><c>   1</c></rc>
    <rc><c>H </c><c>   1</c></rc>
    <rc><c>H </c><c>   1</c></rc>
    <rc><c>H </c><c>   1</c></rc>
    <rc><c>H </c><c>   1</c></rc>
    <rc><c>H </c><c>   1</c></rc>
    <rc><c>H </c><c>   1</c></rc>
    <rc><c>H </c><c>   1</c></rc>
    <rc><c>H </c><c>   1</c></rc>
    <rc><c>H </c><c>   1</c></rc>
    <rc><c>H </c><c>   1</c></rc>
    <rc><c>H </c><c>   1</c></rc>
    <rc><c>H </c><c>   1</c></rc>
    <rc><c>H </c><c>   1</c></rc>
    <rc><c>H </c><c>   1</c></rc>
    <rc><c>H </c><c>   1</c></rc>
    <rc><c>H </c><c>   1</c></rc>
    <rc><c>H </c><c>   1</c></rc>
    <rc><c>H </c><c>   1</c></rc>
    <rc><c>H </c><c>   1</c></rc>
    <rc><c>H </c><c>   1</c></rc>
    <rc><c>H </c><c>   1</c></rc>
    <rc><c>H </c><c>   1</c></rc>
    <rc><c>H </c><c>   1</c></rc>
    <rc><c>H </c><c>   1</c></rc>
    <rc><c>H </c><c>   1</c></rc>
    <rc><c>H </c><c>   1</c></rc>
    <rc><c>H </c><c>   1</c></rc>
    <rc><c>H </c><c>   1</c></rc>
    <rc><c>H </c><c>   1</c></rc>
    <rc><c>H </c><c>   1</c></rc>
    <rc><c>H </c><c>   1</c></rc>
    <rc><c>H </c><c>   1</c></rc>
    <rc><c>H </c><c>   1</c></rc>
    <rc><c>H </c><c>   1</c></rc>
    <rc><c>H </c><c>   1</c></rc>
    <rc><c>H </c><c>   1</c></rc>
    <rc><c>H </c><c>   1</c></rc>
    <rc><c>H </c><c>   1</c></rc>
    <rc><c>H </c><c>   1</c></rc>
    <rc><c>C </c><c>   2</c></rc>
    <rc><c>C </c><c>   2</c></rc>
    <rc><c>C </c><c>   2</c></rc>
    <rc><c>C </c><c>   2</c></rc>
    <rc><c>C </c><c>   2</c></rc>
    <rc><c>C </c><c>   2</c></rc>
    <rc><c>C </c><c>   2</c></rc>
    <rc><c>C </c><c>   2</c></rc>
    <rc><c>C </c><c>   2</c></rc>
    <rc><c>C </c><c>   2</c></rc>
    <rc><c>C </c><c>   2</c></rc>
    <rc><c>C </c><c>   2</c></rc>
    <rc><c>C </c><c>   2</c></rc>
    <rc><c>C </c><c>   2</c></rc>
    <rc><c>C </c><c>   2</c></rc>
    <rc><c>C </c><c>   2</c></rc>
    <rc><c>C </c><c>   2</c></rc>
    <rc><c>C </c><c>   2</c></rc>
    <rc><c>C </c><c>   2</c></rc>
    <rc><c>C </c><c>   2</c></rc>
    <rc><c>C </c><c>   2</c></rc>
    <rc><c>C </c><c>   2</c></rc>
    <rc><c>C </c><c>   2</c></rc>
    <rc><c>C </c><c>   2</c></rc>
    <rc><c>C </c><c>   2</c></rc>
    <rc><c>C </c><c>   2</c></rc>
    <rc><c>C </c><c>   2</c></rc>
    <rc><c>C </c><c>   2</c></rc>
    <rc><c>C </c><c>   2</c></rc>
    <rc><c>C </c><c>   2</c></rc>
    <rc><c>C </c><c>   2</c></rc>
    <rc><c>C </c><c>   2</c></rc>
    <rc><c>C </c><c>   2</c></rc>
    <rc><c>C </c><c>   2</c></rc>
    <rc><c>C </c><c>   2</c></rc>
    <rc><c>C </c><c>   2</c></rc>
    <rc><c>C </c><c>   2</c></rc>
    <rc><c>C </c><c>   2</c></rc>
    <rc><c>C </c><c>   2</c></rc>
    <rc><c>N </c><c>   3</c></rc>
    <rc><c>N </c><c>   3</c></rc>
    <rc><c>N </c><c>   3</c></rc>
    <rc><c>N </c><c>   3</c></rc>
    <rc><c>N </c><c>   3</c></rc>
    <rc><c>N </c><c>   3</c></rc>
    <rc><c>N </c><c>   3</c></rc>
    <rc><c>N </c><c>   3</c></rc>
    <rc><c>N </c><c>   3</c></rc>
    <rc><c>N </c><c>   3</c></rc>
    <rc><c>N </c><c>   3</c></rc>
    <rc><c>N </c><c>   3</c></rc>
    <rc><c>N </c><c>   3</c></rc>
    <rc><c>N </c><c>   3</c></rc>
    <rc><c>N </c><c>   3</c></rc>
    <rc><c>N </c><c>   3</c></rc>
    <rc><c>N </c><c>   3</c></rc>
    <rc><c>N </c><c>   3</c></rc>
    <rc><c>N </c><c>   3</c></rc>
    <rc><c>N </c><c>   3</c></rc>
    <rc><c>N </c><c>   3</c></rc>
    <rc><c>N </c><c>   3</c></rc>
    <rc><c>N </c><c>   3</c></rc>
    <rc><c>N </c><c>   3</c></rc>
    <rc><c>N </c><c>   3</c></rc>
    <rc><c>N </c><c>   3</c></rc>
    <rc><c>N </c><c>   3</c></rc>
    <rc><c>N </c><c>   3</c></rc>
    <rc><c>N </c><c>   3</c></rc>
    <rc><c>N </c><c>   3</c></rc>
    <rc><c>N </c><c>   3</c></rc>
    <rc><c>N </c><c>   3</c></rc>
    <rc><c>N </c><c>   3</c></rc>
    <rc><c>N </c><c>   3</c></rc>
    <rc><c>N </c><c>   3</c></rc>
    <rc><c>N </c><c>   3</c></rc>
    <rc><c>N </c><c>   3</c></rc>
    <rc><c>N </c><c>   3</c></rc>
    <rc><c>N </c><c>   3</c></rc>
    <rc><c>N </c><c>   3</c></rc>
    <rc><c>N </c><c>   3</c></rc>
    <rc><c>N </c><c>   3</c></rc>
    <rc><c>N </c><c>   3</c></rc>
    <rc><c>N </c><c>   3</c></rc>
    <rc><c>N </c><c>   3</c></rc>
    <rc><c>N </c><c>   3</c></rc>
    <rc><c>N </c><c>   3</c></rc>
    <rc><c>I </c><c>   4</c></rc>
    <rc><c>I </c><c>   4</c></rc>
    <rc><c>I </c><c>   4</c></rc>
    <rc><c>I </c><c>   4</c></rc>
    <rc><c>I </c><c>   4</c></rc>
    <rc><c>I </c><c>   4</c></rc>
    <rc><c>I </c><c>   4</c></rc>
    <rc><c>I </c><c>   4</c></rc>
    <rc><c>I </c><c>   4</c></rc>
    <rc><c>I </c><c>   4</c></rc>
    <rc><c>I </c><c>   4</c></rc>
    <rc><c>I </c><c>   4</c></rc>
    <rc><c>I </c><c>   4</c></rc>
    <rc><c>I </c><c>   4</c></rc>
    <rc><c>I </c><c>   4</c></rc>
    <rc><c>I </c><c>   4</c></rc>
    <rc><c>I </c><c>   4</c></rc>
    <rc><c>I </c><c>   4</c></rc>
    <rc><c>I </c><c>   4</c></rc>
    <rc><c>I </c><c>   4</c></rc>
    <rc><c>I </c><c>   4</c></rc>
    <rc><c>I </c><c>   4</c></rc>
    <rc><c>I </c><c>   4</c></rc>
    <rc><c>I </c><c>   4</c></rc>
    <rc><c>I </c><c>   4</c></rc>
    <rc><c>I </c><c>   4</c></rc>
    <rc><c>I </c><c>   4</c></rc>
    <rc><c>I </c><c>   4</c></rc>
    <rc><c>I </c><c>   4</c></rc>
    <rc><c>I </c><c>   4</c></rc>
    <rc><c>I </c><c>   4</c></rc>
    <rc><c>I </c><c>   4</c></rc>
    <rc><c>I </c><c>   4</c></rc>
    <rc><c>I </c><c>   4</c></rc>
    <rc><c>I </c><c>   4</c></rc>
    <rc><c>I </c><c>   4</c></rc>
    <rc><c>I </c><c>   4</c></rc>
    <rc><c>I </c><c>   4</c></rc>
    <rc><c>I </c><c>   4</c></rc>
    <rc><c>I </c><c>   4</c></rc>
    <rc><c>I </c><c>   4</c></rc>
    <rc><c>I </c><c>   4</c></rc>
    <rc><c>I </c><c>   4</c></rc>
    <rc><c>I </c><c>   4</c></rc>
    <rc><c>I </c><c>   4</c></rc>
    <rc><c>I </c><c>   4</c></rc>
    <rc><c>I </c><c>   4</c></rc>
    <rc><c>I </c><c>   4</c></rc>
    <rc><c>I </c><c>   4</c></rc>
    <rc><c>I </c><c>   4</c></rc>
    <rc><c>I </c><c>   4</c></rc>
    <rc><c>I </c><c>   4</c></rc>
    <rc><c>I </c><c>   4</c></rc>
    <rc><c>I </c><c>   4</c></rc>
    <rc><c>I </c><c>   4</c></rc>
    <rc><c>I </c><c>   4</c></rc>
    <rc><c>I </c><c>   4</c></rc>
    <rc><c>I </c><c>   4</c></rc>
    <rc><c>I </c><c>   4</c></rc>
    <rc><c>I </c><c>   4</c></rc>
    <rc><c>I </c><c>   4</c></rc>
    <rc><c>I </c><c>   4</c></rc>
    <rc><c>I </c><c>   4</c></rc>
    <rc><c>I </c><c>   4</c></rc>
    <rc><c>I </c><c>   4</c></rc>
    <rc><c>I </c><c>   4</c></rc>
    <rc><c>I </c><c>   4</c></rc>
    <rc><c>I </c><c>   4</c></rc>
    <rc><c>I </c><c>   4</c></rc>
    <rc><c>I </c><c>   4</c></rc>
    <rc><c>I </c><c>   4</c></rc>
    <rc><c>I </c><c>   4</c></rc>
    <rc><c>Pb</c><c>   5</c></rc>
    <rc><c>Pb</c><c>   5</c></rc>
    <rc><c>Pb</c><c>   5</c></rc>
    <rc><c>Pb</c><c>   5</c></rc>
    <rc><c>Pb</c><c>   5</c></rc>
    <rc><c>Pb</c><c>   5</c></rc>
    <rc><c>Pb</c><c>   5</c></rc>
    <rc><c>Pb</c><c>   5</c></rc>
    <rc><c>Pb</c><c>   5</c></rc>
    <rc><c>Pb</c><c>   5</c></rc>
    <rc><c>Pb</c><c>   5</c></rc>
    <rc><c>Pb</c><c>   5</c></rc>
    <rc><c>Pb</c><c>   5</c></rc>
    <rc><c>Pb</c><c>   5</c></rc>
    <rc><c>Pb</c><c>   5</c></rc>
    <rc><c>Pb</c><c>   5</c></rc>
    <rc><c>Pb</c><c>   5</c></rc>
    <rc><c>Pb</c><c>   5</c></rc>
    <rc><c>Pb</c><c>   5</c></rc>
    <rc><c>Pb</c><c>   5</c></rc>
    <rc><c>Pb</c><c>   5</c></rc>
    <rc><c>Pb</c><c>   5</c></rc>
    <rc><c>Pb</c><c>   5</c></rc>
    <rc><c>Pb</c><c>   5</c></rc>
   </set>
  </array>
  <array name="atomtypes" >
   <dimension dim="1">type</dimension>
   <field type="int">atomspertype</field>
   <field type="string">element</field>
   <field>mass</field>
   <field>valence</field>
   <field type="string">pseudopotential</field>
   <set>
    <rc><c> 143</c><c>H </c><c>      1.00000000</c><c>      1.00000000</c><c>  PAW_PBE H 15Jun2001                   </c></rc>
    <rc><c>  39</c><c>C </c><c>     12.01100000</c><c>      4.00000000</c><c>  PAW_PBE C 08Apr2002                   </c></rc>
    <rc><c>  47</c><c>N </c><c>     14.00100000</c><c>      5.00000000</c><c>  PAW_PBE N 08Apr2002                   </c></rc>
    <rc><c>  72</c><c>I </c><c>    126.90400000</c><c>      7.00000000</c><c>  PAW_PBE I 08Apr2002                   </c></rc>
    <rc><c>  24</c><c>Pb</c><c>    207.20000000</c><c>      4.00000000</c><c>  PAW_PBE Pb 08Apr2002                  </c></rc>
   </set>
  </array>
 </atominfo>
 <structure name="initialpos" >
  <crystal>
   <varray name="basis" >
    <v>      18.06080055       0.00000000       0.00000000 </v>
    <v>      -0.00491865      18.06279945       0.00000000 </v>
    <v>       0.00000000       0.00000000      62.48749924 </v>
   </varray>
   <i name="volume">  20385.21054034 </i>
   <varray name="rec_basis" >
    <v>       0.05536853       0.00001508      -0.00000000 </v>
    <v>       0.00000000       0.05536240       0.00000000 </v>
    <v>       0.00000000      -0.00000000       0.01600320 </v>
   </varray>
  </crystal>
  <varray name="positions" >
   <v>       0.41003704       0.27774725       0.56665570 </v>
   <v>       0.41202993       0.70259255       0.57316878 </v>
   <v>       0.92884961       0.28875235       0.58112691 </v>
   <v>       0.93199329       0.81405235       0.57371778 </v>
   <v>       0.32346366       0.09164834       0.56588497 </v>
   <v>       0.31793578       0.57673402       0.56978871 </v>
   <v>       0.80206764       0.09805618       0.56940802 </v>
   <v>       0.11074472       0.24023390       0.56223446 </v>
   <v>       0.08055805       0.67981704       0.56932292 </v>
   <v>       0.59122740       0.18916496       0.56509795 </v>
   <v>       0.60180956       0.74779108       0.55905341 </v>
   <v>       0.37771944       0.02051482       0.55522903 </v>
   <v>       0.25312196       0.62316157       0.55428811 </v>
   <v>       0.87468581       0.04432101       0.55889523 </v>
   <v>       0.06301219       0.28629314       0.58266573 </v>
   <v>       0.99516607       0.69381704       0.58174551 </v>
   <v>       0.49808370       0.17213906       0.57216321 </v>
   <v>       0.54841736       0.68867180       0.57503475 </v>
   <v>       0.30574089       0.43997453       0.57307922 </v>
   <v>       0.18898613       0.06633105       0.56991233 </v>
   <v>       0.67921103       0.03262381       0.57289639 </v>
   <v>       0.45042562       0.36071689       0.55812225 </v>
   <v>       0.37684546       0.77049213       0.55631519 </v>
   <v>       0.88496790       0.23888191       0.56071377 </v>
   <v>       0.97836960       0.87306318       0.55644729 </v>
   <v>       0.23380364       0.39958144       0.55898833 </v>
   <v>       0.15480857       0.98645770       0.55841626 </v>
   <v>       0.67708442       0.94230324       0.56321220 </v>
   <v>       0.56712316       0.30956909       0.55459603 </v>
   <v>       0.49687010       0.80785153       0.54541573 </v>
   <v>       0.99954811       0.20087901       0.54597028 </v>
   <v>       0.07535988       0.79081397       0.55088136 </v>
   <v>       0.18932486       0.51249574       0.54619561 </v>
   <v>       0.27462319       0.94550099       0.54851034 </v>
   <v>       0.79926954       0.94243686       0.55324341 </v>
   <v>       0.45321617       0.29355665       0.67374383 </v>
   <v>       0.43968134       0.81130085       0.67158806 </v>
   <v>       0.96074254       0.28198123       0.67818478 </v>
   <v>       0.91667728       0.74183777       0.66875345 </v>
   <v>       0.29879951       0.04159484       0.67501648 </v>
   <v>       0.30448504       0.55624814       0.67413496 </v>
   <v>       0.79492369       0.05427243       0.67511440 </v>
   <v>       0.82733677       0.50462994       0.66998978 </v>
   <v>       0.09014687       0.17097303       0.64660553 </v>
   <v>       0.10456771       0.69692651       0.65212854 </v>
   <v>       0.57697909       0.16430683       0.64627550 </v>
   <v>       0.57508550       0.67770091       0.65115697 </v>
   <v>       0.18593348       0.41291943       0.65060559 </v>
   <v>       0.16308283       0.93142160       0.64559611 </v>
   <v>       0.64200213       0.45847440       0.65118725 </v>
   <v>       0.67599736       0.91653095       0.64910517 </v>
   <v>       0.06578127       0.18727925       0.67320502 </v>
   <v>       0.02903088       0.65802828       0.66530629 </v>
   <v>       0.54394285       0.18421154       0.67174929 </v>
   <v>       0.54330615       0.71216973       0.67532038 </v>
   <v>       0.21640307       0.44334384       0.67557433 </v>
   <v>       0.18602244       0.95413306       0.67192516 </v>
   <v>       0.70247403       0.43563097       0.67159435 </v>
   <v>       0.69751403       0.94914355       0.67473334 </v>
   <v>       0.43922094       0.34031995       0.64981741 </v>
   <v>       0.41390223       0.82993221       0.64541541 </v>
   <v>       0.92568019       0.31971446       0.65456549 </v>
   <v>       0.92703385       0.83087491       0.65780399 </v>
   <v>       0.34151493       0.06201146       0.65099337 </v>
   <v>       0.32073081       0.58956914       0.64864054 </v>
   <v>       0.82739183       0.07978479       0.65008559 </v>
   <v>       0.83700857       0.56662558       0.64906055 </v>
   <v>       0.00365619       0.25265699       0.63272061 </v>
   <v>       0.04503040       0.80846419       0.64523635 </v>
   <v>       0.51425240       0.26265901       0.63030112 </v>
   <v>       0.49809709       0.74849038       0.63056973 </v>
   <v>       0.25791272       0.99517894       0.63052742 </v>
   <v>       0.24832172       0.50237056       0.63185666 </v>
   <v>       0.75617341       0.99425547       0.63197607 </v>
   <v>       0.72030174       0.54236276       0.63518686 </v>
   <v>       0.44874502       0.30128397       0.76888902 </v>
   <v>       0.44874501       0.80128391       0.76888902 </v>
   <v>       0.94874497       0.30128397       0.76888902 </v>
   <v>       0.94874501       0.80128391       0.76888902 </v>
   <v>       0.30127600       0.05129450       0.76887296 </v>
   <v>       0.30127601       0.55129450       0.76887296 </v>
   <v>       0.80127594       0.05129450       0.76887296 </v>
   <v>       0.80127598       0.55129450       0.76887296 </v>
   <v>       0.07877100       0.17118050       0.74344197 </v>
   <v>       0.07877101       0.67118045       0.74344197 </v>
   <v>       0.57877100       0.17118050       0.74344197 </v>
   <v>       0.57877099       0.67118045       0.74344197 </v>
   <v>       0.17119950       0.42117448       0.74342103 </v>
   <v>       0.17119950       0.92117451       0.74342103 </v>
   <v>       0.67119951       0.42117448       0.74342103 </v>
   <v>       0.67119950       0.92117451       0.74342103 </v>
   <v>       0.05125600       0.19871499       0.76888902 </v>
   <v>       0.05125600       0.69871493       0.76888902 </v>
   <v>       0.55125603       0.19871499       0.76888902 </v>
   <v>       0.55125602       0.69871493       0.76888902 </v>
   <v>       0.19872349       0.44870397       0.76887205 </v>
   <v>       0.19872349       0.94870397       0.76887205 </v>
   <v>       0.69872352       0.44870397       0.76887205 </v>
   <v>       0.69872351       0.94870397       0.76887205 </v>
   <v>       0.42123152       0.32881747       0.74344197 </v>
   <v>       0.42123151       0.82881744       0.74344197 </v>
   <v>       0.92123147       0.32881747       0.74344197 </v>
   <v>       0.92123151       0.82881744       0.74344197 </v>
   <v>       0.32880050       0.07882500       0.74342103 </v>
   <v>       0.32880049       0.57882496       0.74342103 </v>
   <v>       0.82880048       0.07882500       0.74342103 </v>
   <v>       0.82880052       0.57882496       0.74342103 </v>
   <v>       0.00000350       0.25000148       0.72582199 </v>
   <v>       0.00000350       0.75000145       0.72582199 </v>
   <v>       0.50000351       0.25000148       0.72582199 </v>
   <v>       0.50000350       0.75000145       0.72582199 </v>
   <v>       0.25000050       0.00000000       0.72580398 </v>
   <v>       0.25000052       0.50000000       0.72580398 </v>
   <v>       0.75000050       0.00000000       0.72580398 </v>
   <v>       0.75000049       0.50000000       0.72580398 </v>
   <v>       0.80013745       0.50888416       0.51482367 </v>
   <v>       0.87921910       0.50053310       0.53137496 </v>
   <v>       0.76340115       0.62338823       0.53229989 </v>
   <v>       0.76242244       0.62687399       0.56034834 </v>
   <v>       0.68607855       0.44929203       0.55076104 </v>
   <v>       0.67062336       0.54132693       0.55851741 </v>
   <v>       0.79803756       0.42825444       0.56729431 </v>
   <v>       0.86721150       0.49698768       0.56896396 </v>
   <v>       0.85805416       0.37602096       0.53936771 </v>
   <v>       0.76302564       0.37800333       0.53339337 </v>
   <v>       0.78200353       0.38180506       0.49582979 </v>
   <v>       0.87480024       0.40865884       0.49800799 </v>
   <v>       0.89849905       0.61902355       0.53064581 </v>
   <v>       0.90683472       0.60581494       0.55866112 </v>
   <v>       0.87014059       0.68998778       0.54841059 </v>
   <v>       0.60048203       0.51552934       0.52674879 </v>
   <v>       0.67976644       0.48718969       0.51165843 </v>
   <v>       0.66774842       0.58148549       0.51959446 </v>
   <v>       0.70908142       0.50692896       0.58815847 </v>
   <v>       0.77893378       0.57603276       0.59090261 </v>
   <v>       0.79175170       0.48653701       0.60193705 </v>
   <v>       0.82263706       0.25573404       0.51338705 </v>
   <v>       0.84403039       0.27522775       0.48669750 </v>
   <v>       0.92424884       0.16001091       0.49846866 </v>
   <v>       0.97245542       0.38415767       0.51775828 </v>
   <v>       0.05589123       0.12699278       0.50367514 </v>
   <v>       0.10111826       0.35247585       0.52284505 </v>
   <v>       0.14653589       0.22346789       0.51549373 </v>
   <v>       0.99814374       0.23613194       0.55999482 </v>
   <v>       0.02811235       0.77422546       0.56072427 </v>
   <v>       0.52155395       0.27441112       0.55991802 </v>
   <v>       0.49028271       0.76135861       0.55643386 </v>
   <v>       0.23991294       0.51129095       0.55574726 </v>
   <v>       0.26668639       0.00006434       0.55579104 </v>
   <v>       0.77591188       0.99261065       0.56021093 </v>
   <v>       0.00729483       0.24565789       0.65003236 </v>
   <v>       0.01614266       0.76517752       0.65404006 </v>
   <v>       0.50820626       0.25247022       0.64730690 </v>
   <v>       0.49511834       0.75393240       0.64778105 </v>
   <v>       0.25361666       0.50107618       0.64916091 </v>
   <v>       0.25228622       0.99672958       0.64781316 </v>
   <v>       0.73932886       0.51343960       0.64940668 </v>
   <v>       0.75217559       0.99770427       0.64924283 </v>
   <v>       0.49998898       0.24999498       0.74327702 </v>
   <v>       0.49998903       0.74999496       0.74327702 </v>
   <v>       0.99998898       0.24999498       0.74327702 </v>
   <v>       0.99998903       0.74999496       0.74327702 </v>
   <v>       0.25000050       0.00000100       0.74325596 </v>
   <v>       0.25000052       0.50000100       0.74325596 </v>
   <v>       0.75000050       0.00000100       0.74325596 </v>
   <v>       0.75000049       0.50000100       0.74325596 </v>
   <v>       0.93729505       0.27493641       0.50740575 </v>
   <v>       0.96313215       0.20206803       0.50383087 </v>
   <v>       0.98878608       0.32754325       0.51422510 </v>
   <v>       0.03769757       0.18401813       0.50649620 </v>
   <v>       0.06352593       0.30981388       0.51709140 </v>
   <v>       0.08847957       0.23828226       0.51315989 </v>
   <v>       0.82122198       0.48413434       0.52951948 </v>
   <v>       0.79213408       0.60336755       0.54664339 </v>
   <v>       0.69587107       0.50687584       0.54606692 </v>
   <v>       0.80710389       0.48762200       0.56868680 </v>
   <v>       0.81713493       0.39980419       0.52831081 </v>
   <v>       0.83264209       0.37295973       0.50537757 </v>
   <v>       0.87163597       0.62961968       0.54610660 </v>
   <v>       0.66059498       0.52377576       0.52459711 </v>
   <v>       0.76881461       0.51707615       0.58830798 </v>
   <v>       0.85678331       0.29253766       0.50315575 </v>
   <v>       0.06095697       0.25448110       0.56907293 </v>
   <v>       0.03302191       0.71020935       0.57043624 </v>
   <v>       0.53666169       0.20542648       0.56496359 </v>
   <v>       0.55007790       0.72734115       0.56317996 </v>
   <v>       0.45494862       0.30448108       0.56052965 </v>
   <v>       0.42248098       0.74303516       0.56183149 </v>
   <v>       0.93332992       0.25744894       0.56735035 </v>
   <v>       0.97193089       0.82012578       0.56228806 </v>
   <v>       0.26177162       0.44651925       0.56281270 </v>
   <v>       0.19910011       0.01936561       0.56128805 </v>
   <v>       0.70523671       0.99047209       0.56495730 </v>
   <v>       0.32585634       0.04095214       0.55873004 </v>
   <v>       0.27363087       0.57445411       0.55953849 </v>
   <v>       0.82017174       0.04916250       0.56300494 </v>
   <v>       0.05656705       0.19867717       0.65726806 </v>
   <v>       0.05111108       0.70246346       0.65734931 </v>
   <v>       0.54423934       0.19698510       0.65580298 </v>
   <v>       0.54015554       0.71224185       0.65889753 </v>
   <v>       0.21641969       0.44917925       0.65924526 </v>
   <v>       0.19642395       0.95884036       0.65587545 </v>
   <v>       0.69292911       0.46592579       0.65797902 </v>
   <v>       0.70595770       0.95152965       0.65847960 </v>
   <v>       0.46446564       0.29800380       0.65776224 </v>
   <v>       0.44702519       0.80088091       0.65562228 </v>
   <v>       0.96160386       0.28487043       0.66188696 </v>
   <v>       0.94855579       0.77973532       0.66066132 </v>
   <v>       0.30045076       0.03628775       0.65868424 </v>
   <v>       0.29518638       0.55154349       0.65809995 </v>
   <v>       0.79340577       0.04677723       0.65896896 </v>
   <v>       0.80563242       0.52834593       0.65662572 </v>
   <v>       0.04586250       0.20411950       0.75272599 </v>
   <v>       0.04586250       0.70411946       0.75272599 </v>
   <v>       0.54586251       0.20411950       0.75272599 </v>
   <v>       0.54586250       0.70411946       0.75272599 </v>
   <v>       0.20411900       0.45410100       0.75270499 </v>
   <v>       0.20411899       0.95410095       0.75270499 </v>
   <v>       0.70411898       0.45410100       0.75270499 </v>
   <v>       0.70411896       0.95410095       0.75270499 </v>
   <v>       0.45414002       0.29588849       0.75272697 </v>
   <v>       0.45414001       0.79588852       0.75272697 </v>
   <v>       0.95414002       0.29588849       0.75272697 </v>
[...]
   <v>       0.59122740       0.18916496       0.56509795 </v>
   <v>       0.60180956       0.74779108       0.55905341 </v>
   <v>       0.37771944       0.02051482       0.55522903 </v>
   <v>       0.25312196       0.62316157       0.55428811 </v>
   <v>       0.87468581       0.04432101       0.55889523 </v>
   <v>       0.06301219       0.28629314       0.58266573 </v>
   <v>       0.99516607       0.69381704       0.58174551 </v>
   <v>       0.49808370       0.17213906       0.57216321 </v>
   <v>       0.54841736       0.68867180       0.57503475 </v>
   <v>       0.30574089       0.43997453       0.57307922 </v>
   <v>       0.18898613       0.06633105       0.56991233 </v>
   <v>       0.67921103       0.03262381       0.57289639 </v>
   <v>       0.45042562       0.36071689       0.55812225 </v>
   <v>       0.37684546       0.77049213       0.55631519 </v>
   <v>       0.88496790       0.23888191       0.56071377 </v>
   <v>       0.97836960       0.87306318       0.55644729 </v>
   <v>       0.23380364       0.39958144       0.55898833 </v>
   <v>       0.15480857       0.98645770       0.55841626 </v>
   <v>       0.67708442       0.94230324       0.56321220 </v>
   <v>       0.56712316       0.30956909       0.55459603 </v>
   <v>       0.49687010       0.80785153       0.54541573 </v>
   <v>       0.99954811       0.20087901       0.54597028 </v>
   <v>       0.07535988       0.79081397       0.55088136 </v>
   <v>       0.18932486       0.51249574       0.54619561 </v>
   <v>       0.27462319       0.94550099       0.54851034 </v>
   <v>       0.79926954       0.94243686       0.55324341 </v>
   <v>       0.45321617       0.29355665       0.67374383 </v>
   <v>       0.43968134       0.81130085       0.67158806 </v>
   <v>       0.96074254       0.28198123       0.67818478 </v>
   <v>       0.91667728       0.74183777       0.66875345 </v>
   <v>       0.29879951       0.04159484       0.67501648 </v>
   <v>       0.30448504       0.55624814       0.67413496 </v>
   <v>       0.79492369       0.05427243       0.67511440 </v>
   <v>       0.82733677       0.50462994       0.66998978 </v>
   <v>       0.09014687       0.17097303       0.64660553 </v>
   <v>       0.10456771       0.69692651       0.65212854 </v>
   <v>       0.57697909       0.16430683       0.64627550 </v>
   <v>       0.57508550       0.67770091       0.65115697 </v>
   <v>       0.18593348       0.41291943       0.65060559 </v>
   <v>       0.16308283       0.93142160       0.64559611 </v>
   <v>       0.64200213       0.45847440       0.65118725 </v>
   <v>       0.67599736       0.91653095       0.64910517 </v>
   <v>       0.06578127       0.18727925       0.67320502 </v>
   <v>       0.02903088       0.65802828       0.66530629 </v>
   <v>       0.54394285       0.18421154       0.67174929 </v>
   <v>       0.54330615       0.71216973       0.67532038 </v>
   <v>       0.21640307       0.44334384       0.67557433 </v>
   <v>       0.18602244       0.95413306       0.67192516 </v>
   <v>       0.70247403       0.43563097       0.67159435 </v>
   <v>       0.69751403       0.94914355       0.67473334 </v>
   <v>       0.43922094       0.34031995       0.64981741 </v>
   <v>       0.41390223       0.82993221       0.64541541 </v>
   <v>       0.92568019       0.31971446       0.65456549 </v>
   <v>       0.92703385       0.83087491       0.65780399 </v>
   <v>       0.34151493       0.06201146       0.65099337 </v>
   <v>       0.32073081       0.58956914       0.64864054 </v>
   <v>       0.82739183       0.07978479       0.65008559 </v>
   <v>       0.83700857       0.56662558       0.64906055 </v>
   <v>       0.00365619       0.25265699       0.63272061 </v>
   <v>       0.04503040       0.80846419       0.64523635 </v>
   <v>       0.51425240       0.26265901       0.63030112 </v>
   <v>       0.49809709       0.74849038       0.63056973 </v>
   <v>       0.25791272       0.99517894       0.63052742 </v>
   <v>       0.24832172       0.50237056       0.63185666 </v>
   <v>       0.75617341       0.99425547       0.63197607 </v>
   <v>       0.72030174       0.54236276       0.63518686 </v>
   <v>       0.44874502       0.30128397       0.76888902 </v>
   <v>       0.44874501       0.80128391       0.76888902 </v>
   <v>       0.94874497       0.30128397       0.76888902 </v>
   <v>       0.94874501       0.80128391       0.76888902 </v>
   <v>       0.30127600       0.05129450       0.76887296 </v>
   <v>       0.30127601       0.55129450       0.76887296 </v>
   <v>       0.80127594       0.05129450       0.76887296 </v>
   <v>       0.80127598       0.55129450       0.76887296 </v>
   <v>       0.07877100       0.17118050       0.74344197 </v>
   <v>       0.07877101       0.67118045       0.74344197 </v>
   <v>       0.57877100       0.17118050       0.74344197 </v>
   <v>       0.57877099       0.67118045       0.74344197 </v>
   <v>       0.17119950       0.42117448       0.74342103 </v>
   <v>       0.17119950       0.92117451       0.74342103 </v>
   <v>       0.67119951       0.42117448       0.74342103 </v>
   <v>       0.67119950       0.92117451       0.74342103 </v>
   <v>       0.05125600       0.19871499       0.76888902 </v>
   <v>       0.05125600       0.69871493       0.76888902 </v>
   <v>       0.55125603       0.19871499       0.76888902 </v>
   <v>       0.55125602       0.69871493       0.76888902 </v>
   <v>       0.19872349       0.44870397       0.76887205 </v>
   <v>       0.19872349       0.94870397       0.76887205 </v>
   <v>       0.69872352       0.44870397       0.76887205 </v>
   <v>       0.69872351       0.94870397       0.76887205 </v>
   <v>       0.42123152       0.32881747       0.74344197 </v>
   <v>       0.42123151       0.82881744       0.74344197 </v>
   <v>       0.92123147       0.32881747       0.74344197 </v>
   <v>       0.92123151       0.82881744       0.74344197 </v>
   <v>       0.32880050       0.07882500       0.74342103 </v>
   <v>       0.32880049       0.57882496       0.74342103 </v>
   <v>       0.82880048       0.07882500       0.74342103 </v>
   <v>       0.82880052       0.57882496       0.74342103 </v>
   <v>       0.00000350       0.25000148       0.72582199 </v>
   <v>       0.00000350       0.75000145       0.72582199 </v>
   <v>       0.50000351       0.25000148       0.72582199 </v>
   <v>       0.50000350       0.75000145       0.72582199 </v>
   <v>       0.25000050       0.00000000       0.72580398 </v>
   <v>       0.25000052       0.50000000       0.72580398 </v>
   <v>       0.75000050       0.00000000       0.72580398 </v>
   <v>       0.75000049       0.50000000       0.72580398 </v>
   <v>       0.80013745       0.50888416       0.51482367 </v>
   <v>       0.87921910       0.50053310       0.53137496 </v>
   <v>       0.76340115       0.62338823       0.53229989 </v>
   <v>       0.76242244       0.62687399       0.56034834 </v>
   <v>       0.68607855       0.44929203       0.55076104 </v>
   <v>       0.67062336       0.54132693       0.55851741 </v>
   <v>       0.79803756       0.42825444       0.56729431 </v>
   <v>       0.86721150       0.49698768       0.56896396 </v>
   <v>       0.85805416       0.37602096       0.53936771 </v>
   <v>       0.76302564       0.37800333       0.53339337 </v>
   <v>       0.78200353       0.38180506       0.49582979 </v>
   <v>       0.87480024       0.40865884       0.49800799 </v>
   <v>       0.89849905       0.61902355       0.53064581 </v>
   <v>       0.90683472       0.60581494       0.55866112 </v>
   <v>       0.87014059       0.68998778       0.54841059 </v>
   <v>       0.60048203       0.51552934       0.52674879 </v>
   <v>       0.67976644       0.48718969       0.51165843 </v>
   <v>       0.66774842       0.58148549       0.51959446 </v>
   <v>       0.70908142       0.50692896       0.58815847 </v>
   <v>       0.77893378       0.57603276       0.59090261 </v>
   <v>       0.79175170       0.48653701       0.60193705 </v>
   <v>       0.82263706       0.25573404       0.51338705 </v>
   <v>       0.84403039       0.27522775       0.48669750 </v>
   <v>       0.92424884       0.16001091       0.49846866 </v>
   <v>       0.97245542       0.38415767       0.51775828 </v>
   <v>       0.05589123       0.12699278       0.50367514 </v>
   <v>       0.10111826       0.35247585       0.52284505 </v>
   <v>       0.14653589       0.22346789       0.51549373 </v>
   <v>       0.99814374       0.23613194       0.55999482 </v>
   <v>       0.02811235       0.77422546       0.56072427 </v>
   <v>       0.52155395       0.27441112       0.55991802 </v>
   <v>       0.49028271       0.76135861       0.55643386 </v>
   <v>       0.23991294       0.51129095       0.55574726 </v>
   <v>       0.26668639       0.00006434       0.55579104 </v>
   <v>       0.77591188       0.99261065       0.56021093 </v>
   <v>       0.00729483       0.24565789       0.65003236 </v>
   <v>       0.01614266       0.76517752       0.65404006 </v>
   <v>       0.50820626       0.25247022       0.64730690 </v>
   <v>       0.49511834       0.75393240       0.64778105 </v>
   <v>       0.25361666       0.50107618       0.64916091 </v>
   <v>       0.25228622       0.99672958       0.64781316 </v>
   <v>       0.73932886       0.51343960       0.64940668 </v>
   <v>       0.75217559       0.99770427       0.64924283 </v>
   <v>       0.49998898       0.24999498       0.74327702 </v>
   <v>       0.49998903       0.74999496       0.74327702 </v>
   <v>       0.99998898       0.24999498       0.74327702 </v>
   <v>       0.99998903       0.74999496       0.74327702 </v>
   <v>       0.25000050       0.00000100       0.74325596 </v>
   <v>       0.25000052       0.50000100       0.74325596 </v>
   <v>       0.75000050       0.00000100       0.74325596 </v>
   <v>       0.75000049       0.50000100       0.74325596 </v>
   <v>       0.93729505       0.27493641       0.50740575 </v>
   <v>       0.96313215       0.20206803       0.50383087 </v>
   <v>       0.98878608       0.32754325       0.51422510 </v>
   <v>       0.03769757       0.18401813       0.50649620 </v>
   <v>       0.06352593       0.30981388       0.51709140 </v>
   <v>       0.08847957       0.23828226       0.51315989 </v>
   <v>       0.82122198       0.48413434       0.52951948 </v>
   <v>       0.79213408       0.60336755       0.54664339 </v>
   <v>       0.69587107       0.50687584       0.54606692 </v>
   <v>       0.80710389       0.48762200       0.56868680 </v>
   <v>       0.81713493       0.39980419       0.52831081 </v>
   <v>       0.83264209       0.37295973       0.50537757 </v>
   <v>       0.87163597       0.62961968       0.54610660 </v>
   <v>       0.66059498       0.52377576       0.52459711 </v>
   <v>       0.76881461       0.51707615       0.58830798 </v>
   <v>       0.85678331       0.29253766       0.50315575 </v>
   <v>       0.06095697       0.25448110       0.56907293 </v>
   <v>       0.03302191       0.71020935       0.57043624 </v>
   <v>       0.53666169       0.20542648       0.56496359 </v>
   <v>       0.55007790       0.72734115       0.56317996 </v>
   <v>       0.45494862       0.30448108       0.56052965 </v>
   <v>       0.42248098       0.74303516       0.56183149 </v>
   <v>       0.93332992       0.25744894       0.56735035 </v>
   <v>       0.97193089       0.82012578       0.56228806 </v>
   <v>       0.26177162       0.44651925       0.56281270 </v>
   <v>       0.19910011       0.01936561       0.56128805 </v>
   <v>       0.70523671       0.99047209       0.56495730 </v>
   <v>       0.32585634       0.04095214       0.55873004 </v>
   <v>       0.27363087       0.57445411       0.55953849 </v>
   <v>       0.82017174       0.04916250       0.56300494 </v>
   <v>       0.05656705       0.19867717       0.65726806 </v>
   <v>       0.05111108       0.70246346       0.65734931 </v>
   <v>       0.54423934       0.19698510       0.65580298 </v>
   <v>       0.54015554       0.71224185       0.65889753 </v>
   <v>       0.21641969       0.44917925       0.65924526 </v>
   <v>       0.19642395       0.95884036       0.65587545 </v>
   <v>       0.69292911       0.46592579       0.65797902 </v>
   <v>       0.70595770       0.95152965       0.65847960 </v>
   <v>       0.46446564       0.29800380       0.65776224 </v>
   <v>       0.44702519       0.80088091       0.65562228 </v>
   <v>       0.96160386       0.28487043       0.66188696 </v>
   <v>       0.94855579       0.77973532       0.66066132 </v>
   <v>       0.30045076       0.03628775       0.65868424 </v>
   <v>       0.29518638       0.55154349       0.65809995 </v>
   <v>       0.79340577       0.04677723       0.65896896 </v>
   <v>       0.80563242       0.52834593       0.65662572 </v>
   <v>       0.04586250       0.20411950       0.75272599 </v>
   <v>       0.04586250       0.70411946       0.75272599 </v>
   <v>       0.54586251       0.20411950       0.75272599 </v>
   <v>       0.54586250       0.70411946       0.75272599 </v>
   <v>       0.20411900       0.45410100       0.75270499 </v>
   <v>       0.20411899       0.95410095       0.75270499 </v>
   <v>       0.70411898       0.45410100       0.75270499 </v>
   <v>       0.70411896       0.95410095       0.75270499 </v>
   <v>       0.45414002       0.29588849       0.75272697 </v>
   <v>       0.45414001       0.79588852       0.75272697 </v>
   <v>       0.95414002       0.29588849       0.75272697 </v>
   <v>       0.95414006       0.79588852       0.75272697 </v>
   <v>       0.29588249       0.04590050       0.75270499 </v>
   <v>       0.29588248       0.54590053       0.75270499 </v>
   <v>       0.79588244       0.04590050       0.75270499 </v>
   <v>       0.79588248       0.54590053       0.75270499 </v>
   <v>       0.77936389       0.52010315       0.54772540 </v>
   <v>       0.50936686       0.97589580       0.55260858 </v>
   <v>       0.46753371       0.50224691       0.55376091 </v>
   <v>       0.00727624       0.01264278       0.55142639 </v>
   <v>       0.03380662       0.49327077       0.55458895 </v>
   <v>       0.25439135       0.24262559       0.55485481 </v>
   <v>       0.23251142       0.76792015       0.55133513 </v>
   <v>       0.73669930       0.22417498       0.55520669 </v>
   <v>       0.72490015       0.79640968       0.55431033 </v>
   <v>       0.99528393       0.98439327       0.65403884 </v>
   <v>       0.00508226       0.50197791       0.65548621 </v>
   <v>       0.49701532       0.00171157       0.65460255 </v>
   <v>       0.49841424       0.50055633       0.65425891 </v>
   <v>       0.26387466       0.24021418       0.65551801 </v>
   <v>       0.24560978       0.75334988       0.65366388 </v>
   <v>       0.74355803       0.26071268       0.65530343 </v>
   <v>       0.75095287       0.73913532       0.65436977 </v>
   <v>       0.13789559       0.11499571       0.60888057 </v>
   <v>       0.14624443       0.60892895       0.60684623 </v>
   <v>       0.64110389       0.10871740       0.60894791 </v>
   <v>       0.61657994       0.63092875       0.60899931 </v>
   <v>       0.36787793       0.38411055       0.60970294 </v>
   <v>       0.36440441       0.88609857       0.60569085 </v>
   <v>       0.88804126       0.36328951       0.61284822 </v>
   <v>       0.86273322       0.88974636       0.60550075 </v>
   <v>       0.12660103       0.36995950       0.61164449 </v>
   <v>       0.11750838       0.87281588       0.60640150 </v>
   <v>       0.61965902       0.37151869       0.60214418 </v>
   <v>       0.61650720       0.86621606       0.61235038 </v>
   <v>       0.39850430       0.14183785       0.60431954 </v>
   <v>       0.37832954       0.63208053       0.60769442 </v>
   <v>       0.88207921       0.13254702       0.61289841 </v>
   <v>       0.90321179       0.64972072       0.61107828 </v>
   <v>       0.00000000       0.00000000       0.75492797 </v>
   <v>       0.00000000       0.50000000       0.75492797 </v>
   <v>       0.50000000       0.00000000       0.75492797 </v>
   <v>       0.49999999       0.50000000       0.75492797 </v>
   <v>       0.25000050       0.25000000       0.75493902 </v>
   <v>       0.25000051       0.74999997       0.75493902 </v>
   <v>       0.75000047       0.25000000       0.75493902 </v>
   <v>       0.75000046       0.74999997       0.75493902 </v>
   <v>       0.13579050       0.11421000       0.70478299 </v>
   <v>       0.13579050       0.61420998       0.70478299 </v>
   <v>       0.63579045       0.11421000       0.70478299 </v>
   <v>       0.63579049       0.61420998       0.70478299 </v>
   <v>       0.36420952       0.38578999       0.70478299 </v>
   <v>       0.36420950       0.88578996       0.70478299 </v>
   <v>       0.86420954       0.38578999       0.70478299 </v>
   <v>       0.86420953       0.88578996       0.70478299 </v>
   <v>       0.11421799       0.36421899       0.70478098 </v>
   <v>       0.11421799       0.86421899       0.70478098 </v>
   <v>       0.61421800       0.36421899       0.70478098 </v>
   <v>       0.61421799       0.86421899       0.70478098 </v>
   <v>       0.38578201       0.13578149       0.70478202 </v>
   <v>       0.38578200       0.63578149       0.70478202 </v>
   <v>       0.88578199       0.13578149       0.70478202 </v>
   <v>       0.88578203       0.63578149       0.70478202 </v>
   <v>       0.13466700       0.11533200       0.80125603 </v>
   <v>       0.13466699       0.61533199       0.80125603 </v>
   <v>       0.63466699       0.11533200       0.80125603 </v>
   <v>       0.63466698       0.61533199       0.80125603 </v>
   <v>       0.36533300       0.38466799       0.80125603 </v>
   <v>       0.36533299       0.88466796       0.80125603 </v>
   <v>       0.86533295       0.38466799       0.80125603 </v>
   <v>       0.86533294       0.88466796       0.80125603 </v>
   <v>       0.11532850       0.36533700       0.80126500 </v>
   <v>       0.11532850       0.86533698       0.80126500 </v>
   <v>       0.61532850       0.36533700       0.80126500 </v>
   <v>       0.61532849       0.86533698       0.80126500 </v>
   <v>       0.38467151       0.13466300       0.80126500 </v>
   <v>       0.38467150       0.63466297       0.80126500 </v>
   <v>       0.88467149       0.13466300       0.80126500 </v>
   <v>       0.88467153       0.63466297       0.80126500 </v>
   <v>       0.99951522       0.00641613       0.60405624 </v>
   <v>       0.00817115       0.50417318       0.60425746 </v>
   <v>       0.50271705       0.99454337       0.60295855 </v>
   <v>       0.49851459       0.50082306       0.60342721 </v>
   <v>       0.25580360       0.25015823       0.60597789 </v>
   <v>       0.24486321       0.75661933       0.60321861 </v>
   <v>       0.74864132       0.25121179       0.60596806 </v>
   <v>       0.75079771       0.75940272       0.60413713 </v>
   <v>       0.00000050       0.00000050       0.70482896 </v>
   <v>       0.00000050       0.50000048       0.70482896 </v>
   <v>       0.50000048       0.00000050       0.70482896 </v>
   <v>       0.50000046       0.50000048       0.70482896 </v>
   <v>       0.24999999       0.24999947       0.70482499 </v>
   <v>       0.25000001       0.74999950       0.70482499 </v>
   <v>       0.74999999       0.24999947       0.70482499 </v>
   <v>       0.74999998       0.74999950       0.70482499 </v>
   <v>       0.00000000       0.00000000       0.80731797 </v>
   <v>       0.00000000       0.50000000       0.80731797 </v>
   <v>       0.50000000       0.00000000       0.80731797 </v>
   <v>       0.49999999       0.50000000       0.80731797 </v>
   <v>       0.24999999       0.25000000       0.80731797 </v>
   <v>       0.25000001       0.74999997       0.80731797 </v>
   <v>       0.74999999       0.25000000       0.80731797 </v>
   <v>       0.74999998       0.74999997       0.80731797 </v>
  </varray>
 </structure>
</modeling>
