 vasp.6.2.1 16May21 (build Nov 15 2021 14:57:28) complex                         
 executed on             LinuxPGI date 2023.07.30  14:58:37
 running on    4 total cores
 distrk:  each k-point on    4 cores,    1 groups
 distr:  one band on NCORE=   1 cores,    4 groups


--------------------------------------------------------------------------------------------------------


 INCAR:
   SYSTEM = PSC
   ISTART = 1
   ICHARG = 1
   PREC = Normal
   ENCUT = 500
   GGA_COMPAT = F
   NELM = 600
   ISYM = 0
   LREAL = Auto
   ISMEAR = 0
   SIGMA = 0.05
   AMIN = 0.01
   BMIX = 0.01
   LVTOT = T
   LWAVE = F
   LDIPOL = T
   IDIPOL = 3
   LVDW = T
   IVDW = 12

 POTCAR:    PAW_PBE H 15Jun2001                   
 POTCAR:    PAW_PBE C 08Apr2002                   
 POTCAR:    PAW_PBE N 08Apr2002                   
 POTCAR:    PAW_PBE I 08Apr2002                   
 POTCAR:    PAW_PBE Pb 08Apr2002                  
 WARNING: For LVTOT=.TRUE., VASP.5.x writes the TOTAL local potential to the
     file LOCPOT. If you want only the Hartree contributions, use LVHAR=.TRUE.
     instead. 

 POTCAR:    PAW_PBE H 15Jun2001                   
   SHA256 =  030f79b5d3ab3cf0e668861823c8fb652ff669f3e15e46930bd03bfd63a607b6 H/POTCAR              
   COPYR  = (c) Copyright 15Jun2001 Georg Kresse                                                    
   COPYR  = This file is part of the software VASP. Any use, copying, and all other rights are regul
   COPYR  = If you do not have a valid VASP license, you may not use, copy or distribute this file. 
   VRHFIN =H: ultrasoft test                                                                        
   LEXCH  = PE                                                                                      
   EATOM  =    12.4884 eV,    0.9179 Ry                                                             
                                                                                                    
   TITEL  = PAW_PBE H 15Jun2001                                                                     
   LULTRA =        F    use ultrasoft PP ?                                                          
   IUNSCR =        0    unscreen: 0-lin 1-nonlin 2-no                                               
   RPACOR =    0.000    partial core radius                                                         
   POMASS =    1.000; ZVAL   =    1.000    mass and valenz                                          
   RCORE  =    1.100    outmost cutoff radius                                                       
   RWIGS  =    0.700; RWIGS  =    0.370    wigner-seitz radius (au A)                               
   ENMAX  =  250.000; ENMIN  =  200.000 eV                                                          
   RCLOC  =    0.701    cutoff for local pot                                                        
   LCOR   =        T    correct aug charges                                                         
   LPAW   =        T    paw PP                                                                      
   EAUG   =  400.000                                                                                
   RMAX   =    1.123    core radius for proj-oper                                                   
   RAUG   =    1.200    factor for augmentation sphere                                              
   RDEP   =    1.112    radius for radial grids                                                     
   RDEPT  =    0.926    core radius for aug-charge                                                  
                                                                                                    
   Atomic configuration                                                                             
    2 entries                                                                                       
     n  l   j            E        occ.                                                              
     1  0  0.50        -6.4927   1.0000                                                             
     2  1  0.50        -3.4015   0.0000                                                             
   Description                                                                                      
     l       E           TYP  RCUT    TYP  RCUT                                                     
     0     -6.4927494     23  1.100                                                                 
     0      6.8029130     23  1.100                                                                 
     1     -4.0817478     23  1.100                                                                 
  local pseudopotential read in
  atomic valenz-charges read in
  non local Contribution for L=            0  read in
    real space projection operators read in
  non local Contribution for L=            0  read in
    real space projection operators read in
  non local Contribution for L=            1  read in
    real space projection operators read in
    PAW grid and wavefunctions read in
 
   number of l-projection  operators is LMAX  =            3
   number of lm-projection operators is LMMAX =            5
 
 POTCAR:    PAW_PBE C 08Apr2002                   
   SHA256 =  253f7b50bb8d59471dbedb8285d89021f4a42ed1a2c5d38a03a736e69125dd95 C/POTCAR              
   COPYR  = (c) Copyright 08Apr2002 Georg Kresse                                                    
   COPYR  = This file is part of the software VASP. Any use, copying, and all other rights are regul
   COPYR  = If you do not have a valid VASP license, you may not use, copy or distribute this file. 
   VRHFIN =C: s2p2                                                                                  
   LEXCH  = PE                                                                                      
   EATOM  =   147.1560 eV,   10.8157 Ry                                                             
                                                                                                    
   TITEL  = PAW_PBE C 08Apr2002                                                                     
   LULTRA =        F    use ultrasoft PP ?                                                          
   IUNSCR =        1    unscreen: 0-lin 1-nonlin 2-no                                               
   RPACOR =    1.200    partial core radius                                                         
   POMASS =   12.011; ZVAL   =    4.000    mass and valenz                                          
   RCORE  =    1.500    outmost cutoff radius                                                       
   RWIGS  =    1.630; RWIGS  =    0.863    wigner-seitz radius (au A)                               
   ENMAX  =  400.000; ENMIN  =  300.000 eV                                                          
   ICORE  =        2    local potential                                                             
   LCOR   =        T    correct aug charges                                                         
   LPAW   =        T    paw PP                                                                      
   EAUG   =  644.873                                                                                
   DEXC   =    0.000                                                                                
   RMAX   =    1.529    core radius for proj-oper                                                   
   RAUG   =    1.300    factor for augmentation sphere                                              
   RDEP   =    1.501    radius for radial grids                                                     
   RDEPT  =    1.300    core radius for aug-charge                                                  
                                                                                                    
   Atomic configuration                                                                             
    4 entries                                                                                       
     n  l   j            E        occ.                                                              
     1  0  0.50      -273.3789   2.0000                                                             
     2  0  0.50       -13.7508   2.0000                                                             
     2  1  0.50        -5.2854   2.0000                                                             
     3  2  1.50        -5.4423   0.0000                                                             
   Description                                                                                      
     l       E           TYP  RCUT    TYP  RCUT                                                     
     0    -13.7508458     23  1.200                                                                 
     0     -8.2022199     23  1.200                                                                 
     1     -5.2854383     23  1.500                                                                 
     1     34.0145650     23  1.500                                                                 
     2     -5.4423304      7  1.500                                                                 
  local pseudopotential read in
  partial core-charges read in
  partial kinetic energy density read in
  atomic valenz-charges read in
  non local Contribution for L=            0  read in
    real space projection operators read in
  non local Contribution for L=            0  read in
    real space projection operators read in
  non local Contribution for L=            1  read in
    real space projection operators read in
  non local Contribution for L=            1  read in
    real space projection operators read in
    PAW grid and wavefunctions read in
 
   number of l-projection  operators is LMAX  =            4
   number of lm-projection operators is LMMAX =            8
 
 POTCAR:    PAW_PBE N 08Apr2002                   
   SHA256 =  e053789ff3a61a86a1b75d8a110fcc91f86041011e7b0817c7c99e4e8a6349d7 N/POTCAR              
   COPYR  = (c) Copyright 08Apr2002 Georg Kresse                                                    
   COPYR  = This file is part of the software VASP. Any use, copying, and all other rights are regul
   COPYR  = If you do not have a valid VASP license, you may not use, copy or distribute this file. 
   VRHFIN =N: s2p3                                                                                  
   LEXCH  = PE                                                                                      
   EATOM  =   264.5486 eV,   19.4438 Ry                                                             
                                                                                                    
   TITEL  = PAW_PBE N 08Apr2002                                                                     
   LULTRA =        F    use ultrasoft PP ?                                                          
   IUNSCR =        1    unscreen: 0-lin 1-nonlin 2-no                                               
   RPACOR =    1.200    partial core radius                                                         
   POMASS =   14.001; ZVAL   =    5.000    mass and valenz                                          
   RCORE  =    1.500    outmost cutoff radius                                                       
   RWIGS  =    1.400; RWIGS  =    0.741    wigner-seitz radius (au A)                               
   ENMAX  =  400.000; ENMIN  =  300.000 eV                                                          
   ICORE  =        2    local potential                                                             
   LCOR   =        T    correct aug charges                                                         
   LPAW   =        T    paw PP                                                                      
   EAUG   =  627.112                                                                                
   DEXC   =    0.000                                                                                
   RMAX   =    1.529    core radius for proj-oper                                                   
   RAUG   =    1.300    factor for augmentation sphere                                              
   RDEP   =    1.514    radius for radial grids                                                     
   RDEPT  =    1.338    core radius for aug-charge                                                  
                                                                                                    
   Atomic configuration                                                                             
    4 entries                                                                                       
     n  l   j            E        occ.                                                              
     1  0  0.50      -384.7179   2.0000                                                             
     2  0  0.50       -18.5828   2.0000                                                             
     2  1  0.50        -7.0898   3.0000                                                             
     3  2  1.50        -6.8029   0.0000                                                             
   Description                                                                                      
     l       E           TYP  RCUT    TYP  RCUT                                                     
     0    -18.5828119     23  1.200                                                                 
     0    -13.5018863     23  1.200                                                                 
     1     -7.0897853     23  1.500                                                                 
     1      9.5240782     23  1.500                                                                 
     2     -6.8029130      7  1.500                                                                 
  local pseudopotential read in
  partial core-charges read in
  partial kinetic energy density read in
  atomic valenz-charges read in
  non local Contribution for L=            0  read in
    real space projection operators read in
  non local Contribution for L=            0  read in
    real space projection operators read in
  non local Contribution for L=            1  read in
    real space projection operators read in
  non local Contribution for L=            1  read in
    real space projection operators read in
    PAW grid and wavefunctions read in
 
   number of l-projection  operators is LMAX  =            4
   number of lm-projection operators is LMMAX =            8
 
 POTCAR:    PAW_PBE I 08Apr2002                   
   SHA256 =  e40f3f59b681c1fc3e3091736183c4589116986673d2b852a5012aec72758799 I/POTCAR              
   COPYR  = (c) Copyright 08Apr2002 Georg Kresse                                                    
   COPYR  = This file is part of the software VASP. Any use, copying, and all other rights are regul
   COPYR  = If you do not have a valid VASP license, you may not use, copy or distribute this file. 
   VRHFIN =I : s2p5                                                                                 
   LEXCH  = PE                                                                                      
   EATOM  =   315.8678 eV,   23.2156 Ry                                                             
                                                                                                    
   TITEL  = PAW_PBE I 08Apr2002                                                                     
   LULTRA =        F    use ultrasoft PP ?                                                          
   IUNSCR =        1    unscreen: 0-lin 1-nonlin 2-no                                               
   RPACOR =    2.200    partial core radius                                                         
   POMASS =  126.904; ZVAL   =    7.000    mass and valenz                                          
   RCORE  =    2.300    outmost cutoff radius                                                       
   RWIGS  =    2.810; RWIGS  =    1.487    wigner-seitz radius (au A)                               
   ENMAX  =  175.647; ENMIN  =  131.735 eV                                                          
   ICORE  =        3    local potential                                                             
   LCOR   =        T    correct aug charges                                                         
   LPAW   =        T    paw PP                                                                      
   EAUG   =  370.139                                                                                
   DEXC   =    0.000                                                                                
   RMAX   =    2.359    core radius for proj-oper                                                   
   RAUG   =    1.300    factor for augmentation sphere                                              
   RDEP   =    2.392    radius for radial grids                                                     
   RDEPT  =    2.170    core radius for aug-charge                                                  
                                                                                                    
   Atomic configuration                                                                             
   13 entries                                                                                       
     n  l   j            E        occ.                                                              
     1  0  0.50    -32976.3739   2.0000                                                             
     2  0  0.50     -5094.5933   2.0000                                                             
     2  1  1.50     -4572.0131   6.0000                                                             
     3  0  0.50     -1028.2813   2.0000                                                             
     3  1  1.50      -859.0250   6.0000                                                             
     3  2  2.50      -605.7620  10.0000                                                             
     4  0  0.50      -180.5540   2.0000                                                             
     4  1  1.50      -127.5306   6.0000                                                             
     4  2  2.50       -50.2720  10.0000                                                             
     5  0  0.50       -17.4058   2.0000                                                             
     5  1  0.50        -7.0851   5.0000                                                             
     5  2  1.50        -7.0750   0.0000                                                             
     4  3  2.50        -7.0750   0.0000                                                             
   Description                                                                                      
     l       E           TYP  RCUT    TYP  RCUT                                                     
     0    -17.4058016     23  2.300                                                                 
     0    -18.7663842     23  2.300                                                                 
     1     -7.0850686     23  2.300                                                                 
     1     -4.2150896     23  2.300                                                                 
     2     -7.0750295     23  2.300                                                                 
     3     -1.3605826     23  2.300                                                                 
  local pseudopotential read in
  partial core-charges read in
  partial kinetic energy density read in
  atomic valenz-charges read in
  non local Contribution for L=            0  read in
    real space projection operators read in
  non local Contribution for L=            0  read in
    real space projection operators read in
  non local Contribution for L=            1  read in
    real space projection operators read in
  non local Contribution for L=            1  read in
    real space projection operators read in
  non local Contribution for L=            2  read in
    real space projection operators read in
    PAW grid and wavefunctions read in
 
   number of l-projection  operators is LMAX  =            5
   number of lm-projection operators is LMMAX =           13
 
 POTCAR:    PAW_PBE Pb 08Apr2002                  
   SHA256 =  797118a27cf1bcd06b9881c67a26cdde129e3cd1a551dd4a281f9681ce847303 Pb/POTCAR             
   COPYR  = (c) Copyright 08Apr2002 Georg Kresse                                                    
   COPYR  = This file is part of the software VASP. Any use, copying, and all other rights are regul
   COPYR  = If you do not have a valid VASP license, you may not use, copy or distribute this file. 
   VRHFIN =Pb:                                                                                      
   LEXCH  = PE                                                                                      
   EATOM  =    96.9868 eV,    7.1283 Ry                                                             
                                                                                                    
   TITEL  = PAW_PBE Pb 08Apr2002                                                                    
   LULTRA =        F    use ultrasoft PP ?                                                          
   IUNSCR =        1    unscreen: 0-lin 1-nonlin 2-no                                               
   RPACOR =    2.200    partial core radius                                                         
   POMASS =  207.200; ZVAL   =    4.000    mass and valenz                                          
   RCORE  =    3.100    outmost cutoff radius                                                       
   RWIGS  =    3.260; RWIGS  =    1.725    wigner-seitz radius (au A)                               
   ENMAX  =   97.973; ENMIN  =   73.480 eV                                                          
   ICORE  =        3    local potential                                                             
   LCOR   =        T    correct aug charges                                                         
   LPAW   =        T    paw PP                                                                      
   EAUG   =  234.873                                                                                
   DEXC   =    0.000                                                                                
   RMAX   =    3.158    core radius for proj-oper                                                   
   RAUG   =    1.300    factor for augmentation sphere                                              
   RDEP   =    3.202    radius for radial grids                                                     
   RDEPT  =    2.659    core radius for aug-charge                                                  
                                                                                                    
   Atomic configuration                                                                             
   17 entries                                                                                       
     n  l   j            E        occ.                                                              
     1  0  0.50    -88091.8466   2.0000                                                             
     2  0  0.50    -15753.4197   2.0000                                                             
     2  1  1.50    -13508.1797   6.0000                                                             
     3  0  0.50     -3781.7194   2.0000                                                             
     3  1  1.50     -3138.2529   6.0000                                                             
     3  2  2.50     -2483.2977  10.0000                                                             
     4  0  0.50      -856.2895   2.0000                                                             
     4  1  1.50      -645.4943   6.0000                                                             
     4  2  2.50      -401.8768  10.0000                                                             
     4  3  3.50      -132.9059  14.0000                                                             
     5  0  0.50      -144.0950   2.0000                                                             
     5  1  1.50       -85.7879   6.0000                                                             
     5  2  2.50       -21.1769  10.0000                                                             
     6  0  0.50       -12.0372   2.0000                                                             
     6  1  1.50        -3.4971   2.0000                                                             
     6  2  2.50        -1.3606   0.0000                                                             
     5  3  2.50        -2.7212   0.0000                                                             
   Description                                                                                      
     l       E           TYP  RCUT    TYP  RCUT                                                     
     0    -12.0371566     23  3.100                                                                 
     0    -13.3977392     23  3.100                                                                 
     1     -3.4971341     23  3.100                                                                 
     1     -5.4423304     23  3.100                                                                 
     2     -1.3605826     23  3.100                                                                 
     3     -1.3605826     23  3.100                                                                 
  local pseudopotential read in
  partial core-charges read in
  partial kinetic energy density read in
  atomic valenz-charges read in
  non local Contribution for L=            0  read in
    real space projection operators read in
  non local Contribution for L=            0  read in
    real space projection operators read in
  non local Contribution for L=            1  read in
    real space projection operators read in
  non local Contribution for L=            1  read in
    real space projection operators read in
  non local Contribution for L=            2  read in
    real space projection operators read in
    PAW grid and wavefunctions read in
 
   number of l-projection  operators is LMAX  =            5
   number of lm-projection operators is LMMAX =           13
 
 Optimization of the real space projectors (new method)

 maximal supplied QI-value         = 34.20
 optimisation between [QCUT,QGAM] = [ 11.29, 22.57] = [ 35.68,142.71] Ry 
 Optimized for a Real-space Cutoff    1.16 Angstroem

   l    n(q)    QCUT    max X(q) W(low)/X(q) W(high)/X(q)  e(spline) 
   0      8    11.287    19.460    0.40E-03    0.73E-03    0.16E-06
   0      8    11.287    12.209    0.38E-03    0.70E-03    0.15E-06
   1      7    11.287     4.655    0.22E-03    0.25E-04    0.22E-06
 Optimization of the real space projectors (new method)

 maximal supplied QI-value         = 25.13
 optimisation between [QCUT,QGAM] = [ 11.31, 22.87] = [ 35.82,146.48] Ry 
 Optimized for a Real-space Cutoff    1.00 Angstroem

   l    n(q)    QCUT    max X(q) W(low)/X(q) W(high)/X(q)  e(spline) 
   0      7    11.310   115.676    0.43E-03    0.13E-02    0.19E-06
   0      7    11.310    87.132    0.43E-03    0.13E-02    0.18E-06
   1      6    11.310     4.429    0.42E-03    0.74E-03    0.11E-06
   1      6    11.310     2.733    0.34E-03    0.55E-03    0.92E-07
 Optimization of the real space projectors (new method)

 maximal supplied QI-value         = 25.13
 optimisation between [QCUT,QGAM] = [ 11.31, 22.87] = [ 35.82,146.48] Ry 
 Optimized for a Real-space Cutoff    1.27 Angstroem

   l    n(q)    QCUT    max X(q) W(low)/X(q) W(high)/X(q)  e(spline) 
   0      9    11.310    79.467    0.75E-04    0.16E-03    0.36E-06
   0      9    11.310    66.151    0.74E-04    0.16E-03    0.36E-06
   1      8    11.310    17.416    0.35E-03    0.12E-03    0.95E-06
   1      8    11.310    12.382    0.37E-03    0.13E-03    0.98E-06
 Optimization of the real space projectors (new method)

 maximal supplied QI-value         = 16.25
 optimisation between [QCUT,QGAM] = [ 11.38, 22.75] = [ 36.24,144.96] Ry 
 Optimized for a Real-space Cutoff    1.31 Angstroem

   l    n(q)    QCUT    max X(q) W(low)/X(q) W(high)/X(q)  e(spline) 
   0      9    11.376   194.483    0.24E-03    0.23E-03    0.67E-07
   0      9    11.376   190.334    0.23E-03    0.22E-03    0.65E-07
   1      8    11.376   116.687    0.25E-03    0.63E-04    0.16E-06
   1      8    11.376    88.696    0.25E-03    0.61E-04    0.16E-06
   2      8    11.376     4.877    0.17E-03    0.14E-03    0.29E-07
 Optimization of the real space projectors (new method)

 maximal supplied QI-value         = 12.09
 optimisation between [QCUT,QGAM] = [ 11.37, 22.86] = [ 36.19,146.31] Ry 
 Optimized for a Real-space Cutoff    1.66 Angstroem

   l    n(q)    QCUT    max X(q) W(low)/X(q) W(high)/X(q)  e(spline) 
   0     11    11.369   135.111    0.12E-03    0.69E-04    0.19E-05
   0     11    11.369   146.850    0.11E-03    0.65E-04    0.18E-05
   1     11    11.369   148.016    0.17E-03    0.32E-03    0.89E-06
   1     11    11.369   122.989    0.17E-03    0.32E-03    0.91E-06
   2     10    11.369     8.916    0.12E-03    0.45E-04    0.33E-06
  PAW_PBE H 15Jun2001                   :
 energy of atom  1       EATOM=  -12.4884
 kinetic energy error for atom=    0.0020 (will be added to EATOM!!)
  PAW_PBE C 08Apr2002                   :
 energy of atom  2       EATOM= -147.1560
 kinetic energy error for atom=    0.0076 (will be added to EATOM!!)
  PAW_PBE N 08Apr2002                   :
 energy of atom  3       EATOM= -264.5486
 kinetic energy error for atom=    0.0138 (will be added to EATOM!!)
  PAW_PBE I 08Apr2002                   :
 energy of atom  4       EATOM= -315.8678
 kinetic energy error for atom=    0.0009 (will be added to EATOM!!)
  PAW_PBE Pb 08Apr2002                  :
 energy of atom  5       EATOM=  -96.9868
 kinetic energy error for atom=    0.0000 (will be added to EATOM!!)
 
 
 POSCAR:  H  C  N  I Pb
  positions in cartesian coordinates
  No initial velocities read in
 exchange correlation table for  LEXCH =        8
   RHO(1)=    0.500       N(1)  =     2000
   RHO(2)=  100.500       N(2)  =     4000
 


--------------------------------------------------------------------------------------------------------


 ion  position               nearest neighbor table
   1  0.407  0.285  0.559- 187 1.02
   2  0.417  0.697  0.570- 188 1.03
   3  0.924  0.293  0.579- 189 1.04
   4  0.924  0.813  0.573- 190 1.02
   5  0.322  0.091  0.562- 194 1.02
   6  0.326  0.569  0.567- 195 1.03
   7  0.793  0.107  0.564- 196 1.03
   8  0.108  0.241  0.562- 183 1.02
   9  0.079  0.685  0.569- 184 1.02
  10  0.580  0.185  0.565- 185 1.02
  11  0.599  0.771  0.560- 186 1.03
  12  0.380  0.018  0.554- 194 1.03
  13  0.257  0.620  0.555- 195 1.02
  14  0.872  0.055  0.556- 196 1.03
  15  0.062  0.291  0.581- 183 1.03
  16  0.992  0.694  0.581- 184 1.03
  17  0.486  0.173  0.569- 185 1.02
  18  0.554  0.701  0.573- 186 1.03
  19  0.305  0.434  0.572- 191 1.03
  20  0.190  0.064  0.568- 192 1.02
  21  0.681  0.029  0.573- 193 1.03
  22  0.457  0.366  0.553- 187 1.03
  23  0.374  0.760  0.553- 188 1.03
  24  0.883  0.245  0.557- 189 1.02
  25  0.968  0.874  0.556- 190 1.03
  26  0.227  0.398  0.559- 191 1.02
  27  0.160  0.976  0.562- 192 1.02
  28  0.688  0.935  0.567- 193 1.02
  29  0.570  0.306  0.555- 146 1.09
  30  0.489  0.817  0.545- 147 1.09
  31  0.999  0.204  0.544- 144 1.09
  32  0.068  0.795  0.550- 145 1.10
  33  0.185  0.514  0.548- 148 1.09
  34  0.279  0.934  0.553- 149 1.09
  35  0.809  0.943  0.556- 150 1.09
  36  0.455  0.301  0.673- 205 1.02
  37  0.440  0.815  0.671- 206 1.03
  38  0.955  0.284  0.676- 207 1.02
  39  0.912  0.742  0.661- 208 1.03
  40  0.295  0.041  0.675- 209 1.02
  41  0.301  0.562  0.673- 210 1.02
  42  0.798  0.052  0.675- 211 1.02
  43  0.833  0.466  0.664- 212 1.02
  44  0.090  0.170  0.647- 197 1.03
  45  0.108  0.700  0.655- 198 1.03
  46  0.576  0.166  0.646- 199 1.02
  47  0.574  0.676  0.652- 200 1.02
  48  0.185  0.412  0.652- 201 1.02
  49  0.164  0.932  0.643- 202 1.02
  50  0.634  0.487  0.656- 203 1.03
  51  0.673  0.917  0.649- 204 1.02
  52  0.063  0.188  0.673- 197 1.03
  53  0.023  0.655  0.658- 198 1.03
  54  0.549  0.193  0.672- 199 1.02
  55  0.545  0.715  0.676- 200 1.02
  56  0.212  0.450  0.676- 201 1.02
  57  0.183  0.954  0.670- 202 1.02
  58  0.698  0.430  0.669- 203 1.03
  59  0.700  0.945  0.675- 204 1.03
  60  0.433  0.338  0.648- 205 1.02
  61  0.415  0.829  0.644- 206 1.02
  62  0.925  0.317  0.652- 207 1.02
  63  0.932  0.836  0.657- 208 1.02
  64  0.342  0.063  0.652- 209 1.01
  65  0.322  0.587  0.646- 210 1.02
  66  0.822  0.082  0.649- 211 1.02
  67  0.851  0.541  0.648- 212 1.02
  68  0.006  0.250  0.632- 151 1.09
  69  0.057  0.817  0.653- 152 1.09
  70  0.507  0.256  0.629- 153 1.09
  71  0.495  0.743  0.630- 154 1.09
  72  0.262  0.998  0.630- 156 1.09
  73  0.252  0.495  0.631- 155 1.09
  74  0.747  0.000  0.632- 158 1.09
  75  0.726  0.561  0.640- 157 1.09
  76  0.449  0.301  0.769- 221 1.02
  77  0.449  0.801  0.769- 222 1.02
  78  0.949  0.301  0.769- 223 1.02
  79  0.949  0.801  0.769- 224 1.02
  80  0.301  0.051  0.769- 225 1.02
  81  0.301  0.551  0.769- 226 1.02
  82  0.801  0.051  0.769- 227 1.02
  83  0.801  0.551  0.769- 228 1.02
  84  0.079  0.171  0.743- 213 1.02
  85  0.079  0.671  0.743- 214 1.02
  86  0.579  0.171  0.743- 215 1.02
  87  0.579  0.671  0.743- 216 1.02
  88  0.171  0.421  0.743- 217 1.02
  89  0.171  0.921  0.743- 218 1.02
  90  0.671  0.421  0.743- 219 1.02
  91  0.671  0.921  0.743- 220 1.02
  92  0.051  0.199  0.769- 213 1.02
  93  0.051  0.699  0.769- 214 1.02
  94  0.551  0.199  0.769- 215 1.02
  95  0.551  0.699  0.769- 216 1.02
  96  0.199  0.449  0.769- 217 1.02
  97  0.199  0.949  0.769- 218 1.02
  98  0.699  0.449  0.769- 219 1.02
  99  0.699  0.949  0.769- 220 1.02
 100  0.421  0.329  0.743- 221 1.02
 101  0.421  0.829  0.743- 222 1.02
 102  0.921  0.329  0.743- 223 1.02
 103  0.921  0.829  0.743- 224 1.02
 104  0.329  0.079  0.743- 225 1.02
 105  0.329  0.579  0.743- 226 1.02
 106  0.829  0.079  0.743- 227 1.02
 107  0.829  0.579  0.743- 228 1.02
 108  0.000  0.250  0.726- 161 1.09
 109  0.000  0.750  0.726- 162 1.09
 110  0.500  0.250  0.726- 159 1.09
 111  0.500  0.750  0.726- 160 1.09
 112  0.250  0.000  0.726- 163 1.09
 113  0.250  0.500  0.726- 164 1.09
 114  0.750  0.000  0.726- 165 1.09
 115  0.750  0.500  0.726- 166 1.09
 116  0.800  0.507  0.514- 173 1.09
 117  0.878  0.499  0.531- 173 1.10
 118  0.757  0.618  0.532- 174 1.09
 119  0.752  0.617  0.560- 174 1.10
 120  0.686  0.438  0.548- 175 1.10
 121  0.665  0.529  0.556- 175 1.10
 122  0.794  0.420  0.565- 176 1.10
 123  0.862  0.490  0.568- 176 1.10
 124  0.859  0.373  0.538- 177 1.10
 125  0.765  0.374  0.531- 177 1.10
 126  0.789  0.384  0.493- 178 1.10
 127  0.882  0.410  0.497- 178 1.10
 128  0.895  0.614  0.533- 179 1.10
 129  0.893  0.605  0.561- 179 1.10
 130  0.859  0.686  0.549- 179 1.10
 131  0.602  0.502  0.523- 180 1.10
 132  0.684  0.476  0.509- 180 1.10
 133  0.668  0.570  0.517- 180 1.10
 134  0.702  0.495  0.586- 181 1.09
 135  0.770  0.566  0.590- 181 1.09
 136  0.784  0.477  0.601- 181 1.10
 137  0.824  0.258  0.511- 182 1.11
 138  0.850  0.275  0.485- 182 1.10
 139  0.926  0.158  0.499- 168 1.10
 140  0.976  0.385  0.515- 169 1.09
 141  0.057  0.124  0.505- 170 1.09
 142  0.106  0.351  0.521- 171 1.09
 143  0.149  0.222  0.515- 172 1.09
 144  0.996  0.239  0.559-  31 1.09 183 1.31 189 1.31
 145  0.022  0.777  0.560-  32 1.10 184 1.31 190 1.32
 146  0.520  0.275  0.558-  29 1.09 185 1.31 187 1.31
 147  0.487  0.768  0.555-  30 1.09 186 1.31 188 1.31
 148  0.239  0.509  0.556-  33 1.09 191 1.31 195 1.31
 149  0.270  0.992  0.557-  34 1.09 194 1.31 192 1.31
 150  0.780  0.994  0.561-  35 1.09 196 1.31 193 1.31
 151  0.007  0.244  0.649-  68 1.09 207 1.31 197 1.31
 152  0.021  0.769  0.656-  69 1.09 198 1.31 208 1.32
 153  0.505  0.252  0.647-  70 1.09 199 1.31 205 1.32
 154  0.494  0.752  0.648-  71 1.09 206 1.31 200 1.31
 155  0.254  0.499  0.649-  73 1.09 210 1.31 201 1.31
 156  0.252  0.999  0.647-  72 1.09 202 1.32 209 1.32
 157  0.742  0.515  0.651-  75 1.09 212 1.31 203 1.31
 158  0.748  1.000  0.649-  74 1.09 211 1.31 204 1.31
 159  0.500  0.250  0.743- 110 1.09 221 1.31 215 1.31
 160  0.500  0.750  0.743- 111 1.09 222 1.31 216 1.31
 161  1.000  0.250  0.743- 108 1.09 223 1.31 213 1.31
 162  1.000  0.750  0.743- 109 1.09 224 1.31 214 1.31
 163  0.250  0.000  0.743- 112 1.09 225 1.31 218 1.31
 164  0.250  0.500  0.743- 113 1.09 226 1.31 217 1.31
 165  0.750  0.000  0.743- 114 1.09 227 1.31 220 1.31
 166  0.750  0.500  0.743- 115 1.09 228 1.31 219 1.31
 167  0.941  0.274  0.506- 169 1.40 168 1.41 182 1.51
 168  0.966  0.201  0.504- 139 1.10 170 1.40 167 1.41
 169  0.993  0.328  0.512- 140 1.09 167 1.40 171 1.40
 170  0.040  0.182  0.507- 141 1.09 168 1.40 172 1.40
 171  0.067  0.309  0.516- 142 1.09 172 1.40 169 1.40
 172  0.091  0.236  0.513- 143 1.09 171 1.40 170 1.40
 173  0.821  0.481  0.528- 116 1.09 117 1.10 229 1.51 177 1.52
 174  0.784  0.597  0.546- 118 1.09 119 1.10 179 1.51 229 1.53
 175  0.693  0.496  0.544- 121 1.10 120 1.10 180 1.52 229 1.53
 176  0.802  0.479  0.567- 123 1.10 122 1.10 181 1.51 229 1.52
 177  0.820  0.397  0.526- 125 1.10 124 1.10 173 1.52 178 1.53
 178  0.838  0.374  0.503- 126 1.10 127 1.10 182 1.53 177 1.53
 179  0.863  0.626  0.547- 129 1.10 128 1.10 130 1.10 174 1.51
 180  0.661  0.512  0.522- 131 1.10 132 1.10 133 1.10 175 1.52
 181  0.762  0.507  0.587- 134 1.09 135 1.09 136 1.10 176 1.51
 182  0.861  0.292  0.501- 138 1.10 137 1.11 167 1.51 178 1.53
 183  0.058  0.257  0.568-   8 1.02  15 1.03 144 1.31
 184  0.030  0.713  0.570-   9 1.02  16 1.03 145 1.31
 185  0.528  0.205  0.563-  10 1.02  17 1.02 146 1.31
 186  0.550  0.744  0.563-  11 1.03  18 1.03 147 1.31
 187  0.456  0.310  0.556-   1 1.02  22 1.03 146 1.31
 188  0.423  0.738  0.559-  23 1.03   2 1.03 147 1.31
 189  0.930  0.260  0.565-  24 1.02   3 1.04 144 1.31
 190  0.964  0.821  0.562-   4 1.02  25 1.03 145 1.32
 191  0.259  0.443  0.562-  26 1.02  19 1.03 148 1.31
 192  0.202  0.012  0.562-  27 1.02  20 1.02 149 1.31
 193  0.711  0.987  0.567-  28 1.02  21 1.03 150 1.31
 194  0.327  0.037  0.557-   5 1.02  12 1.03 149 1.31
 195  0.277  0.570  0.559-  13 1.02   6 1.03 148 1.31
 196  0.817  0.056  0.560-  14 1.03   7 1.03 150 1.31
 197  0.056  0.198  0.657-  52 1.03  44 1.03 151 1.31
 198  0.052  0.704  0.657-  45 1.03  53 1.03 152 1.31
 199  0.546  0.201  0.656-  54 1.02  46 1.02 153 1.31
 200  0.539  0.712  0.659-  47 1.02  55 1.02 154 1.31
 201  0.215  0.451  0.660-  48 1.02  56 1.02 155 1.31
 202  0.196  0.959  0.654-  49 1.02  57 1.02 156 1.32
 203  0.689  0.474  0.659-  58 1.03  50 1.03 157 1.31
 204  0.705  0.951  0.659-  51 1.02  59 1.03 158 1.31
 205  0.462  0.299  0.657-  60 1.02  36 1.02 153 1.32
 206  0.447  0.801  0.655-  61 1.02  37 1.03 154 1.31
 207  0.960  0.284  0.660-  38 1.02  62 1.02 151 1.31
 208  0.950  0.783  0.658-  63 1.02  39 1.03 152 1.32
 209  0.299  0.037  0.659-  64 1.01  40 1.02 156 1.32
 210  0.294  0.553  0.657-  65 1.02  41 1.02 155 1.31
 211  0.791  0.048  0.659-  42 1.02  66 1.02 158 1.31
 212  0.813  0.506  0.655-  67 1.02  43 1.02 157 1.31
 213  0.046  0.204  0.753-  92 1.02  84 1.02 161 1.31
 214  0.046  0.704  0.753-  93 1.02  85 1.02 162 1.31
 215  0.546  0.204  0.753-  94 1.02  86 1.02 159 1.31
 216  0.546  0.704  0.753-  95 1.02  87 1.02 160 1.31
 217  0.204  0.454  0.753-  96 1.02  88 1.02 164 1.31
 218  0.204  0.954  0.753-  97 1.02  89 1.02 163 1.31
 219  0.704  0.454  0.753-  98 1.02  90 1.02 166 1.31
 220  0.704  0.954  0.753-  99 1.02  91 1.02 165 1.31
 221  0.454  0.296  0.753-  76 1.02 100 1.02 159 1.31
 222  0.454  0.796  0.753-  77 1.02 101 1.02 160 1.31
 223  0.954  0.296  0.753-  78 1.02 102 1.02 161 1.31
 224  0.954  0.796  0.753-  79 1.02 103 1.02 162 1.31
 225  0.296  0.046  0.753-  80 1.02 104 1.02 163 1.31
 226  0.296  0.546  0.753-  81 1.02 105 1.02 164 1.31
 227  0.796  0.046  0.753-  82 1.02 106 1.02 165 1.31
 228  0.796  0.546  0.753-  83 1.02 107 1.02 166 1.31
 229  0.776  0.513  0.546- 173 1.51 176 1.52 174 1.53 175 1.53
 230  0.515  0.984  0.553- 304 3.16
 231  0.475  0.510  0.553- 305 3.15
 232  0.005  0.013  0.552- 302 3.27
 233  0.030  0.485  0.554- 303 3.13
 234  0.259  0.238  0.554- 306 3.24
 235  0.229  0.764  0.551- 307 3.28
 236  0.733  0.233  0.554- 308 3.24
 237  0.736  0.794  0.554- 309 3.20
 238  0.995  0.987  0.654- 310 3.16 302 3.17
 239  0.010  0.504  0.655- 311 3.12 303 3.21
 240  0.497  0.004  0.655- 312 3.12 304 3.21
 241  0.496  0.506  0.654- 313 3.18 305 3.20
 242  0.262  0.243  0.655- 306 3.11 314 3.13
 243  0.246  0.754  0.654- 307 3.16 315 3.20
 244  0.746  0.272  0.655- 308 3.11 316 3.13
 245  0.751  0.734  0.654- 309 3.17 317 3.18
 246  0.135  0.116  0.608- 302 3.21 306 3.22
 247  0.146  0.609  0.606- 303 3.13 307 3.17
 248  0.636  0.115  0.608- 308 3.20 304 3.28
 249  0.620  0.631  0.606- 305 3.20 309 3.31
 250  0.368  0.384  0.608- 306 3.20 305 3.20
 251  0.365  0.884  0.605- 304 3.16 307 3.22
 252  0.888  0.368  0.611- 303 3.30 308 3.31
 253  0.862  0.891  0.607- 309 3.14 302 3.20
 254  0.126  0.367  0.612- 306 3.23 303 3.23
 255  0.115  0.873  0.606- 307 3.15 302 3.24
 256  0.611  0.364  0.603- 305 3.17 308 3.19
 257  0.618  0.865  0.613- 309 3.16 304 3.17
 258  0.394  0.137  0.604- 306 3.19 304 3.24
 259  0.380  0.635  0.607- 305 3.26 307 3.30
 260  0.882  0.136  0.612- 302 3.17 308 3.24
 261  0.902  0.646  0.609- 303 3.30 309 3.38
 262  0.000  0.000  0.755- 310 3.13 318 3.27
 263  0.000  0.500  0.755- 311 3.13 319 3.27
 264  0.500  0.000  0.755- 312 3.13 320 3.27
 265  0.500  0.500  0.755- 313 3.13 321 3.27
 266  0.250  0.250  0.755- 314 3.13 322 3.27
 267  0.250  0.750  0.755- 315 3.13 323 3.27
 268  0.750  0.250  0.755- 316 3.13 324 3.27
 269  0.750  0.750  0.755- 317 3.13 325 3.27
 270  0.136  0.114  0.705- 310 3.20 314 3.20
 271  0.136  0.614  0.705- 311 3.20 315 3.20
 272  0.636  0.114  0.705- 312 3.20 316 3.20
 273  0.636  0.614  0.705- 313 3.20 317 3.20
 274  0.364  0.386  0.705- 313 3.20 314 3.20
 275  0.364  0.886  0.705- 312 3.20 315 3.20
 276  0.864  0.386  0.705- 311 3.20 316 3.20
 277  0.864  0.886  0.705- 310 3.20 317 3.20
 278  0.114  0.364  0.705- 314 3.21 311 3.21
 279  0.114  0.864  0.705- 315 3.21 310 3.21
 280  0.614  0.364  0.705- 316 3.21 313 3.21
 281  0.614  0.864  0.705- 317 3.21 312 3.21
 282  0.386  0.136  0.705- 314 3.21 312 3.21
 283  0.386  0.636  0.705- 315 3.21 313 3.21
 284  0.886  0.136  0.705- 316 3.21 310 3.21
 285  0.886  0.636  0.705- 317 3.21 311 3.21
 286  0.135  0.115  0.801- 318 3.22 322 3.22
 287  0.135  0.615  0.801- 319 3.22 323 3.22
 288  0.635  0.115  0.801- 320 3.22 324 3.22
 289  0.635  0.615  0.801- 321 3.22 325 3.22
 290  0.365  0.385  0.801- 321 3.22 322 3.22
 291  0.365  0.885  0.801- 320 3.22 323 3.22
 292  0.865  0.385  0.801- 319 3.22 324 3.22
 293  0.865  0.885  0.801- 318 3.22 325 3.22
 294  0.115  0.365  0.801- 319 3.23 322 3.23
 295  0.115  0.865  0.801- 318 3.23 323 3.23
 296  0.615  0.365  0.801- 321 3.23 324 3.23
 297  0.615  0.865  0.801- 320 3.23 325 3.23
 298  0.385  0.135  0.801- 320 3.23 322 3.23
 299  0.385  0.635  0.801- 321 3.23 323 3.23
 300  0.885  0.135  0.801- 318 3.23 324 3.23
 301  0.885  0.635  0.801- 319 3.23 325 3.23
 302  0.996  0.007  0.604- 260 3.17 238 3.17 253 3.20 246 3.21 255 3.24 232 3.27
 303  0.011  0.501  0.604- 233 3.13 247 3.13 239 3.21 254 3.23 261 3.30 252 3.30
 304  0.502  0.993  0.604- 230 3.16 251 3.16 257 3.17 240 3.21 258 3.24 248 3.28
 305  0.500  0.501  0.603- 231 3.15 256 3.17 241 3.20 250 3.20 249 3.20 259 3.26
 306  0.256  0.247  0.605- 242 3.11 258 3.19 250 3.20 246 3.22 254 3.23 234 3.24
 307  0.243  0.755  0.603- 255 3.15 243 3.16 247 3.17 251 3.22 235 3.28 259 3.30
 308  0.747  0.253  0.606- 244 3.11 256 3.19 248 3.20 260 3.24 236 3.24 252 3.31
 309  0.752  0.757  0.604- 253 3.14 257 3.16 245 3.17 237 3.20 249 3.31 261 3.38
 310  0.000  0.000  0.705- 262 3.13 238 3.16 270 3.20 277 3.20 279 3.21 284 3.21
 311  0.000  0.500  0.705- 239 3.12 263 3.13 271 3.20 276 3.20 278 3.21 285 3.21
 312  0.500  0.000  0.705- 240 3.12 264 3.13 272 3.20 275 3.20 281 3.21 282 3.21
 313  0.500  0.500  0.705- 265 3.13 241 3.18 273 3.20 274 3.20 280 3.21 283 3.21
 314  0.250  0.250  0.705- 242 3.13 266 3.13 270 3.20 274 3.20 282 3.21 278 3.21
 315  0.250  0.750  0.705- 267 3.13 243 3.20 271 3.20 275 3.20 283 3.21 279 3.21
 316  0.750  0.250  0.705- 268 3.13 244 3.13 272 3.20 276 3.20 284 3.21 280 3.21
 317  0.750  0.750  0.705- 269 3.13 245 3.18 273 3.20 277 3.20 285 3.21 281 3.21
 318  0.000  0.000  0.807- 286 3.22 293 3.22 300 3.23 295 3.23 262 3.27
 319  0.000  0.500  0.807- 287 3.22 292 3.22 301 3.23 294 3.23 263 3.27
 320  0.500  0.000  0.807- 288 3.22 291 3.22 298 3.23 297 3.23 264 3.27
 321  0.500  0.500  0.807- 289 3.22 290 3.22 299 3.23 296 3.23 265 3.27
 322  0.250  0.250  0.807- 290 3.22 286 3.22 294 3.23 298 3.23 266 3.27
 323  0.250  0.750  0.807- 291 3.22 287 3.22 299 3.23 295 3.23 267 3.27
 324  0.750  0.250  0.807- 292 3.22 288 3.22 296 3.23 300 3.23 268 3.27
 325  0.750  0.750  0.807- 293 3.22 289 3.22 297 3.23 301 3.23 269 3.27
 

IMPORTANT INFORMATION: All symmetrisations will be switched off!
NOSYMM: (Re-)initialisation of all symmetry stuff for point group C_1.


----------------------------------------------------------------------------------------

                                     Primitive cell                                     

  volume of cell :   20385.2105

  direct lattice vectors                    reciprocal lattice vectors
    18.060800552  0.000000000  0.000000000     0.055368531  0.000015077 -0.000000000
    -0.004918649 18.062799454  0.000000000     0.000000000  0.055362404  0.000000000
     0.000000000  0.000000000 62.487499237     0.000000000 -0.000000000  0.016003201

  length of vectors
    18.060800552 18.062800123 62.487499237     0.055368533  0.055362404  0.016003201

  position of ions in fractional coordinates (direct lattice)
     0.406693678  0.285114036  0.559147664
     0.417230398  0.696871810  0.570493989
     0.923594834  0.292704392  0.578649123
     0.923959193  0.812769262  0.572884603
     0.322293019  0.090744270  0.562276097
     0.326347650  0.568891287  0.567234853
     0.793145135  0.106508667  0.563614134
     0.107911824  0.241061164  0.561628934
     0.079160491  0.685407950  0.568524295
     0.580435691  0.184955342  0.564941425
     0.598961820  0.770714044  0.559639584
     0.379951926  0.017630663  0.554480715
     0.256537533  0.620369047  0.554857194
     0.872302895  0.055191584  0.556070327
     0.061547349  0.290678492  0.581239851
     0.992455577  0.693503264  0.580604898
     0.485945152  0.173254170  0.569262785
     0.553520248  0.700714427  0.573474687
     0.304592254  0.433976262  0.571594917
     0.190189039  0.063588860  0.568254344
     0.680994369  0.028976353  0.573461745
     0.457453627  0.365985492  0.553483079
     0.374239294  0.759835341  0.553461834
     0.883211604  0.244516246  0.557275891
     0.968297736  0.873794061  0.555625536
     0.227251521  0.397673775  0.559200043
     0.159555277  0.975629339  0.561794800
     0.688082689  0.935223568  0.566594100
     0.570072652  0.306043257  0.554748163
     0.488513936  0.816568215  0.544759349
     0.998865008  0.204240350  0.544382809
     0.068484656  0.795482607  0.549809615
     0.185385607  0.513804065  0.547638831
     0.278874149  0.934495217  0.552660099
     0.808606856  0.943441985  0.555739328
     0.455435538  0.300872461  0.673068277
     0.440267983  0.814777633  0.670794201
     0.955358968  0.284034851  0.676171986
     0.911726396  0.742057774  0.660798428
     0.294841575  0.041050725  0.675217083
     0.301137378  0.562066709  0.672636916
     0.797768233  0.051985601  0.674835903
     0.833246187  0.465518084  0.664197484
     0.090312124  0.169997951  0.647149396
     0.108375592  0.699929642  0.655462827
     0.576084565  0.166314704  0.646304073
     0.573902836  0.676465604  0.651659026
     0.185081109  0.412039529  0.651538702
     0.164078977  0.932366902  0.643203539
     0.634209755  0.486607863  0.655636628
     0.672596449  0.917327674  0.649378175
     0.062603034  0.188125131  0.673431142
     0.023094248  0.655007350  0.658264718
     0.549239848  0.192578684  0.671981084
     0.544538154  0.715257448  0.675536849
     0.211599639  0.449781412  0.675956855
     0.182662031  0.953625669  0.669872142
     0.697793088  0.430170735  0.668962841
     0.699815124  0.945361347  0.674905131
     0.433145764  0.337528401  0.648179326
     0.414973704  0.829292778  0.644182677
     0.924547284  0.317472349  0.651516542
     0.931967031  0.836238897  0.657062451
     0.342078520  0.063256320  0.652033369
     0.321865961  0.586679045  0.646337161
     0.822452571  0.081848061  0.649208158
     0.850843011  0.540513261  0.647669764
     0.006025755  0.249686672  0.631762530
     0.056865988  0.817079719  0.652942486
     0.506660867  0.256189264  0.629295117
     0.494943157  0.742767797  0.630484930
     0.262221196  0.998255476  0.629796682
     0.251617203  0.494570865  0.631195155
     0.747308807  0.000068345  0.631642938
     0.725551028  0.560705743  0.640436811
     0.448745018  0.301283966  0.768889017
     0.448745007  0.801283913  0.768889017
     0.948744965  0.301283966  0.768889017
     0.948745007  0.801283913  0.768889017
     0.301275995  0.051294496  0.768872961
     0.301276011  0.551294499  0.768872961
     0.801275943  0.051294496  0.768872961
     0.801275984  0.551294499  0.768872961
     0.078771004  0.171180501  0.743441971
     0.078771006  0.671180448  0.743441971
     0.578771004  0.171180501  0.743441971
     0.578770992  0.671180448  0.743441971
     0.171199499  0.421174482  0.743421032
     0.171199501  0.921174508  0.743421032
     0.671199512  0.421174482  0.743421032
     0.671199501  0.921174508  0.743421032
     0.051256000  0.198714991  0.768889017
     0.051256002  0.698714925  0.768889017
     0.551256027  0.198714991  0.768889017
     0.551256016  0.698714925  0.768889017
     0.198723491  0.448703970  0.768872046
     0.198723493  0.948703970  0.768872046
     0.698723518  0.448703970  0.768872046
     0.698723507  0.948703970  0.768872046
     0.421231519  0.328817467  0.743441971
     0.421231508  0.828817440  0.743441971
     0.921231466  0.328817467  0.743441971
     0.921231508  0.828817440  0.743441971
     0.328800503  0.078824997  0.743421032
     0.328800492  0.578824964  0.743421032
     0.828800477  0.078824997  0.743421032
     0.828800519  0.578824964  0.743421032
     0.000003500  0.250001478  0.725821992
     0.000003500  0.750001452  0.725821992
     0.500003506  0.250001478  0.725821992
     0.500003495  0.750001452  0.725821992
     0.250000502  0.000000000  0.725803983
     0.250000517  0.500000000  0.725803983
     0.750000502  0.000000000  0.725803983
     0.750000490  0.500000000  0.725803983
     0.800216856  0.506718508  0.513516711
     0.878236970  0.499438074  0.530732435
     0.756639605  0.617762319  0.531890503
     0.751958972  0.617295746  0.560023205
     0.686078783  0.437741820  0.548136367
     0.665231523  0.529463758  0.555821926
     0.794142453  0.419509453  0.565395313
     0.861834342  0.489941985  0.568074132
     0.859470909  0.373028758  0.537639334
     0.765331587  0.374201659  0.530554176
     0.789251812  0.383727394  0.493303928
     0.882090063  0.409927885  0.496980506
     0.895194800  0.613918752  0.532940335
     0.893204850  0.605406179  0.561292930
     0.858613882  0.686453979  0.548785545
     0.601738984  0.501648978  0.522978748
     0.683769544  0.475812105  0.509135830
     0.668066344  0.570406898  0.516688610
     0.702494328  0.494861992  0.586249520
     0.770456068  0.566158320  0.589758157
     0.784348488  0.477426817  0.600557558
     0.824408964  0.257977733  0.511208999
     0.850168361  0.274962252  0.484510421
     0.925988858  0.157820781  0.499288340
     0.976241728  0.384858585  0.515042529
     0.057317905  0.124376182  0.505003717
     0.106322707  0.351405433  0.520838000
     0.149352955  0.221903254  0.515289282
     0.996098258  0.239325677  0.558546347
     0.022433309  0.777251930  0.559988836
     0.519750803  0.274765264  0.558197889
     0.487323254  0.767655842  0.555032339
     0.238697603  0.509218848  0.555800254
     0.269865148  0.992166604  0.557229434
     0.780411833  0.993891529  0.560807786
     0.007223781  0.243861660  0.649141982
     0.021143032  0.769390616  0.655662696
     0.504861516  0.251859377  0.646708817
     0.493661661  0.752050900  0.647701326
     0.253613130  0.499246894  0.648621676
     0.252479551  0.998648779  0.647047997
     0.742120244  0.515108432  0.650858695
     0.747878991  0.999529884  0.649160052
     0.499988984  0.249994984  0.743277021
     0.499989025  0.749994958  0.743277021
     0.999988984  0.249994984  0.743277021
     0.999989025  0.749994958  0.743277021
     0.250000502  0.000001000  0.743255960
     0.250000517  0.500001003  0.743255960
     0.750000502  0.000001000  0.743255960
     0.750000491  0.500001003  0.743255960
     0.940993784  0.274370522  0.506184190
     0.965679828  0.200945338  0.503791438
     0.992753662  0.327665896  0.512463522
     0.039904163  0.181851497  0.507013152
     0.067144061  0.309141188  0.515604531
     0.091312161  0.236322412  0.512798672
     0.821015444  0.481165845  0.528132672
     0.784219941  0.597359069  0.546321246
     0.693490888  0.496171850  0.543631560
     0.802048954  0.479477005  0.567208664
     0.819693601  0.397165122  0.526294413
     0.838214810  0.373689521  0.503319695
     0.862837777  0.626086669  0.547349406
     0.661449380  0.512266860  0.521670686
     0.761572162  0.507119295  0.586760487
     0.861029528  0.292432590  0.501126202
     0.058492545  0.256893400  0.568004416
     0.030262977  0.713114812  0.569621011
     0.528057418  0.204708745  0.563274954
     0.550222696  0.743671430  0.562751595
     0.456359839  0.309895905  0.556379960
     0.422631823  0.737655818  0.559168725
     0.930309011  0.260111974  0.565161501
     0.964434643  0.821108923  0.561710555
     0.259171311  0.442922938  0.562044362
     0.202316278  0.012137156  0.562448678
     0.711099777  0.986878776  0.566691898
     0.326953913  0.036952769  0.557291153
     0.277338272  0.569945129  0.558901582
     0.817388067  0.056214150  0.560280886
     0.055682203  0.197909786  0.657389237
     0.051849184  0.703718722  0.656642445
     0.545705363  0.201011427  0.655838878
     0.539491869  0.712318359  0.659243795
     0.214968907  0.450672796  0.659610263
     0.196089476  0.959411492  0.654075769
     0.688752900  0.473954365  0.658808711
     0.704990575  0.950853991  0.658641380
     0.462108176  0.299367489  0.656824610
     0.446531193  0.800997539  0.654984032
     0.959887568  0.284166687  0.659936561
     0.949808267  0.782688932  0.657578118
     0.298745902  0.037387677  0.658928547
     0.294365803  0.552582394  0.656637744
     0.791344656  0.047625534  0.658642235
     0.812860734  0.506197922  0.654525689
     0.045862501  0.204119496  0.752725994
     0.045862500  0.704119456  0.752725994
     0.545862507  0.204119496  0.752725994
     0.545862496  0.704119456  0.752725994
     0.204119002  0.454101003  0.752704994
     0.204118991  0.954100951  0.752704994
     0.704118976  0.454101003  0.752704994
     0.704118964  0.954100951  0.752704994
     0.454140018  0.295888490  0.752726971
     0.454140007  0.795888516  0.752726971
     0.954140018  0.295888490  0.752726971
     0.954140060  0.795888516  0.752726971
     0.295882492  0.045900498  0.752704994
     0.295882481  0.545900528  0.752704994
     0.795882439  0.045900498  0.752704994
     0.795882481  0.545900528  0.752704994
     0.775688512  0.513355601  0.546278818
     0.515031195  0.984217425  0.553340900
     0.475236796  0.510397346  0.553155560
     0.005235704  0.012519329  0.551656114
     0.029639150  0.484593683  0.553996976
     0.259445593  0.237569942  0.553541867
     0.229284844  0.764282386  0.550634426
     0.733460383  0.232708304  0.554357033
     0.736384578  0.794361607  0.553878361
     0.995051130  0.986942510  0.654356893
     0.010236304  0.504389971  0.654963764
     0.496757457  0.003552293  0.654871217
     0.495586631  0.506261280  0.654062766
     0.262357820  0.242633374  0.654972006
     0.245655475  0.754299027  0.653590809
     0.746026242  0.272411252  0.655139154
     0.751218907  0.733931362  0.654124852
     0.134917064  0.116394489  0.608099044
     0.146471644  0.608690618  0.606076240
     0.636010558  0.114500741  0.607712736
     0.619516091  0.631365489  0.606382270
     0.367928998  0.383949356  0.607563354
     0.364654901  0.884428944  0.604582044
     0.887952135  0.367974566  0.610794652
     0.862032627  0.891127758  0.607064536
     0.126371008  0.367385740  0.611816218
     0.115232157  0.873307108  0.605657821
     0.610921442  0.364475240  0.602577554
     0.617601659  0.864662751  0.612522781
     0.394485317  0.136703046  0.604067232
     0.379703216  0.634760540  0.606832800
     0.881603187  0.136442252  0.612248922
     0.901728584  0.646026514  0.609413028
     0.000000000  0.000000000  0.754927972
     0.000000000  0.500000000  0.754927972
     0.500000000  0.000000000  0.754927972
     0.499999989  0.500000000  0.754927972
     0.250000496  0.250000000  0.754939022
     0.250000511  0.749999974  0.754939022
     0.750000470  0.250000000  0.754939022
     0.750000458  0.749999974  0.754939022
     0.135790500  0.114209997  0.704782994
     0.135790502  0.614209984  0.704782994
     0.635790447  0.114209997  0.704782994
     0.635790488  0.614209984  0.704782994
     0.364209516  0.385789989  0.704782994
     0.364209505  0.885789963  0.704782994
     0.864209542  0.385789989  0.704782994
     0.864209531  0.885789963  0.704782994
     0.114217990  0.364218986  0.704780979
     0.114217992  0.864218986  0.704780979
     0.614218004  0.364218986  0.704780979
     0.614217992  0.864218986  0.704780979
     0.385782012  0.135781489  0.704782017
     0.385782001  0.635781489  0.704782017
     0.885781985  0.135781489  0.704782017
     0.885782027  0.635781489  0.704782017
     0.134667000  0.115332001  0.801256025
     0.134666989  0.615331988  0.801256025
     0.634666987  0.115332001  0.801256025
     0.634666976  0.615331988  0.801256025
     0.365333002  0.384667985  0.801256025
     0.365332990  0.884667959  0.801256025
     0.865332949  0.384667985  0.801256025
     0.865332938  0.884667959  0.801256025
     0.115328503  0.365337004  0.801264999
     0.115328505  0.865336978  0.801264999
     0.615328503  0.365337004  0.801264999
     0.615328492  0.865336978  0.801264999
     0.384671513  0.134662996  0.801264999
     0.384671501  0.634662970  0.801264999
     0.884671486  0.134662996  0.801264999
     0.884671528  0.634662970  0.801264999
     0.995949670  0.006767248  0.603927739
     0.010715584  0.500963928  0.603527940
     0.501826484  0.993055381  0.603631659
     0.500169947  0.500714459  0.602916977
     0.256320012  0.246658275  0.605304357
     0.242538593  0.754901660  0.602966426
     0.747049700  0.252513910  0.605699333
     0.752303495  0.757016577  0.603799906
     0.000000500  0.000000500  0.704828963
     0.000000500  0.500000475  0.704828963
     0.500000475  0.000000500  0.704828963
     0.500000464  0.500000475  0.704828963
     0.249999994  0.249999472  0.704824995
     0.250000010  0.749999498  0.704824995
     0.749999994  0.249999472  0.704824995
     0.749999983  0.749999498  0.704824995
     0.000000000  0.000000000  0.807317968
     0.000000000  0.500000000  0.807317968
     0.500000000  0.000000000  0.807317968
     0.499999989  0.500000000  0.807317968
     0.249999994  0.250000000  0.807317968
     0.250000010  0.749999974  0.807317968
     0.749999994  0.250000000  0.807317968
     0.749999983  0.749999974  0.807317968

  ion indices of the primitive-cell ions
   primitive index   ion index
                 1           1
                 2           2
                 3           3
                 4           4
                 5           5
                 6           6
                 7           7
                 8           8
                 9           9
                10          10
                11          11
                12          12
                13          13
                14          14
                15          15
                16          16
                17          17
                18          18
                19          19
                20          20
                21          21
                22          22
                23          23
                24          24
                25          25
                26          26
                27          27
                28          28
                29          29
                30          30
                31          31
                32          32
                33          33
                34          34
                35          35
                36          36
                37          37
                38          38
                39          39
                40          40
                41          41
                42          42
                43          43
                44          44
                45          45
                46          46
                47          47
                48          48
                49          49
                50          50
                51          51
                52          52
                53          53
                54          54
                55          55
                56          56
                57          57
                58          58
                59          59
                60          60
                61          61
                62          62
                63          63
                64          64
                65          65
                66          66
                67          67
                68          68
                69          69
                70          70
                71          71
                72          72
                73          73
                74          74
                75          75
                76          76
                77          77
                78          78
                79          79
                80          80
                81          81
                82          82
                83          83
                84          84
                85          85
                86          86
                87          87
                88          88
                89          89
                90          90
                91          91
                92          92
                93          93
                94          94
                95          95
                96          96
                97          97
                98          98
                99          99
               100         100
               101         101
               102         102
               103         103
               104         104
               105         105
               106         106
               107         107
               108         108
               109         109
               110         110
               111         111
               112         112
               113         113
               114         114
               115         115
               116         116
               117         117
               118         118
               119         119
               120         120
               121         121
               122         122
               123         123
               124         124
               125         125
               126         126
               127         127
               128         128
               129         129
               130         130
               131         131
               132         132
               133         133
               134         134
               135         135
               136         136
               137         137
               138         138
               139         139
               140         140
               141         141
               142         142
               143         143
               144         144
               145         145
               146         146
               147         147
               148         148
               149         149
               150         150
               151         151
               152         152
               153         153
               154         154
               155         155
               156         156
               157         157
               158         158
               159         159
               160         160
               161         161
               162         162
               163         163
               164         164
               165         165
               166         166
               167         167
               168         168
               169         169
               170         170
               171         171
               172         172
               173         173
               174         174
               175         175
               176         176
               177         177
               178         178
               179         179
               180         180
               181         181
               182         182
               183         183
               184         184
               185         185
               186         186
               187         187
               188         188
               189         189
               190         190
               191         191
               192         192
               193         193
               194         194
               195         195
               196         196
               197         197
               198         198
               199         199
               200         200
               201         201
               202         202
               203         203
               204         204
               205         205
               206         206
               207         207
               208         208
               209         209
               210         210
               211         211
               212         212
               213         213
               214         214
               215         215
               216         216
               217         217
               218         218
               219         219
               220         220
               221         221
               222         222
               223         223
               224         224
               225         225
               226         226
               227         227
               228         228
               229         229
               230         230
               231         231
               232         232
               233         233
               234         234
               235         235
               236         236
               237         237
               238         238
               239         239
               240         240
               241         241
               242         242
               243         243
               244         244
               245         245
               246         246
               247         247
               248         248
               249         249
               250         250
               251         251
               252         252
               253         253
               254         254
               255         255
               256         256
               257         257
               258         258
               259         259
               260         260
               261         261
               262         262
               263         263
               264         264
               265         265
               266         266
               267         267
               268         268
               269         269
               270         270
               271         271
               272         272
               273         273
               274         274
               275         275
               276         276
               277         277
               278         278
               279         279
               280         280
               281         281
               282         282
               283         283
               284         284
               285         285
               286         286
               287         287
               288         288
               289         289
               290         290
               291         291
               292         292
               293         293
               294         294
               295         295
               296         296
               297         297
               298         298
               299         299
               300         300
               301         301
               302         302
               303         303
               304         304
               305         305
               306         306
               307         307
               308         308
               309         309
               310         310
               311         311
               312         312
               313         313
               314         314
               315         315
               316         316
               317         317
               318         318
               319         319
               320         320
               321         321
               322         322
               323         323
               324         324
               325         325

----------------------------------------------------------------------------------------

 
 
 KPOINTS: Automatic Mesh                          

Automatic generation of k-mesh.
 Grid dimensions read from file:
 generate k-points for:    3    3    1

 Generating k-lattice:

  Cartesian coordinates                     Fractional coordinates (reciprocal lattice)
     0.018456177  0.000005026 -0.000000000     0.333333333  0.000000000  0.000000000
     0.000000000  0.018454135  0.000000000     0.000000000  0.333333333  0.000000000
     0.000000000 -0.000000000  0.016003201     0.000000000  0.000000000  1.000000000

  Length of vectors
     0.018456178  0.018454135  0.016003201

  Shift w.r.t. Gamma in fractional coordinates (k-lattice)
     0.000000000  0.000000000  0.000000000

 
 Subroutine IBZKPT returns following result:
 ===========================================
 
 Found      5 irreducible k-points:
 
 Following reciprocal coordinates:
            Coordinates               Weight
  0.000000  0.000000  0.000000      1.000000
  0.333333  0.000000  0.000000      2.000000
  0.000000  0.333333  0.000000      2.000000
  0.333333  0.333333  0.000000      2.000000
 -0.333333  0.333333  0.000000      2.000000
 
 Following cartesian coordinates:
            Coordinates               Weight
  0.000000  0.000000  0.000000      1.000000
  0.018456  0.000005  0.000000      2.000000
  0.000000  0.018454  0.000000      2.000000
  0.018456  0.018459  0.000000      2.000000
 -0.018456  0.018449  0.000000      2.000000
 


--------------------------------------------------------------------------------------------------------




 Dimension of arrays:
   k-points           NKPTS =      5   k-points in BZ     NKDIM =      5   number of bands    NBANDS=    732
   number of dos      NEDOS =    301   number of ions     NIONS =    325
   non local maximal  LDIM  =      5   non local SUM 2l+1 LMDIM =     13
   total plane-waves  NPLWV = ******
   max r-space proj   IRMAX =   3336   max aug-charges    IRDMAX=  19845
   dimension x,y,z NGX =   100 NGY =  100 NGZ =  350
   dimension x,y,z NGXF=   200 NGYF=  200 NGZF=  700
   support grid    NGXF=   200 NGYF=  200 NGZF=  700
   ions per type =             143  39  47  72  24
   NGX,Y,Z   is equivalent  to a cutoff of   9.20,  9.20,  9.31 a.u.
   NGXF,Y,Z  is equivalent  to a cutoff of  18.41, 18.41, 18.62 a.u.

 SYSTEM =  PSC                                     
 POSCAR =   H  C  N  I Pb                          

 Startparameter for this run:
   NWRITE =      2    write-flag & timer
   PREC   = normal    normal or accurate (medium, high low for compatibility)
   ISTART =      0    job   : 0-new  1-cont  2-samecut
   ICHARG =      1    charge: 1-file 2-atom 10-const
   ISPIN  =      1    spin polarized calculation?
   LNONCOLLINEAR =      F non collinear calculations
   LSORBIT =      F    spin-orbit coupling
   INIWAV =      1    electr: 0-lowe 1-rand  2-diag
   LASPH  =      F    aspherical Exc in radial PAW
 Electronic Relaxation 1
   ENCUT  =  500.0 eV  36.75 Ry    6.06 a.u.  32.93 32.93113.93*2*pi/ulx,y,z
   ENINI  =  500.0     initial cutoff
   ENAUG  =  644.9 eV  augmentation charge cutoff
   NELM   =    600;   NELMIN=  2; NELMDL=  0     # of ELM steps 
   EDIFF  = 0.1E-03   stopping-criterion for ELM
   LREAL  =      T    real-space projection
   NLSPLINE    = F    spline interpolate recip. space projectors
   LCOMPAT=      F    compatible to vasp.4.4
   GGA_COMPAT  = F    GGA compatible to vasp.4.4-vasp.4.6
   LMAXPAW     = -100 max onsite density
   LMAXMIX     =    2 max onsite mixed and CHGCAR
   VOSKOWN=      0    Vosko Wilk Nusair interpolation
   ROPT   =   -0.00050  -0.00050  -0.00050  -0.00050
   ROPT   =   -0.00050
 Ionic relaxation
   EDIFFG = 0.1E-02   stopping-criterion for IOM
   NSW    =      0    number of steps for IOM
   NBLOCK =      1;   KBLOCK =      1    inner block; outer block 
   IBRION =     -1    ionic relax: 0-MD 1-quasi-New 2-CG
   NFREE  =      0    steps in history (QN), initial steepest desc. (CG)
   ISIF   =      2    stress and relaxation
   IWAVPR =     10    prediction:  0-non 1-charg 2-wave 3-comb
   ISYM   =      0    0-nonsym 1-usesym 2-fastsym
   LCORR  =      T    Harris-Foulkes like correction to forces

   POTIM  = 0.5000    time-step for ionic-motion
   TEIN   =    0.0    initial temperature
   TEBEG  =    0.0;   TEEND  =   0.0 temperature during run
   SMASS  =  -3.00    Nose mass-parameter (am)
   estimated Nose-frequenzy (Omega)   =  0.10E-29 period in steps = 0.13E+47 mass=  -0.745E-26a.u.
   SCALEE = 1.0000    scale energy and forces
   NPACO  =    256;   APACO  = 16.0  distance and # of slots for P.C.
   PSTRESS=    0.0 pullay stress

  Mass of Ions in am
   POMASS =   1.00 12.01 14.00126.90207.20
  Ionic Valenz
   ZVAL   =   1.00  4.00  5.00  7.00  4.00
  Atomic Wigner-Seitz radii
   RWIGS  =  -1.00 -1.00 -1.00 -1.00 -1.00
  virtual crystal weights 
   VCA    =   1.00  1.00  1.00  1.00  1.00
   NELECT =    1134.0000    total number of electrons
   NUPDOWN=      -1.0000    fix difference up-down

 DOS related values:
   EMIN   =  10.00;   EMAX   =-10.00  energy-range for DOS
   EFERMI =   0.00
   ISMEAR =     0;   SIGMA  =   0.05  broadening in eV -4-tet -1-fermi 0-gaus

 Electronic relaxation 2 (details)
   IALGO  =     38    algorithm
   LDIAG  =      T    sub-space diagonalisation (order eigenvalues)
   LSUBROT=      F    optimize rotation matrix (better conditioning)
   TURBO    =      0    0=normal 1=particle mesh
   IRESTART =      0    0=no restart 2=restart with 2 vectors
   NREBOOT  =      0    no. of reboots
   NMIN     =      0    reboot dimension
   EREF     =   0.00    reference energy to select bands
   IMIX   =      4    mixing-type and parameters
     AMIX     =   0.40;   BMIX     =  0.01
     AMIX_MAG =   1.60;   BMIX_MAG =  0.01
     AMIN     =   0.01
     WC   =   100.;   INIMIX=   1;  MIXPRE=   1;  MAXMIX= -45

 Intra band minimization:
   WEIMIN = 0.0000     energy-eigenvalue tresh-hold
   EBREAK =  0.34E-07  absolut break condition
   DEPER  =   0.30     relativ break condition  

   TIME   =   0.40     timestep for ELM

  volume/ion in A,a.u.               =      62.72       423.28
  Fermi-wavevector in a.u.,A,eV,Ry     =   0.624944  1.180972  5.313816  0.390554
  Thomas-Fermi vector in A             =   1.685677
 
 Write flags
   LWAVE        =      F    write WAVECAR
   LDOWNSAMPLE  =      F    k-point downsampling of WAVECAR
   LCHARG       =      T    write CHGCAR
   LVTOT        =      T    write LOCPOT, total local potential
   LVHAR        =      F    write LOCPOT, Hartree potential only
   LELF         =      F    write electronic localiz. function (ELF)
   LORBIT       =      0    0 simple, 1 ext, 2 COOP (PROOUT), +10 PAW based schemes


 Dipole corrections
   LMONO  =      F    monopole corrections only (constant potential shift)
   LDIPOL =      T    correct potential (dipole corrections)
   IDIPOL =      3    1-x, 2-y, 3-z, 4-all directions 
   EPSILON=  1.0000000 bulk dielectric constant

 Exchange correlation treatment:
   GGA     =    --    GGA type
   LEXCH   =     8    internal setting for exchange type
   VOSKOWN=      0    Vosko Wilk Nusair interpolation
   LHFCALC =     F    Hartree Fock is set to
   LHFONE  =     F    Hartree Fock one center treatment
   AEXX    =    0.0000 exact exchange contribution

 Linear response parameters
   LEPSILON=     F    determine dielectric tensor
   LRPA    =     F    only Hartree local field effects (RPA)
   LNABLA  =     F    use nabla operator in PAW spheres
   LVEL    =     F    velocity operator in full k-point grid
   LINTERFAST=   F  fast interpolation
   KINTER  =     0    interpolate to denser k-point grid
   CSHIFT  =0.1000    complex shift for real part using Kramers Kronig
   OMEGAMAX=  -1.0    maximum frequency
   DEG_THRESHOLD= 0.2000000E-02 threshold for treating states as degnerate
   RTIME   =   -0.100 relaxation time in fs
  (WPLASMAI=    0.000 imaginary part of plasma frequency in eV, 0.658/RTIME)
   DFIELD  = 0.0000000 0.0000000 0.0000000 field for delta impulse in time
 
 Orbital magnetization related:
   ORBITALMAG=     F  switch on orbital magnetization
   LCHIMAG   =     F  perturbation theory with respect to B field
   DQ        =  0.001000  dq finite difference perturbation B field
   LLRAUG    =     F  two centre corrections for induced B field



--------------------------------------------------------------------------------------------------------


 Static calculation
 charge density and potential will be updated during run
 non-spin polarized calculation
 Variant of blocked Davidson
 Davidson routine will perform the subspace rotation
 perform sub-space diagonalisation
    after iterative eigenvector-optimisation
 modified Broyden-mixing scheme, WC =      100.0
 initial mixing is a Kerker type mixing with AMIX =  0.4000 and BMIX =      0.0100
 Hartree-type preconditioning will be used
 using additional bands           165
 real space projection scheme for non local part
[...]
     13.54561      0.00000     45.35368         0.005944     -0.007972      0.011612
     13.54315      9.03140     45.35368        -0.001187      0.011876     -0.009334
     14.45006      9.15275     32.08838        -0.058769      0.158719     -0.186496
     15.85921      9.02125     33.16414        -0.000258      0.049216      0.006946
     13.66248     11.15852     33.23651        -0.032852     -0.042804     -0.052592
     13.57794     11.15009     34.99445        -0.012184     -0.022904     -0.028658
     12.38898      7.90684     34.25167         0.009137      0.079071     -0.062534
     12.01201      9.56360     34.73192        -0.035596     -0.012265     -0.028659
     14.34079      7.57752     35.33014         0.014918      0.030701      0.002627
     15.56301      8.84972     35.49753         0.025500     -0.001347     -0.013483
     15.52090      6.73794     33.59574         0.024292      0.007468     -0.038068
     13.82066      6.75913     33.15300         0.014911     -0.024112      0.012415
     14.25263      6.93119     30.82533        -0.054368      0.028584     -0.070676
     15.92924      7.40445     31.05507         0.031195     -0.035050     -0.103360
     16.16492     11.08909     33.30211         0.002146     -0.005253     -0.018053
     16.12902     10.93533     35.07379         0.003391      0.003572      0.012114
     15.50388     12.39928     34.29224         0.008255      0.046247      0.014728
     10.86542      9.06118     32.67963        -0.027408      0.028651     -0.057088
     12.34708      8.59450     31.81462        -0.030200      0.053190      0.050661
     12.06301     10.30315     32.28658        -0.012217     -0.150946      0.047147
     12.68518      8.93859     36.63327        -0.104861      0.005616      0.032961
     13.91227     10.22640     36.85251        -0.027213     -0.020961     -0.032400
     14.16361      8.62366     37.52734         0.002660     -0.017288      0.021621
     14.88822      4.65980     31.94417         0.011273      0.014457     -0.046276
     15.35337      4.96659     30.27584         0.032090     -0.056211      0.027746
     16.72332      2.85069     31.19928         0.041797      0.068176     -0.001216
     17.62981      6.95162     32.18372        -0.022412      0.077214      0.024355
      1.03460      2.24658     31.55642        -0.009547      0.043194      0.024309
      1.91854      6.34737     32.54586        -0.043700      0.054252     -0.028672
      2.69634      4.00819     32.19914        -0.030451      0.026658      0.010285
     17.98915      4.32289     34.90216        -0.070323     -0.064728      0.000581
      0.40134     14.03935     34.99230         0.113716      0.033584      0.097261
      9.38576      4.96303     34.88039        -0.029759      0.073265     -0.087420
      8.79767     13.86601     34.68258        -0.182381      0.108000      0.017680
      4.30857      9.19792     34.73057        -0.006000      0.166129     -0.027587
      4.86910     17.92131     34.81987         0.101565      0.035288      0.072036
     14.08997     17.95246     35.04348        -0.018548     -0.016153      0.000930
      0.12927      4.40482     40.56326         0.141084     -0.080078      0.027848
      0.37808     13.89735     40.97072        -0.259069     -0.092556      0.075060
      9.11696      4.54929     40.41122        -0.182775      0.295148      0.155377
      8.91223     13.58414     40.47324         0.074282     -0.041350      0.042905
      4.57800      9.01780     40.53075        -0.071244     -0.128077      0.013428
      4.55507     18.03839     40.43241         0.062100     -0.007951      0.148377
     13.40075      9.30430     40.67053        -0.548722     -0.063073      0.078472
     13.50238     18.05431     40.56439        -0.108345     -0.111934     -0.073317
      9.02897      4.51561     46.44552         0.008783      0.003300      0.025291
      9.02651     13.54701     46.44552         0.027427     -0.012125      0.042601
     18.05937      4.51561     46.44552         0.015886      0.002078      0.036586
     18.05691     13.54701     46.44552         0.013352     -0.002263     -0.013934
      4.51521      0.00002     46.44421         0.002964      0.001138      0.055972
      4.51275      9.03142     46.44421        -0.005989     -0.003699      0.030141
     13.54561      0.00002     46.44421        -0.008579     -0.011050      0.032769
     13.54315      9.03142     46.44421         0.012746      0.020142      0.018756
     16.99375      4.95590     31.63018         0.007853     -0.160541     -0.081611
     17.43996      3.62964     31.48067         0.008246     -0.110797      0.026827
     17.92831      5.91856     32.02256         0.143952      0.047944     -0.031910
      0.71981      3.28475     31.68198        -0.087703      0.031742     -0.048536
      1.21115      5.58396     32.21884         0.088369     -0.173575      0.071016
      1.64801      4.26864     32.04351        -0.043176      0.002248     -0.111289
     14.82583      8.69120     33.00169         0.077971     -0.106262      0.153536
     14.16070     10.78998     34.13825         0.066542     -0.008688      0.089414
     12.52256      8.96225     33.97018        -0.001816      0.029878      0.020268
     14.48329      8.66070     35.44345        -0.021770     -0.025933      0.053128
     14.80237      7.17391     32.88682        -0.052644     -0.038410      0.028720
     15.13699      6.74988     31.45119         0.051729      0.064611      0.098327
     15.58046     11.30888     34.20250         0.054067     -0.057941     -0.038121
     11.94379      9.25297     32.59790         0.042983     -0.089858     -0.075262
     13.75211      9.15999     36.66520         0.164442      0.070250     -0.030614
     15.54944      5.28215     31.31412        -0.089422      0.066160     -0.012021
      1.05516      4.64021     35.49318        -0.078421      0.150597      0.144306
      0.54307     12.88085     35.59419        -0.121054      0.104717     -0.101047
      9.53613      3.69761     35.19764        -0.005602      0.095980     -0.032006
      9.93380     13.43279     35.16494         0.008922     -0.125307      0.117512
      8.24070      5.59759     34.76679         0.310811      0.103067     -0.067582
      7.62944     13.32413     34.94106        -0.031084     -0.002236     -0.041002
     16.80085      4.69835     35.31553         0.042168      0.178658      0.116474
     17.41442     14.83153     35.09989         0.142835     -0.151462     -0.079056
      4.67866      8.00043     35.12075         0.185264     -0.026497      0.113019
      3.65393      0.21923     35.14601        -0.033848     -0.010469     -0.073775
     12.83818     17.82579     35.41116        -0.201349      0.009859      0.115664
      5.90487      0.66747     34.82373         0.135800      0.079321     -0.034921
      5.00615     10.29480     34.92436         0.220598     -0.511248      0.164365
     14.76241      1.01538     35.01055        -0.013641      0.255289     -0.025308
      1.00469      3.57480     41.07861         0.173382     -0.144915     -0.176495
      0.93298     12.71113     41.03194         0.139545     -0.086479     -0.072969
      9.85489      3.63083     40.98173         0.205899     -0.252253     -0.083880
      9.74015     12.86646     41.19450         0.084467     -0.030346      0.272335
      3.88029      8.14041     41.21740         0.141751      0.200004      0.186659
      3.53681     17.32966     40.87156         0.336682      0.270690      0.155762
     12.43710      8.56094     41.16731         0.146258     -0.042744      0.043541
     12.72802     17.17508     41.15685         0.059398      0.067234      0.210823
      8.34457      5.40741     41.04333         0.024135     -0.008783      0.001610
      8.06077     14.46826     40.92831        -0.099366      0.137490      0.076829
     17.33494      5.13285     41.23779        -0.186550      0.196943     -0.020053
     17.15045     14.13755     41.09041         0.046160     -0.122793      0.061158
      5.39541      0.67533     41.17480        -0.655038     -0.405788      0.144791
      5.31376      9.98118     41.03165        -0.019446     -0.012906     -0.012919
     14.29208      0.86025     41.15691         0.001759      0.033719      0.016678
     14.67843      9.14335     40.89967         0.332397     -0.037018     -0.034024
      0.82731      3.68697     47.03596         0.018803     -0.024217     -0.093709
      0.82485     12.71837     47.03596         0.027362     -0.020169     -0.053573
      9.85771      3.68697     47.03596         0.025377     -0.024415     -0.080632
      9.85525     12.71837     47.03596         0.006553     -0.011015     -0.079854
      3.68432      8.20234     47.03465        -0.008045     -0.015446     -0.065701
      3.68186     17.23373     47.03465        -0.012619     -0.010841     -0.071019
     12.71472      8.20234     47.03465        -0.021026     -0.028401     -0.051059
     12.71226     17.23373     47.03465        -0.012737     -0.005673     -0.073085
      8.20068      5.34457     47.03603        -0.021164      0.019140     -0.081396
      8.19822     14.37597     47.03603        -0.030511      0.027448     -0.085633
     17.23108      5.34457     47.03603        -0.029220      0.020609     -0.105206
     17.22862     14.37597     47.03603        -0.022767      0.030889     -0.055650
      5.34365      0.82909     47.03465         0.005156      0.008400     -0.070804
      5.34119      9.86049     47.03465         0.019060      0.014747     -0.058192
     14.37405      0.82909     47.03465         0.017747      0.022556     -0.064716
     14.37159      9.86049     47.03465         0.003487      0.000019     -0.054272
     14.00703      9.27264     34.13560        -0.041357      0.034452     -0.154947
      9.29703     17.77772     34.57689        -0.010391     -0.002216     -0.017588
      8.58065      9.21920     34.56531        -0.035807     -0.022850     -0.017025
      0.09450      0.22613     34.47161         0.009433      0.010347     -0.002044
      0.53292      8.75312     34.61789        -0.049235      0.009478     -0.007907
      4.68463      4.29118     34.58945        -0.012872     -0.002651      0.032584
      4.13731     13.80508     34.40777        -0.006500      0.007562      0.018642
     13.24574      4.20336     34.64038        -0.022428      0.028612     -0.015315
     13.29579     14.34839     34.61047        -0.003904      0.016575     -0.047603
     17.96657     17.82694     40.88913         0.010157     -0.009336     -0.002571
      0.18239      9.11069     40.92705        -0.012990      0.011389     -0.017663
      8.97182      0.06416     40.92126         0.012367     -0.010089     -0.058240
      8.94820      9.14450     40.87075        -0.018628     -0.006984      0.003542
      4.73720      4.38264     40.92756        -0.006750     -0.002718     -0.002947
      4.43302     13.62475     40.84126        -0.009210      0.009520      0.009163
     13.47249      4.92051     40.93801        -0.011287     -0.024202      0.010554
     13.56400     13.25686     40.87463         0.006743      0.001823      0.034483
      2.43614      2.10241     37.99859         0.024089      0.030546      0.006456
      2.64240     10.99466     37.87219         0.014077     -0.004146     -0.020028
     11.48630      2.06820     37.97445         0.029744      0.007434      0.022123
     11.18585     11.40423     37.89131        -0.054198      0.047146      0.021343
      6.64320      6.93520     37.96511         0.004249      0.007997      0.000984
      6.58161     15.97526     37.77882        -0.002153     -0.009629      0.012031
     16.03532      6.64665     38.16703         0.048973     -0.034284     -0.010574
     15.56462     16.09626     37.93394        -0.022876     -0.011988     -0.011061
      2.28055      6.63601     38.23087        -0.012522     -0.011115     -0.041641
      2.07689     15.77437     37.84604        -0.016545     -0.005015     -0.019222
     11.03194      6.58344     37.65356         0.000861      0.003986     -0.008770
     11.15013     15.61823     38.27502         0.015974     -0.008217     -0.033234
      7.12405      2.46924     37.74665         0.008075     -0.001168     -0.009136
      6.85462     11.46555     37.91946        -0.002829      0.005069      0.001076
     15.92179      2.46453     38.25790        -0.014824     -0.018379     -0.010494
     16.28276     11.66905     38.08070        -0.006402     -0.008462     -0.013470
      0.00000      0.00000     47.17356         0.001779      0.006398      0.382374
     -0.00246      9.03140     47.17356         0.000098     -0.009214      0.454956
      9.03040      0.00000     47.17356         0.001512     -0.001887      0.457425
      9.02794      9.03140     47.17356        -0.004020      0.000803      0.391762
      4.51398      4.51570     47.17425        -0.002366     -0.004080      0.412946
      4.51152     13.54710     47.17425         0.003501      0.005330      0.339231
     13.54438      4.51570     47.17425         0.005237      0.002387      0.392821
     13.54192     13.54710     47.17425        -0.004893      0.001502      0.401804
      2.45192      2.06295     44.04013         0.013045     -0.030491     -0.038378
      2.44946     11.09435     44.04013         0.082826     -0.018305     -0.005734
     11.48232      2.06295     44.04013         0.010402      0.031615     -0.088191
     11.47986     11.09435     44.04013        -0.087699      0.036172      0.002158
      6.57602      6.96845     44.04013         0.010665     -0.017214     -0.060634
      6.57356     15.99985     44.04013         0.026690     -0.019219     -0.068742
     15.60642      6.96845     44.04013         0.007435     -0.007268     -0.090578
     15.60396     15.99985     44.04013        -0.047804      0.048869     -0.036151
      2.06108      6.57881     44.04000         0.026080     -0.053086     -0.044446
      2.05862     15.61021     44.04000         0.063114      0.085057     -0.056441
     11.09148      6.57881     44.04000        -0.030306     -0.008855     -0.022936
     11.08902     15.61021     44.04000        -0.027205     -0.007993     -0.052040
      6.96686      2.45259     44.04007         0.013525     -0.009934      0.004405
      6.96440     11.48399     44.04007        -0.034322      0.012390     -0.060330
     15.99726      2.45259     44.04007         0.003880      0.024025     -0.070997
     15.99481     11.48399     44.04007         0.011109     -0.018543     -0.064768
      2.43163      2.08322     50.06849         0.007028     -0.012238      0.021941
      2.42917     11.11462     50.06849         0.019787     -0.003040      0.027281
     11.46203      2.08322     50.06849         0.014953     -0.006118      0.023506
     11.45957     11.11462     50.06849         0.005544     -0.013455      0.025898
      6.59631      6.94818     50.06849        -0.010993      0.009427      0.024827
      6.59385     15.97958     50.06849        -0.016138      0.005140      0.023881
     15.62671      6.94818     50.06849        -0.014812      0.001854      0.022896
     15.62425     15.97958     50.06849        -0.005625      0.018196      0.026862
      2.08113      6.59901     50.06905        -0.005294     -0.016939      0.024846
      2.07867     15.63041     50.06905        -0.008375     -0.008687      0.024322
     11.11153      6.59901     50.06905        -0.010234     -0.011785      0.025507
     11.10907     15.63041     50.06905        -0.010270     -0.009281      0.024973
      6.94681      2.43239     50.06905         0.006690      0.011637      0.024096
      6.94435     11.46379     50.06905         0.006695      0.014137      0.025162
     15.97721      2.43239     50.06905         0.011918      0.009222      0.022855
     15.97475     11.46379     50.06905         0.008125      0.011402      0.027853
     17.98762      0.12224     37.73793         0.009574      0.017696      0.013168
      0.19107      9.04881     37.71295        -0.011412     -0.034401     -0.006249
      9.05850     17.93736     37.71943        -0.002102     -0.004202      0.016816
      9.03101      9.04430     37.67477        -0.004349      0.013083     -0.002989
      4.62813      4.45534     37.82396        -0.020523      0.005089      0.016328
      4.37673     13.63564     37.67786         0.019992      0.023398     -0.007350
     13.49107      4.56111     37.84864        -0.000337      0.003141     -0.002132
     13.58348     13.67384     37.72995         0.014096     -0.002736      0.051539
      0.00001      0.00001     44.04300        -0.057931     -0.116024      0.119849
     -0.00245      9.03141     44.04300         0.033518      0.147903      0.173717
      9.03041      0.00001     44.04300        -0.018245      0.011594      0.093382
      9.02795      9.03141     44.04300         0.053692      0.031805      0.136882
      4.51397      4.51569     44.04275         0.037293      0.035433      0.146408
      4.51151     13.54709     44.04275        -0.088574     -0.040932      0.129619
     13.54437      4.51569     44.04275        -0.062920     -0.021534      0.171757
     13.54191     13.54709     44.04275         0.091152     -0.074098      0.091325
      0.00000      0.00000     50.44728        -0.004139     -0.004987     -0.622752
     -0.00246      9.03140     50.44728        -0.003100      0.005088     -0.646825
      9.03040      0.00000     50.44728         0.002978     -0.001889     -0.641441
      9.02794      9.03140     50.44728         0.003893      0.001345     -0.628211
      4.51397      4.51570     50.44728         0.000857      0.004232     -0.629370
      4.51151     13.54710     50.44728        -0.001943     -0.004434     -0.614741
     13.54437      4.51570     50.44728        -0.001392      0.004267     -0.622423
     13.54191     13.54710     50.44728         0.002089     -0.004196     -0.635962
 -----------------------------------------------------------------------------------
    total drift:                                0.026887      0.017373      0.654073


--------------------------------------------------------------------------------------------------------



  FREE ENERGIE OF THE ION-ELECTRON SYSTEM (eV)
  ---------------------------------------------------
  free  energy   TOTEN  =     -1576.50210610 eV

  energy  without entropy=    -1576.50210610  energy(sigma->0) =    -1576.50210610
 


--------------------------------------------------------------------------------------------------------


    POTLOK:  cpu time    0.5038: real time    0.5038


--------------------------------------------------------------------------------------------------------


     LOOP+:  cpu time  264.2832: real time  265.0468
 vacuum level on the upper side and lower side of the slab         2.334         1.497
    4ORBIT:  cpu time    0.0000: real time    0.0000

 total amount of memory used by VASP MPI-rank0  8653584. kBytes
=======================================================================

   base      :      30000. kBytes
   nonlr-proj:      53622. kBytes
   fftplans  :     249280. kBytes
   grid      :     701440. kBytes
   one-center:       2636. kBytes
   wavefun   :    7616606. kBytes
 
  
  
 General timing and accounting informations for this job:
 ========================================================
  
                  Total CPU time used (sec):      476.426
                            User time (sec):      389.110
                          System time (sec):       87.316
                         Elapsed time (sec):      479.449
  
                   Maximum memory used (kb):    10323748.
                   Average memory used (kb):          N/A
  
                          Minor page faults:      3577308
                          Major page faults:           13
                 Voluntary context switches:        10912
