<?xml version="1.0" encoding="ISO-8859-1"?>
<modeling>
 <generator>
  <i name="program" type="string">vasp </i>
  <i name="version" type="string">6.2.1  </i>
  <i name="subversion" type="string">16May21 (build Nov 15 2021 14:57:28) complex                          parallel </i>
  <i name="platform" type="string">LinuxPGI </i>
  <i name="date" type="string">2023 07 30 </i>
  <i name="time" type="string">14:58:37 </i>
 </generator>
 <incar>
  <i type="string" name="SYSTEM">PSC</i>
  <i type="int" name="ISTART">     1</i>
  <i type="string" name="PREC">Normal</i>
  <i name="BMIX">      0.01000000</i>
  <i name="AMIN">      0.01000000</i>
  <i type="int" name="ICHARG">     1</i>
  <i type="int" name="NELM">   600</i>
  <i type="int" name="ISYM">     0</i>
  <i name="ENCUT">    500.00000000</i>
  <i type="string" name="LREAL">Auto</i>
  <i type="int" name="ISMEAR">     0</i>
  <i name="SIGMA">      0.05000000</i>
  <i type="logical" name="LWAVE"> F  </i>
  <i type="logical" name="LVTOT"> T  </i>
  <i type="logical" name="GGA_COMPAT"> F  </i>
  <i type="logical" name="LDIPOL"> T  </i>
  <i type="int" name="IDIPOL">     3</i>
  <i type="int" name="IVDW">    12</i>
 </incar>
 <primitive_cell>
  <structure name="primitive_cell" >
   <crystal>
    <varray name="basis" >
     <v>      18.06080055       0.00000000       0.00000000 </v>
     <v>      -0.00491865      18.06279945       0.00000000 </v>
     <v>       0.00000000       0.00000000      62.48749924 </v>
    </varray>
    <i name="volume">  20385.21054034 </i>
    <varray name="rec_basis" >
     <v>       0.05536853       0.00001508      -0.00000000 </v>
     <v>       0.00000000       0.05536240       0.00000000 </v>
     <v>       0.00000000      -0.00000000       0.01600320 </v>
    </varray>
   </crystal>
   <varray name="positions" >
    <v>       0.40669368       0.28511404       0.55914766 </v>
    <v>       0.41723040       0.69687181       0.57049399 </v>
    <v>       0.92359483       0.29270439       0.57864912 </v>
    <v>       0.92395919       0.81276926       0.57288460 </v>
    <v>       0.32229302       0.09074427       0.56227610 </v>
    <v>       0.32634765       0.56889129       0.56723485 </v>
    <v>       0.79314513       0.10650867       0.56361413 </v>
    <v>       0.10791182       0.24106116       0.56162893 </v>
    <v>       0.07916049       0.68540795       0.56852430 </v>
    <v>       0.58043569       0.18495534       0.56494143 </v>
    <v>       0.59896182       0.77071404       0.55963958 </v>
    <v>       0.37995193       0.01763066       0.55448071 </v>
    <v>       0.25653753       0.62036905       0.55485719 </v>
    <v>       0.87230290       0.05519158       0.55607033 </v>
    <v>       0.06154735       0.29067849       0.58123985 </v>
    <v>       0.99245558       0.69350326       0.58060490 </v>
    <v>       0.48594515       0.17325417       0.56926279 </v>
    <v>       0.55352025       0.70071443       0.57347469 </v>
    <v>       0.30459225       0.43397626       0.57159492 </v>
    <v>       0.19018904       0.06358886       0.56825434 </v>
    <v>       0.68099437       0.02897635       0.57346175 </v>
    <v>       0.45745363       0.36598549       0.55348308 </v>
    <v>       0.37423929       0.75983534       0.55346183 </v>
    <v>       0.88321160       0.24451625       0.55727589 </v>
    <v>       0.96829774       0.87379406       0.55562554 </v>
    <v>       0.22725152       0.39767378       0.55920004 </v>
    <v>       0.15955528       0.97562934       0.56179480 </v>
    <v>       0.68808269       0.93522357       0.56659410 </v>
    <v>       0.57007265       0.30604326       0.55474816 </v>
    <v>       0.48851394       0.81656821       0.54475935 </v>
    <v>       0.99886501       0.20424035       0.54438281 </v>
    <v>       0.06848466       0.79548261       0.54980961 </v>
    <v>       0.18538561       0.51380406       0.54763883 </v>
    <v>       0.27887415       0.93449522       0.55266010 </v>
    <v>       0.80860686       0.94344199       0.55573933 </v>
    <v>       0.45543554       0.30087246       0.67306828 </v>
    <v>       0.44026798       0.81477763       0.67079420 </v>
    <v>       0.95535897       0.28403485       0.67617199 </v>
    <v>       0.91172640       0.74205777       0.66079843 </v>
    <v>       0.29484158       0.04105073       0.67521708 </v>
    <v>       0.30113738       0.56206671       0.67263692 </v>
    <v>       0.79776823       0.05198560       0.67483590 </v>
    <v>       0.83324619       0.46551808       0.66419748 </v>
    <v>       0.09031212       0.16999795       0.64714940 </v>
    <v>       0.10837559       0.69992964       0.65546283 </v>
    <v>       0.57608457       0.16631470       0.64630407 </v>
    <v>       0.57390284       0.67646560       0.65165903 </v>
    <v>       0.18508111       0.41203953       0.65153870 </v>
    <v>       0.16407898       0.93236690       0.64320354 </v>
    <v>       0.63420976       0.48660786       0.65563663 </v>
    <v>       0.67259645       0.91732767       0.64937817 </v>
    <v>       0.06260303       0.18812513       0.67343114 </v>
    <v>       0.02309425       0.65500735       0.65826472 </v>
    <v>       0.54923985       0.19257868       0.67198108 </v>
    <v>       0.54453815       0.71525745       0.67553685 </v>
    <v>       0.21159964       0.44978141       0.67595685 </v>
    <v>       0.18266203       0.95362567       0.66987214 </v>
    <v>       0.69779309       0.43017074       0.66896284 </v>
    <v>       0.69981512       0.94536135       0.67490513 </v>
    <v>       0.43314576       0.33752840       0.64817933 </v>
    <v>       0.41497370       0.82929278       0.64418268 </v>
    <v>       0.92454728       0.31747235       0.65151654 </v>
    <v>       0.93196703       0.83623890       0.65706245 </v>
    <v>       0.34207852       0.06325632       0.65203337 </v>
    <v>       0.32186596       0.58667904       0.64633716 </v>
    <v>       0.82245257       0.08184806       0.64920816 </v>
    <v>       0.85084301       0.54051326       0.64766976 </v>
    <v>       0.00602576       0.24968667       0.63176253 </v>
    <v>       0.05686599       0.81707972       0.65294249 </v>
    <v>       0.50666087       0.25618926       0.62929512 </v>
    <v>       0.49494316       0.74276780       0.63048493 </v>
    <v>       0.26222120       0.99825548       0.62979668 </v>
    <v>       0.25161720       0.49457087       0.63119516 </v>
    <v>       0.74730881       0.00006835       0.63164294 </v>
    <v>       0.72555103       0.56070574       0.64043681 </v>
    <v>       0.44874502       0.30128397       0.76888902 </v>
    <v>       0.44874501       0.80128391       0.76888902 </v>
    <v>       0.94874497       0.30128397       0.76888902 </v>
    <v>       0.94874501       0.80128391       0.76888902 </v>
    <v>       0.30127600       0.05129450       0.76887296 </v>
    <v>       0.30127601       0.55129450       0.76887296 </v>
    <v>       0.80127594       0.05129450       0.76887296 </v>
    <v>       0.80127598       0.55129450       0.76887296 </v>
    <v>       0.07877100       0.17118050       0.74344197 </v>
    <v>       0.07877101       0.67118045       0.74344197 </v>
    <v>       0.57877100       0.17118050       0.74344197 </v>
    <v>       0.57877099       0.67118045       0.74344197 </v>
    <v>       0.17119950       0.42117448       0.74342103 </v>
    <v>       0.17119950       0.92117451       0.74342103 </v>
    <v>       0.67119951       0.42117448       0.74342103 </v>
    <v>       0.67119950       0.92117451       0.74342103 </v>
    <v>       0.05125600       0.19871499       0.76888902 </v>
    <v>       0.05125600       0.69871493       0.76888902 </v>
    <v>       0.55125603       0.19871499       0.76888902 </v>
    <v>       0.55125602       0.69871493       0.76888902 </v>
    <v>       0.19872349       0.44870397       0.76887205 </v>
    <v>       0.19872349       0.94870397       0.76887205 </v>
    <v>       0.69872352       0.44870397       0.76887205 </v>
    <v>       0.69872351       0.94870397       0.76887205 </v>
    <v>       0.42123152       0.32881747       0.74344197 </v>
    <v>       0.42123151       0.82881744       0.74344197 </v>
    <v>       0.92123147       0.32881747       0.74344197 </v>
    <v>       0.92123151       0.82881744       0.74344197 </v>
    <v>       0.32880050       0.07882500       0.74342103 </v>
    <v>       0.32880049       0.57882496       0.74342103 </v>
    <v>       0.82880048       0.07882500       0.74342103 </v>
    <v>       0.82880052       0.57882496       0.74342103 </v>
    <v>       0.00000350       0.25000148       0.72582199 </v>
    <v>       0.00000350       0.75000145       0.72582199 </v>
    <v>       0.50000351       0.25000148       0.72582199 </v>
    <v>       0.50000350       0.75000145       0.72582199 </v>
    <v>       0.25000050       0.00000000       0.72580398 </v>
    <v>       0.25000052       0.50000000       0.72580398 </v>
    <v>       0.75000050       0.00000000       0.72580398 </v>
    <v>       0.75000049       0.50000000       0.72580398 </v>
    <v>       0.80021686       0.50671851       0.51351671 </v>
    <v>       0.87823697       0.49943807       0.53073243 </v>
    <v>       0.75663961       0.61776232       0.53189050 </v>
    <v>       0.75195897       0.61729575       0.56002321 </v>
    <v>       0.68607878       0.43774182       0.54813637 </v>
    <v>       0.66523152       0.52946376       0.55582193 </v>
    <v>       0.79414245       0.41950945       0.56539531 </v>
    <v>       0.86183434       0.48994198       0.56807413 </v>
    <v>       0.85947091       0.37302876       0.53763933 </v>
    <v>       0.76533159       0.37420166       0.53055418 </v>
    <v>       0.78925181       0.38372739       0.49330393 </v>
    <v>       0.88209006       0.40992788       0.49698051 </v>
    <v>       0.89519480       0.61391875       0.53294033 </v>
    <v>       0.89320485       0.60540618       0.56129293 </v>
    <v>       0.85861388       0.68645398       0.54878555 </v>
    <v>       0.60173898       0.50164898       0.52297875 </v>
    <v>       0.68376954       0.47581211       0.50913583 </v>
    <v>       0.66806634       0.57040690       0.51668861 </v>
    <v>       0.70249433       0.49486199       0.58624952 </v>
    <v>       0.77045607       0.56615832       0.58975816 </v>
    <v>       0.78434849       0.47742682       0.60055756 </v>
    <v>       0.82440896       0.25797773       0.51120900 </v>
    <v>       0.85016836       0.27496225       0.48451042 </v>
    <v>       0.92598886       0.15782078       0.49928834 </v>
    <v>       0.97624173       0.38485859       0.51504253 </v>
    <v>       0.05731791       0.12437618       0.50500372 </v>
    <v>       0.10632271       0.35140543       0.52083800 </v>
    <v>       0.14935296       0.22190325       0.51528928 </v>
    <v>       0.99609826       0.23932568       0.55854635 </v>
    <v>       0.02243331       0.77725193       0.55998884 </v>
    <v>       0.51975080       0.27476526       0.55819789 </v>
    <v>       0.48732325       0.76765584       0.55503234 </v>
    <v>       0.23869760       0.50921885       0.55580025 </v>
    <v>       0.26986515       0.99216660       0.55722943 </v>
    <v>       0.78041183       0.99389153       0.56080779 </v>
    <v>       0.00722378       0.24386166       0.64914198 </v>
    <v>       0.02114303       0.76939062       0.65566270 </v>
    <v>       0.50486152       0.25185938       0.64670882 </v>
    <v>       0.49366166       0.75205090       0.64770133 </v>
    <v>       0.25361313       0.49924689       0.64862168 </v>
    <v>       0.25247955       0.99864878       0.64704800 </v>
    <v>       0.74212024       0.51510843       0.65085870 </v>
    <v>       0.74787899       0.99952988       0.64916005 </v>
    <v>       0.49998898       0.24999498       0.74327702 </v>
    <v>       0.49998903       0.74999496       0.74327702 </v>
    <v>       0.99998898       0.24999498       0.74327702 </v>
    <v>       0.99998903       0.74999496       0.74327702 </v>
    <v>       0.25000050       0.00000100       0.74325596 </v>
    <v>       0.25000052       0.50000100       0.74325596 </v>
    <v>       0.75000050       0.00000100       0.74325596 </v>
    <v>       0.75000049       0.50000100       0.74325596 </v>
    <v>       0.94099378       0.27437052       0.50618419 </v>
    <v>       0.96567983       0.20094534       0.50379144 </v>
    <v>       0.99275366       0.32766590       0.51246352 </v>
    <v>       0.03990416       0.18185150       0.50701315 </v>
    <v>       0.06714406       0.30914119       0.51560453 </v>
    <v>       0.09131216       0.23632241       0.51279867 </v>
    <v>       0.82101544       0.48116585       0.52813267 </v>
    <v>       0.78421994       0.59735907       0.54632125 </v>
    <v>       0.69349089       0.49617185       0.54363156 </v>
    <v>       0.80204895       0.47947700       0.56720866 </v>
    <v>       0.81969360       0.39716512       0.52629441 </v>
    <v>       0.83821481       0.37368952       0.50331969 </v>
    <v>       0.86283778       0.62608667       0.54734941 </v>
    <v>       0.66144938       0.51226686       0.52167069 </v>
    <v>       0.76157216       0.50711930       0.58676049 </v>
    <v>       0.86102953       0.29243259       0.50112620 </v>
    <v>       0.05849254       0.25689340       0.56800442 </v>
    <v>       0.03026298       0.71311481       0.56962101 </v>
    <v>       0.52805742       0.20470874       0.56327495 </v>
    <v>       0.55022270       0.74367143       0.56275160 </v>
    <v>       0.45635984       0.30989591       0.55637996 </v>
    <v>       0.42263182       0.73765582       0.55916873 </v>
    <v>       0.93030901       0.26011197       0.56516150 </v>
    <v>       0.96443464       0.82110892       0.56171055 </v>
    <v>       0.25917131       0.44292294       0.56204436 </v>
    <v>       0.20231628       0.01213716       0.56244868 </v>
    <v>       0.71109978       0.98687878       0.56669190 </v>
    <v>       0.32695391       0.03695277       0.55729115 </v>
    <v>       0.27733827       0.56994513       0.55890158 </v>
    <v>       0.81738807       0.05621415       0.56028089 </v>
    <v>       0.05568220       0.19790979       0.65738924 </v>
    <v>       0.05184918       0.70371872       0.65664244 </v>
    <v>       0.54570536       0.20101143       0.65583888 </v>
    <v>       0.53949187       0.71231836       0.65924380 </v>
    <v>       0.21496891       0.45067280       0.65961026 </v>
    <v>       0.19608948       0.95941149       0.65407577 </v>
    <v>       0.68875290       0.47395437       0.65880871 </v>
    <v>       0.70499058       0.95085399       0.65864138 </v>
    <v>       0.46210818       0.29936749       0.65682461 </v>
    <v>       0.44653119       0.80099754       0.65498403 </v>
    <v>       0.95988757       0.28416669       0.65993656 </v>
    <v>       0.94980827       0.78268893       0.65757812 </v>
    <v>       0.29874590       0.03738768       0.65892855 </v>
    <v>       0.29436580       0.55258239       0.65663774 </v>
    <v>       0.79134466       0.04762553       0.65864223 </v>
    <v>       0.81286073       0.50619792       0.65452569 </v>
    <v>       0.04586250       0.20411950       0.75272599 </v>
    <v>       0.04586250       0.70411946       0.75272599 </v>
    <v>       0.54586251       0.20411950       0.75272599 </v>
    <v>       0.54586250       0.70411946       0.75272599 </v>
    <v>       0.20411900       0.45410100       0.75270499 </v>
    <v>       0.20411899       0.95410095       0.75270499 </v>
    <v>       0.70411898       0.45410100       0.75270499 </v>
    <v>       0.70411896       0.95410095       0.75270499 </v>
    <v>       0.45414002       0.29588849       0.75272697 </v>
    <v>       0.45414001       0.79588852       0.75272697 </v>
    <v>       0.95414002       0.29588849       0.75272697 </v>
    <v>       0.95414006       0.79588852       0.75272697 </v>
    <v>       0.29588249       0.04590050       0.75270499 </v>
    <v>       0.29588248       0.54590053       0.75270499 </v>
    <v>       0.79588244       0.04590050       0.75270499 </v>
    <v>       0.79588248       0.54590053       0.75270499 </v>
    <v>       0.77568851       0.51335560       0.54627882 </v>
    <v>       0.51503119       0.98421743       0.55334090 </v>
    <v>       0.47523680       0.51039735       0.55315556 </v>
    <v>       0.00523570       0.01251933       0.55165611 </v>
    <v>       0.02963915       0.48459368       0.55399698 </v>
    <v>       0.25944559       0.23756994       0.55354187 </v>
    <v>       0.22928484       0.76428239       0.55063443 </v>
    <v>       0.73346038       0.23270830       0.55435703 </v>
    <v>       0.73638458       0.79436161       0.55387836 </v>
    <v>       0.99505113       0.98694251       0.65435689 </v>
    <v>       0.01023630       0.50438997       0.65496376 </v>
    <v>       0.49675746       0.00355229       0.65487122 </v>
    <v>       0.49558663       0.50626128       0.65406277 </v>
    <v>       0.26235782       0.24263337       0.65497201 </v>
    <v>       0.24565547       0.75429903       0.65359081 </v>
    <v>       0.74602624       0.27241125       0.65513915 </v>
    <v>       0.75121891       0.73393136       0.65412485 </v>
    <v>       0.13491706       0.11639449       0.60809904 </v>
    <v>       0.14647164       0.60869062       0.60607624 </v>
    <v>       0.63601056       0.11450074       0.60771274 </v>
    <v>       0.61951609       0.63136549       0.60638227 </v>
    <v>       0.36792900       0.38394936       0.60756335 </v>
    <v>       0.36465490       0.88442894       0.60458204 </v>
    <v>       0.88795213       0.36797457       0.61079465 </v>
    <v>       0.86203263       0.89112776       0.60706454 </v>
    <v>       0.12637101       0.36738574       0.61181622 </v>
    <v>       0.11523216       0.87330711       0.60565782 </v>
    <v>       0.61092144       0.36447524       0.60257755 </v>
    <v>       0.61760166       0.86466275       0.61252278 </v>
    <v>       0.39448532       0.13670305       0.60406723 </v>
    <v>       0.37970322       0.63476054       0.60683280 </v>
    <v>       0.88160319       0.13644225       0.61224892 </v>
    <v>       0.90172858       0.64602651       0.60941303 </v>
    <v>       0.00000000       0.00000000       0.75492797 </v>
    <v>       0.00000000       0.50000000       0.75492797 </v>
    <v>       0.50000000       0.00000000       0.75492797 </v>
    <v>       0.49999999       0.50000000       0.75492797 </v>
    <v>       0.25000050       0.25000000       0.75493902 </v>
    <v>       0.25000051       0.74999997       0.75493902 </v>
    <v>       0.75000047       0.25000000       0.75493902 </v>
    <v>       0.75000046       0.74999997       0.75493902 </v>
    <v>       0.13579050       0.11421000       0.70478299 </v>
    <v>       0.13579050       0.61420998       0.70478299 </v>
    <v>       0.63579045       0.11421000       0.70478299 </v>
    <v>       0.63579049       0.61420998       0.70478299 </v>
    <v>       0.36420952       0.38578999       0.70478299 </v>
    <v>       0.36420950       0.88578996       0.70478299 </v>
    <v>       0.86420954       0.38578999       0.70478299 </v>
    <v>       0.86420953       0.88578996       0.70478299 </v>
    <v>       0.11421799       0.36421899       0.70478098 </v>
    <v>       0.11421799       0.86421899       0.70478098 </v>
    <v>       0.61421800       0.36421899       0.70478098 </v>
    <v>       0.61421799       0.86421899       0.70478098 </v>
    <v>       0.38578201       0.13578149       0.70478202 </v>
    <v>       0.38578200       0.63578149       0.70478202 </v>
    <v>       0.88578199       0.13578149       0.70478202 </v>
    <v>       0.88578203       0.63578149       0.70478202 </v>
    <v>       0.13466700       0.11533200       0.80125603 </v>
    <v>       0.13466699       0.61533199       0.80125603 </v>
    <v>       0.63466699       0.11533200       0.80125603 </v>
    <v>       0.63466698       0.61533199       0.80125603 </v>
    <v>       0.36533300       0.38466799       0.80125603 </v>
    <v>       0.36533299       0.88466796       0.80125603 </v>
    <v>       0.86533295       0.38466799       0.80125603 </v>
    <v>       0.86533294       0.88466796       0.80125603 </v>
    <v>       0.11532850       0.36533700       0.80126500 </v>
    <v>       0.11532850       0.86533698       0.80126500 </v>
    <v>       0.61532850       0.36533700       0.80126500 </v>
    <v>       0.61532849       0.86533698       0.80126500 </v>
    <v>       0.38467151       0.13466300       0.80126500 </v>
    <v>       0.38467150       0.63466297       0.80126500 </v>
    <v>       0.88467149       0.13466300       0.80126500 </v>
    <v>       0.88467153       0.63466297       0.80126500 </v>
    <v>       0.99594967       0.00676725       0.60392774 </v>
    <v>       0.01071558       0.50096393       0.60352794 </v>
    <v>       0.50182648       0.99305538       0.60363166 </v>
    <v>       0.50016995       0.50071446       0.60291698 </v>
    <v>       0.25632001       0.24665827       0.60530436 </v>
    <v>       0.24253859       0.75490166       0.60296643 </v>
    <v>       0.74704970       0.25251391       0.60569933 </v>
    <v>       0.75230350       0.75701658       0.60379991 </v>
    <v>       0.00000050       0.00000050       0.70482896 </v>
    <v>       0.00000050       0.50000048       0.70482896 </v>
    <v>       0.50000048       0.00000050       0.70482896 </v>
    <v>       0.50000046       0.50000048       0.70482896 </v>
    <v>       0.24999999       0.24999947       0.70482499 </v>
    <v>       0.25000001       0.74999950       0.70482499 </v>
    <v>       0.74999999       0.24999947       0.70482499 </v>
    <v>       0.74999998       0.74999950       0.70482499 </v>
    <v>       0.00000000       0.00000000       0.80731797 </v>
    <v>       0.00000000       0.50000000       0.80731797 </v>
    <v>       0.50000000       0.00000000       0.80731797 </v>
    <v>       0.49999999       0.50000000       0.80731797 </v>
    <v>       0.24999999       0.25000000       0.80731797 </v>
    <v>       0.25000001       0.74999997       0.80731797 </v>
    <v>       0.74999999       0.25000000       0.80731797 </v>
    <v>       0.74999998       0.74999997       0.80731797 </v>
   </varray>
  </structure>
  <varray name="primitive_index" >
   <v type="int" >        1 </v>
   <v type="int" >        2 </v>
   <v type="int" >        3 </v>
   <v type="int" >        4 </v>
   <v type="int" >        5 </v>
   <v type="int" >        6 </v>
   <v type="int" >        7 </v>
   <v type="int" >        8 </v>
   <v type="int" >        9 </v>
   <v type="int" >       10 </v>
   <v type="int" >       11 </v>
   <v type="int" >       12 </v>
   <v type="int" >       13 </v>
   <v type="int" >       14 </v>
   <v type="int" >       15 </v>
   <v type="int" >       16 </v>
   <v type="int" >       17 </v>
   <v type="int" >       18 </v>
   <v type="int" >       19 </v>
   <v type="int" >       20 </v>
   <v type="int" >       21 </v>
   <v type="int" >       22 </v>
   <v type="int" >       23 </v>
   <v type="int" >       24 </v>
   <v type="int" >       25 </v>
   <v type="int" >       26 </v>
   <v type="int" >       27 </v>
   <v type="int" >       28 </v>
   <v type="int" >       29 </v>
   <v type="int" >       30 </v>
   <v type="int" >       31 </v>
   <v type="int" >       32 </v>
   <v type="int" >       33 </v>
   <v type="int" >       34 </v>
   <v type="int" >       35 </v>
   <v type="int" >       36 </v>
   <v type="int" >       37 </v>
   <v type="int" >       38 </v>
   <v type="int" >       39 </v>
   <v type="int" >       40 </v>
   <v type="int" >       41 </v>
   <v type="int" >       42 </v>
   <v type="int" >       43 </v>
   <v type="int" >       44 </v>
   <v type="int" >       45 </v>
   <v type="int" >       46 </v>
   <v type="int" >       47 </v>
   <v type="int" >       48 </v>
   <v type="int" >       49 </v>
   <v type="int" >       50 </v>
   <v type="int" >       51 </v>
   <v type="int" >       52 </v>
   <v type="int" >       53 </v>
   <v type="int" >       54 </v>
   <v type="int" >       55 </v>
   <v type="int" >       56 </v>
   <v type="int" >       57 </v>
   <v type="int" >       58 </v>
   <v type="int" >       59 </v>
   <v type="int" >       60 </v>
   <v type="int" >       61 </v>
   <v type="int" >       62 </v>
   <v type="int" >       63 </v>
   <v type="int" >       64 </v>
   <v type="int" >       65 </v>
   <v type="int" >       66 </v>
   <v type="int" >       67 </v>
   <v type="int" >       68 </v>
   <v type="int" >       69 </v>
   <v type="int" >       70 </v>
   <v type="int" >       71 </v>
   <v type="int" >       72 </v>
   <v type="int" >       73 </v>
   <v type="int" >       74 </v>
   <v type="int" >       75 </v>
   <v type="int" >       76 </v>
   <v type="int" >       77 </v>
   <v type="int" >       78 </v>
   <v type="int" >       79 </v>
   <v type="int" >       80 </v>
   <v type="int" >       81 </v>
   <v type="int" >       82 </v>
   <v type="int" >       83 </v>
   <v type="int" >       84 </v>
   <v type="int" >       85 </v>
   <v type="int" >       86 </v>
   <v type="int" >       87 </v>
   <v type="int" >       88 </v>
   <v type="int" >       89 </v>
   <v type="int" >       90 </v>
   <v type="int" >       91 </v>
   <v type="int" >       92 </v>
   <v type="int" >       93 </v>
   <v type="int" >       94 </v>
   <v type="int" >       95 </v>
   <v type="int" >       96 </v>
   <v type="int" >       97 </v>
   <v type="int" >       98 </v>
   <v type="int" >       99 </v>
   <v type="int" >      100 </v>
   <v type="int" >      101 </v>
   <v type="int" >      102 </v>
   <v type="int" >      103 </v>
   <v type="int" >      104 </v>
   <v type="int" >      105 </v>
   <v type="int" >      106 </v>
   <v type="int" >      107 </v>
   <v type="int" >      108 </v>
   <v type="int" >      109 </v>
   <v type="int" >      110 </v>
   <v type="int" >      111 </v>
   <v type="int" >      112 </v>
   <v type="int" >      113 </v>
   <v type="int" >      114 </v>
   <v type="int" >      115 </v>
   <v type="int" >      116 </v>
   <v type="int" >      117 </v>
   <v type="int" >      118 </v>
   <v type="int" >      119 </v>
   <v type="int" >      120 </v>
   <v type="int" >      121 </v>
   <v type="int" >      122 </v>
   <v type="int" >      123 </v>
   <v type="int" >      124 </v>
   <v type="int" >      125 </v>
   <v type="int" >      126 </v>
   <v type="int" >      127 </v>
   <v type="int" >      128 </v>
   <v type="int" >      129 </v>
   <v type="int" >      130 </v>
   <v type="int" >      131 </v>
   <v type="int" >      132 </v>
   <v type="int" >      133 </v>
   <v type="int" >      134 </v>
   <v type="int" >      135 </v>
   <v type="int" >      136 </v>
   <v type="int" >      137 </v>
   <v type="int" >      138 </v>
   <v type="int" >      139 </v>
   <v type="int" >      140 </v>
   <v type="int" >      141 </v>
   <v type="int" >      142 </v>
   <v type="int" >      143 </v>
   <v type="int" >      144 </v>
   <v type="int" >      145 </v>
   <v type="int" >      146 </v>
   <v type="int" >      147 </v>
   <v type="int" >      148 </v>
   <v type="int" >      149 </v>
   <v type="int" >      150 </v>
   <v type="int" >      151 </v>
   <v type="int" >      152 </v>
   <v type="int" >      153 </v>
   <v type="int" >      154 </v>
   <v type="int" >      155 </v>
   <v type="int" >      156 </v>
   <v type="int" >      157 </v>
   <v type="int" >      158 </v>
   <v type="int" >      159 </v>
   <v type="int" >      160 </v>
   <v type="int" >      161 </v>
   <v type="int" >      162 </v>
   <v type="int" >      163 </v>
   <v type="int" >      164 </v>
   <v type="int" >      165 </v>
   <v type="int" >      166 </v>
   <v type="int" >      167 </v>
   <v type="int" >      168 </v>
   <v type="int" >      169 </v>
   <v type="int" >      170 </v>
   <v type="int" >      171 </v>
   <v type="int" >      172 </v>
   <v type="int" >      173 </v>
   <v type="int" >      174 </v>
   <v type="int" >      175 </v>
   <v type="int" >      176 </v>
   <v type="int" >      177 </v>
   <v type="int" >      178 </v>
   <v type="int" >      179 </v>
   <v type="int" >      180 </v>
   <v type="int" >      181 </v>
   <v type="int" >      182 </v>
   <v type="int" >      183 </v>
   <v type="int" >      184 </v>
   <v type="int" >      185 </v>
   <v type="int" >      186 </v>
   <v type="int" >      187 </v>
   <v type="int" >      188 </v>
   <v type="int" >      189 </v>
   <v type="int" >      190 </v>
   <v type="int" >      191 </v>
   <v type="int" >      192 </v>
   <v type="int" >      193 </v>
   <v type="int" >      194 </v>
   <v type="int" >      195 </v>
   <v type="int" >      196 </v>
   <v type="int" >      197 </v>
   <v type="int" >      198 </v>
   <v type="int" >      199 </v>
   <v type="int" >      200 </v>
   <v type="int" >      201 </v>
   <v type="int" >      202 </v>
   <v type="int" >      203 </v>
   <v type="int" >      204 </v>
   <v type="int" >      205 </v>
   <v type="int" >      206 </v>
   <v type="int" >      207 </v>
   <v type="int" >      208 </v>
   <v type="int" >      209 </v>
   <v type="int" >      210 </v>
   <v type="int" >      211 </v>
   <v type="int" >      212 </v>
   <v type="int" >      213 </v>
   <v type="int" >      214 </v>
   <v type="int" >      215 </v>
   <v type="int" >      216 </v>
   <v type="int" >      217 </v>
   <v type="int" >      218 </v>
   <v type="int" >      219 </v>
   <v type="int" >      220 </v>
   <v type="int" >      221 </v>
   <v type="int" >      222 </v>
   <v type="int" >      223 </v>
   <v type="int" >      224 </v>
   <v type="int" >      225 </v>
   <v type="int" >      226 </v>
   <v type="int" >      227 </v>
   <v type="int" >      228 </v>
   <v type="int" >      229 </v>
   <v type="int" >      230 </v>
   <v type="int" >      231 </v>
   <v type="int" >      232 </v>
   <v type="int" >      233 </v>
   <v type="int" >      234 </v>
   <v type="int" >      235 </v>
   <v type="int" >      236 </v>
   <v type="int" >      237 </v>
   <v type="int" >      238 </v>
   <v type="int" >      239 </v>
   <v type="int" >      240 </v>
   <v type="int" >      241 </v>
   <v type="int" >      242 </v>
   <v type="int" >      243 </v>
   <v type="int" >      244 </v>
   <v type="int" >      245 </v>
   <v type="int" >      246 </v>
   <v type="int" >      247 </v>
   <v type="int" >      248 </v>
   <v type="int" >      249 </v>
   <v type="int" >      250 </v>
   <v type="int" >      251 </v>
   <v type="int" >      252 </v>
   <v type="int" >      253 </v>
   <v type="int" >      254 </v>
   <v type="int" >      255 </v>
   <v type="int" >      256 </v>
   <v type="int" >      257 </v>
   <v type="int" >      258 </v>
   <v type="int" >      259 </v>
   <v type="int" >      260 </v>
   <v type="int" >      261 </v>
   <v type="int" >      262 </v>
   <v type="int" >      263 </v>
   <v type="int" >      264 </v>
   <v type="int" >      265 </v>
   <v type="int" >      266 </v>
   <v type="int" >      267 </v>
   <v type="int" >      268 </v>
   <v type="int" >      269 </v>
   <v type="int" >      270 </v>
   <v type="int" >      271 </v>
   <v type="int" >      272 </v>
   <v type="int" >      273 </v>
   <v type="int" >      274 </v>
   <v type="int" >      275 </v>
   <v type="int" >      276 </v>
   <v type="int" >      277 </v>
   <v type="int" >      278 </v>
   <v type="int" >      279 </v>
   <v type="int" >      280 </v>
   <v type="int" >      281 </v>
   <v type="int" >      282 </v>
   <v type="int" >      283 </v>
   <v type="int" >      284 </v>
   <v type="int" >      285 </v>
   <v type="int" >      286 </v>
   <v type="int" >      287 </v>
   <v type="int" >      288 </v>
   <v type="int" >      289 </v>
   <v type="int" >      290 </v>
   <v type="int" >      291 </v>
   <v type="int" >      292 </v>
   <v type="int" >      293 </v>
   <v type="int" >      294 </v>
   <v type="int" >      295 </v>
   <v type="int" >      296 </v>
   <v type="int" >      297 </v>
   <v type="int" >      298 </v>
   <v type="int" >      299 </v>
   <v type="int" >      300 </v>
   <v type="int" >      301 </v>
   <v type="int" >      302 </v>
   <v type="int" >      303 </v>
   <v type="int" >      304 </v>
   <v type="int" >      305 </v>
   <v type="int" >      306 </v>
   <v type="int" >      307 </v>
   <v type="int" >      308 </v>
   <v type="int" >      309 </v>
   <v type="int" >      310 </v>
   <v type="int" >      311 </v>
   <v type="int" >      312 </v>
   <v type="int" >      313 </v>
   <v type="int" >      314 </v>
   <v type="int" >      315 </v>
   <v type="int" >      316 </v>
   <v type="int" >      317 </v>
   <v type="int" >      318 </v>
   <v type="int" >      319 </v>
   <v type="int" >      320 </v>
   <v type="int" >      321 </v>
   <v type="int" >      322 </v>
   <v type="int" >      323 </v>
   <v type="int" >      324 </v>
   <v type="int" >      325 </v>
  </varray>
 </primitive_cell>
 <kpoints>
  <generation param="Gamma">
   <v type="int" name="divisions">       3        3        1 </v>
   <v name="usershift">      0.00000000       0.00000000       0.00000000 </v>
   <v name="genvec1">      0.33333333       0.00000000       0.00000000 </v>
   <v name="genvec2">      0.00000000       0.33333333       0.00000000 </v>
   <v name="genvec3">      0.00000000       0.00000000       1.00000000 </v>
   <v name="shift">      0.00000000       0.00000000       0.00000000 </v>
  </generation>
  <varray name="kpointlist" >
   <v>       0.00000000       0.00000000       0.00000000 </v>
   <v>       0.33333333       0.00000000       0.00000000 </v>
   <v>       0.00000000       0.33333333       0.00000000 </v>
   <v>       0.33333333       0.33333333       0.00000000 </v>
   <v>      -0.33333333       0.33333333       0.00000000 </v>
  </varray>
  <varray name="weights" >
   <v>       0.11111111 </v>
   <v>       0.22222222 </v>
   <v>       0.22222222 </v>
   <v>       0.22222222 </v>
   <v>       0.22222222 </v>
  </varray>
 </kpoints>
 <parameters>
  <separator name="general" >
   <i type="string" name="SYSTEM">PSC</i>
   <i type="logical" name="LCOMPAT"> F  </i>
  </separator>
  <separator name="electronic" >
   <i type="string" name="PREC">normal</i>
   <i name="ENMAX">    500.00000000</i>
   <i name="ENAUG">    644.87300000</i>
   <i name="EDIFF">      0.00010000</i>
   <i type="int" name="IALGO">    38</i>
   <i type="int" name="IWAVPR">    10</i>
   <i type="int" name="NBANDS">   732</i>
   <i type="int" name="NBANDSLOW">    -1</i>
   <i type="int" name="NBANDSHIGH">    -1</i>
   <i name="NELECT">   1134.00000000</i>
   <i type="int" name="TURBO">     0</i>
   <i type="int" name="IRESTART">     0</i>
   <i type="int" name="NREBOOT">     0</i>
   <i type="int" name="NMIN">     0</i>
   <i name="EREF">      0.00000000</i>
   <separator name="electronic smearing" >
    <i type="int" name="ISMEAR">     0</i>
    <i name="SIGMA">      0.05000000</i>
    <i name="KSPACING">      0.50000000</i>
    <i type="logical" name="KGAMMA"> T  </i>
    <i type="logical" name="KBLOWUP"> T  </i>
   </separator>
   <separator name="electronic projectors" >
    <i type="logical" name="LREAL"> T  </i>
    <v name="ROPT">     -0.00050000     -0.00050000     -0.00050000     -0.00050000     -0.00050000</v>
    <i type="int" name="LMAXPAW">  -100</i>
    <i type="int" name="LMAXMIX">     2</i>
    <i type="logical" name="NLSPLINE"> F  </i>
   </separator>
   <separator name="electronic startup" >
    <i type="int" name="ISTART">     0</i>
    <i type="int" name="ICHARG">     1</i>
    <i type="int" name="INIWAV">     1</i>
   </separator>
   <separator name="electronic spin" >
    <i type="int" name="ISPIN">     1</i>
    <i type="logical" name="LNONCOLLINEAR"> F  </i>
    <v name="MAGMOM">      1.00000000      1.00000000      1.00000000      1.00000000      1.00000000      1.00000000      1.00000000      1.00000000      1.00000000      1.00000000      1.00000000      1.00000000      1.00000000      1.00000000      1.00000000      1.00000000      1.00000000      1.00000000      1.00000000      1.00000000
      1.00000000      1.00000000      1.00000000      1.00000000      1.00000000      1.00000000      1.00000000      1.00000000      1.00000000      1.00000000      1.00000000      1.00000000      1.00000000      1.00000000      1.00000000      1.00000000      1.00000000      1.00000000      1.00000000      1.00000000
      1.00000000      1.00000000      1.00000000      1.00000000      1.00000000      1.00000000      1.00000000      1.00000000      1.00000000      1.00000000      1.00000000      1.00000000      1.00000000      1.00000000      1.00000000      1.00000000      1.00000000      1.00000000      1.00000000      1.00000000
      1.00000000      1.00000000      1.00000000      1.00000000      1.00000000      1.00000000      1.00000000      1.00000000      1.00000000      1.00000000      1.00000000      1.00000000      1.00000000      1.00000000      1.00000000      1.00000000      1.00000000      1.00000000      1.00000000      1.00000000
      1.00000000      1.00000000      1.00000000      1.00000000      1.00000000      1.00000000      1.00000000      1.00000000      1.00000000      1.00000000      1.00000000      1.00000000      1.00000000      1.00000000      1.00000000      1.00000000      1.00000000      1.00000000      1.00000000      1.00000000
      1.00000000      1.00000000      1.00000000      1.00000000      1.00000000      1.00000000      1.00000000      1.00000000      1.00000000      1.00000000      1.00000000      1.00000000      1.00000000      1.00000000      1.00000000      1.00000000      1.00000000      1.00000000      1.00000000      1.00000000
      1.00000000      1.00000000      1.00000000      1.00000000      1.00000000      1.00000000      1.00000000      1.00000000      1.00000000      1.00000000      1.00000000      1.00000000      1.00000000      1.00000000      1.00000000      1.00000000      1.00000000      1.00000000      1.00000000      1.00000000
      1.00000000      1.00000000      1.00000000      1.00000000      1.00000000      1.00000000      1.00000000      1.00000000      1.00000000      1.00000000      1.00000000      1.00000000      1.00000000      1.00000000      1.00000000      1.00000000      1.00000000      1.00000000      1.00000000      1.00000000
      1.00000000      1.00000000      1.00000000      1.00000000      1.00000000      1.00000000      1.00000000      1.00000000      1.00000000      1.00000000      1.00000000      1.00000000      1.00000000      1.00000000      1.00000000      1.00000000      1.00000000      1.00000000      1.00000000      1.00000000
      1.00000000      1.00000000      1.00000000      1.00000000      1.00000000      1.00000000      1.00000000      1.00000000      1.00000000      1.00000000      1.00000000      1.00000000      1.00000000      1.00000000      1.00000000      1.00000000      1.00000000      1.00000000      1.00000000      1.00000000
      1.00000000      1.00000000      1.00000000      1.00000000      1.00000000      1.00000000      1.00000000      1.00000000      1.00000000      1.00000000      1.00000000      1.00000000      1.00000000      1.00000000      1.00000000      1.00000000      1.00000000      1.00000000      1.00000000      1.00000000
      1.00000000      1.00000000      1.00000000      1.00000000      1.00000000      1.00000000      1.00000000      1.00000000      1.00000000      1.00000000      1.00000000      1.00000000      1.00000000      1.00000000      1.00000000      1.00000000      1.00000000      1.00000000      1.00000000      1.00000000
      1.00000000      1.00000000      1.00000000      1.00000000      1.00000000      1.00000000      1.00000000      1.00000000      1.00000000      1.00000000      1.00000000      1.00000000      1.00000000      1.00000000      1.00000000      1.00000000      1.00000000      1.00000000      1.00000000      1.00000000
      1.00000000      1.00000000      1.00000000      1.00000000      1.00000000      1.00000000      1.00000000      1.00000000      1.00000000      1.00000000      1.00000000      1.00000000      1.00000000      1.00000000      1.00000000      1.00000000      1.00000000      1.00000000      1.00000000      1.00000000
      1.00000000      1.00000000      1.00000000      1.00000000      1.00000000      1.00000000      1.00000000      1.00000000      1.00000000      1.00000000      1.00000000      1.00000000      1.00000000      1.00000000      1.00000000      1.00000000      1.00000000      1.00000000      1.00000000      1.00000000
      1.00000000      1.00000000      1.00000000      1.00000000      1.00000000      1.00000000      1.00000000      1.00000000      1.00000000      1.00000000      1.00000000      1.00000000      1.00000000      1.00000000      1.00000000      1.00000000      1.00000000      1.00000000      1.00000000      1.00000000
      1.00000000      1.00000000      1.00000000      1.00000000      1.00000000</v>
    <i name="NUPDOWN">     -1.00000000</i>
    <i type="logical" name="LSORBIT"> F  </i>
    <v name="SAXIS">      0.00000000      0.00000000      1.00000000</v>
    <i type="logical" name="LSPIRAL"> F  </i>
    <v name="QSPIRAL">      0.00000000      0.00000000      0.00000000</v>
    <i type="logical" name="LZEROZ"> F  </i>
   </separator>
   <separator name="electronic exchange-correlation" >
    <i type="logical" name="LASPH"> F  </i>
    <i type="logical" name="LMETAGGA"> F  </i>
   </separator>
   <separator name="electronic convergence" >
    <i type="int" name="NELM">   600</i>
    <i type="int" name="NELMDL">     0</i>
    <i type="int" name="NELMIN">     2</i>
    <i name="ENINI">    500.00000000</i>
    <separator name="electronic convergence detail" >
     <i type="logical" name="LDIAG"> T  </i>
     <i type="logical" name="LSUBROT"> F  </i>
     <i name="WEIMIN">      0.00000000</i>
     <i name="EBREAK">      0.00000003</i>
     <i name="DEPER">      0.30000000</i>
     <i type="int" name="NRMM">     4</i>
     <i name="TIME">      0.40000000</i>
    </separator>
   </separator>
   <separator name="electronic mixer" >
    <i name="AMIX">      0.40000000</i>
    <i name="BMIX">      0.01000000</i>
    <i name="AMIN">      0.01000000</i>
    <i name="AMIX_MAG">      1.60000000</i>
    <i name="BMIX_MAG">      0.01000000</i>
    <separator name="electronic mixer details" >
     <i type="int" name="IMIX">     4</i>
     <i type="logical" name="MIXFIRST"> F  </i>
     <i type="int" name="MAXMIX">   -45</i>
     <i name="WC">    100.00000000</i>
     <i type="int" name="INIMIX">     1</i>
     <i type="int" name="MIXPRE">     1</i>
     <i type="int" name="MREMOVE">     5</i>
    </separator>
   </separator>
   <separator name="electronic dipolcorrection" >
    <i type="logical" name="LDIPOL"> T  </i>
    <i type="logical" name="LMONO"> F  </i>
    <i type="int" name="IDIPOL">     3</i>
    <i name="EPSILON">      1.00000000</i>
    <v name="DIPOL">   -100.00000000   -100.00000000   -100.00000000</v>
    <i name="EFIELD">      0.00000000</i>
   </separator>
  </separator>
  <separator name="grids" >
   <i type="int" name="NGX">   100</i>
   <i type="int" name="NGY">   100</i>
   <i type="int" name="NGZ">   350</i>
   <i type="int" name="NGXF">   200</i>
   <i type="int" name="NGYF">   200</i>
   <i type="int" name="NGZF">   700</i>
   <i type="logical" name="ADDGRID"> F  </i>
  </separator>
  <separator name="ionic" >
   <i type="int" name="NSW">     0</i>
   <i type="int" name="IBRION">    -1</i>
   <i type="int" name="MDALGO">     0</i>
   <i type="int" name="ISIF">     2</i>
   <i name="PSTRESS">      0.00000000</i>
   <i name="EDIFFG">      0.00100000</i>
   <i type="int" name="NFREE">     0</i>
   <i name="POTIM">      0.50000000</i>
   <i name="SMASS">     -3.00000000</i>
   <i name="SCALEE">      1.00000000</i>
  </separator>
  <separator name="ionic md" >
   <i name="TEBEG">      0.00010000</i>
   <i name="TEEND">      0.00010000</i>
   <i type="int" name="NBLOCK">     1</i>
   <i type="int" name="KBLOCK">     1</i>
   <i type="int" name="NPACO">   256</i>
   <i name="APACO">     16.00000000</i>
  </separator>
  <separator name="symmetry" >
   <i type="int" name="ISYM">     0</i>
   <i name="SYMPREC">      0.00001000</i>
  </separator>
  <separator name="dos" >
   <i type="int" name="LORBIT">     0</i>
   <v name="RWIGS">     -1.00000000     -1.00000000     -1.00000000     -1.00000000     -1.00000000</v>
   <i type="int" name="NEDOS">   301</i>
   <i name="EMIN">     10.00000000</i>
   <i name="EMAX">    -10.00000000</i>
   <i name="EFERMI">      0.00000000</i>
  </separator>
  <separator name="writing" >
   <i type="int" name="NWRITE">     2</i>
   <i type="logical" name="LWAVE"> F  </i>
   <i type="logical" name="LDOWNSAMPLE"> F  </i>
   <i type="logical" name="LCHARG"> T  </i>
   <i type="logical" name="LPARD"> F  </i>
   <i type="logical" name="LVTOT"> T  </i>
   <i type="logical" name="LVHAR"> F  </i>
   <i type="logical" name="LELF"> F  </i>
   <i type="logical" name="LOPTICS"> F  </i>
   <v name="STM">      0.00000000      0.00000000      0.00000000      0.00000000      0.00000000      0.00000000      0.00000000</v>
  </separator>
  <separator name="performance" >
   <i type="int" name="NPAR">     4</i>
   <i type="int" name="NSIM">     4</i>
   <i type="int" name="NBLK">    -1</i>
   <i type="logical" name="LPLANE"> T  </i>
   <i type="logical" name="LSCALAPACK"> T  </i>
   <i type="logical" name="LSCAAWARE"> F  </i>
   <i type="logical" name="LSCALU"> F  </i>
   <i type="logical" name="LASYNC"> F  </i>
   <i type="logical" name="LORBITALREAL"> F  </i>
  </separator>
  <separator name="miscellaneous" >
   <i type="int" name="IDIOT">     3</i>
   <i type="int" name="PHON_NSTRUCT">    -1</i>
   <i type="logical" name="LMUSIC"> F  </i>
   <v name="POMASS">      1.00000000     12.01100000     14.00100000    126.90400000    207.20000000</v>
   <v name="DARWINR">      0.00000000      0.00000000      0.00000000      0.00000000      0.00000000</v>
   <v name="DARWINV">      1.00000000      1.00000000      1.00000000      1.00000000      1.00000000</v>
   <i type="logical" name="LCORR"> T  </i>
  </separator>
  <i type="logical" name="GGA_COMPAT"> F  </i>
  <i type="logical" name="LBERRY"> F  </i>
  <i type="int" name="ICORELEVEL">     0</i>
  <i type="logical" name="LDAU"> F  </i>
  <i type="int" name="I_CONSTRAINED_M">     0</i>
  <separator name="electronic exchange-correlation" >
   <i type="string" name="GGA">--</i>
   <i type="int" name="VOSKOWN">     0</i>
   <i type="logical" name="LHFCALC"> F  </i>
   <i type="string" name="PRECFOCK"></i>
   <i type="logical" name="LSYMGRAD"> F  </i>
   <i type="logical" name="LHFONE"> F  </i>
   <i type="logical" name="LRHFCALC"> F  </i>
   <i type="logical" name="LTHOMAS"> F  </i>
   <i type="logical" name="LMODELHF"> F  </i>
   <i type="logical" name="LFOCKACE"> F  </i>
   <i name="ENCUT4O">     -1.00000000</i>
   <i type="int" name="EXXOEP">     0</i>
   <i type="int" name="FOURORBIT">     0</i>
   <i name="AEXX">      0.00000000</i>
   <i name="HFALPHA">      0.00000000</i>
   <i name="MCALPHA">      0.00000000</i>
   <i name="ALDAX">      1.00000000</i>
   <i name="AGGAX">      1.00000000</i>
   <i name="ALDAC">      1.00000000</i>
   <i name="AGGAC">      1.00000000</i>
   <i type="int" name="NKREDX">     1</i>
   <i type="int" name="NKREDY">     1</i>
   <i type="int" name="NKREDZ">     1</i>
   <i type="logical" name="SHIFTRED"> F  </i>
   <i type="logical" name="ODDONLY"> F  </i>
   <i type="logical" name="EVENONLY"> F  </i>
   <i type="int" name="LMAXFOCK">     0</i>
   <i type="int" name="NMAXFOCKAE">     0</i>
   <i type="logical" name="LFOCKAEDFT"> F  </i>
   <i name="HFSCREEN">      0.00000000</i>
   <i name="HFSCREENC">      0.00000000</i>
   <i type="int" name="NBANDSGWLOW">     0</i>
  </separator>
  <separator name="vdW DFT" >
   <i type="logical" name="LUSE_VDW"> F  </i>
   <i name="Zab_VDW">     -0.84910000</i>
   <i name="PARAM1">      0.12340000</i>
   <i name="PARAM2">      1.00000000</i>
   <i name="PARAM3">      0.00000000</i>
  </separator>
  <separator name="model GW" >
   <i type="int" name="MODEL_GW">     0</i>
   <i name="MODEL_EPS0">     37.63423484</i>
   <i name="MODEL_ALPHA">      1.00000000</i>
  </separator>
  <separator name="linear response parameters" >
   <i type="logical" name="LEPSILON"> F  </i>
   <i type="logical" name="LRPA"> F  </i>
   <i type="logical" name="LNABLA"> F  </i>
   <i type="logical" name="LVEL"> F  </i>
   <i type="int" name="KINTER">     0</i>
   <i name="CSHIFT">      0.10000000</i>
   <i name="OMEGAMAX">     -1.00000000</i>
   <i name="DEG_THRESHOLD">      0.00200000</i>
   <i name="RTIME">     -0.10000000</i>
   <i name="WPLASMAI">      0.00000000</i>
   <v name="DFIELD">      0.00000000      0.00000000      0.00000000</v>
   <v name="WPLASMA">      0.00000000      0.00000000      0.00000000      0.00000000      0.00000000      0.00000000      0.00000000      0.00000000      0.00000000</v>
  </separator>
  <separator name="orbital magnetization" >
   <i type="logical" name="NUCIND"> F  </i>
   <v name="MAGPOS">      0.00000000      0.00000000      0.00000000</v>
   <i type="logical" name="LNICSALL"> T  </i>
   <i type="logical" name="ORBITALMAG"> F  </i>
   <i type="logical" name="LMAGBLOCH"> F  </i>
   <i type="logical" name="LCHIMAG"> F  </i>
   <i type="logical" name="LGAUGE"> T  </i>
   <i type="int" name="MAGATOM">     0</i>
   <v name="MAGDIPOL">      0.00000000      0.00000000      0.00000000</v>
   <v name="AVECCONST">      0.00000000      0.00000000      0.00000000</v>
  </separator>
  <separator name="response functions" >
   <i type="logical" name="LFINITE_TEMPERATURE"> F  </i>
   <i type="logical" name="LADDER"> F  </i>
   <i type="logical" name="LRPAFORCE"> F  </i>
   <i type="logical" name="LFXC"> F  </i>
   <i type="logical" name="LHARTREE"> T  </i>
   <i type="int" name="IBSE">     0</i>
   <v type="int" name="KPOINT">    -1     0     0     0</v>
   <i type="logical" name="LTCTC"> F  </i>
   <i type="logical" name="LTCTE"> F  </i>
   <i type="logical" name="LTETE"> F  </i>
   <i type="logical" name="LTRIPLET"> F  </i>
   <i type="logical" name="LFXCEPS"> F  </i>
   <i type="logical" name="LFXHEG"> F  </i>
   <i type="int" name="NATURALO">     2</i>
   <i type="logical" name="LHOLEGF"> F  </i>
   <i type="logical" name="L2ORDER"> F  </i>
   <i type="logical" name="LDMP1"> F  </i>
   <i type="logical" name="LMP2LT"> F  </i>
   <i type="logical" name="LSMP2LT"> F  </i>
   <i type="logical" name="LGWLF"> F  </i>
   <i name="ENCUTGW">     -2.00000000</i>
   <i name="ENCUTGWSOFT">     -2.00000000</i>
   <i name="ENCUTLF">     -1.00000000</i>
   <i type="logical" name="LESF_SPLINES"> F  </i>
   <i type="int" name="LMAXMP2">    -1</i>
   <i name="SCISSOR">      0.00000000</i>
   <i type="int" name="NOMEGA">     0</i>
   <i type="int" name="NOMEGAR">     0</i>
   <i type="int" name="NBANDSGW">    -1</i>
   <i type="int" name="NBANDSO">    -1</i>
   <i type="int" name="NBANDSV">    -1</i>
   <i type="int" name="NELM">   600</i>
   <i type="int" name="NELMHF">     1</i>
   <i type="int" name="DIM">     3</i>
   <i type="int" name="IESPILON">     4</i>
   <i type="int" name="ANTIRES">     0</i>
   <i name="OMEGAMAX">    -30.00000000</i>
   <i name="OMEGAMIN">    -30.00000000</i>
   <i name="OMEGATL">   -200.00000000</i>
   <i type="int" name="OMEGAGRID">     0</i>
   <i name="CSHIFT">     -0.10000000</i>
   <i type="logical" name="LSELFENERGY"> F  </i>
   <i type="logical" name="LSPECTRAL"> F  </i>
   <i type="logical" name="LSPECTRALGW"> F  </i>
   <i type="logical" name="LSINGLES"> F  </i>
   <i type="logical" name="LFERMIGW"> F  </i>
   <i type="logical" name="ODDONLYGW"> F  </i>
   <i type="logical" name="EVENONLYGW"> F  </i>
   <i type="int" name="NKREDLFX">     1</i>
   <i type="int" name="NKREDLFY">     1</i>
   <i type="int" name="NKREDLFZ">     1</i>
   <i type="int" name="MAXMEM">  2800</i>
   <i type="int" name="TELESCOPE">     0</i>
   <i type="int" name="NTAUPAR">    -1</i>
   <i type="int" name="NOMEGAPAR">    -1</i>
   <i name="DAMP_NEWTON">      0.80000001</i>
   <i name="LAMBDA">      1.00000000</i>
  </separator>
  <separator name="External order field" >
   <i name="OFIELD_KAPPA">      0.00000000</i>
   <v name="OFIELD_K">      0.00000000      0.00000000      0.00000000</v>
   <i name="OFIELD_Q6_NEAR">      0.00000000</i>
   <i name="OFIELD_Q6_FAR">      0.00000000</i>
   <i name="OFIELD_A">      0.00000000</i>
  </separator>
 </parameters>
 <atominfo>
  <atoms>     325 </atoms>
  <types>       5 </types>
  <array name="atoms" >
   <dimension dim="1">ion</dimension>
   <field type="string">element</field>
   <field type="int">atomtype</field>
   <set>
    <rc><c>H </c><c>   1</c></rc>
    <rc><c>H </c><c>   1</c></rc>
    <rc><c>H </c><c>   1</c></rc>
    <rc><c>H </c><c>   1</c></rc>
    <rc><c>H </c><c>   1</c></rc>
    <rc><c>H </c><c>   1</c></rc>
    <rc><c>H </c><c>   1</c></rc>
    <rc><c>H </c><c>   1</c></rc>
    <rc><c>H </c><c>   1</c></rc>
    <rc><c>H </c><c>   1</c></rc>
    <rc><c>H </c><c>   1</c></rc>
    <rc><c>H </c><c>   1</c></rc>
    <rc><c>H </c><c>   1</c></rc>
    <rc><c>H </c><c>   1</c></rc>
    <rc><c>H </c><c>   1</c></rc>
    <rc><c>H </c><c>   1</c></rc>
    <rc><c>H </c><c>   1</c></rc>
    <rc><c>H </c><c>   1</c></rc>
    <rc><c>H </c><c>   1</c></rc>
    <rc><c>H </c><c>   1</c></rc>
    <rc><c>H </c><c>   1</c></rc>
    <rc><c>H </c><c>   1</c></rc>
    <rc><c>H </c><c>   1</c></rc>
    <rc><c>H </c><c>   1</c></rc>
    <rc><c>H </c><c>   1</c></rc>
    <rc><c>H </c><c>   1</c></rc>
    <rc><c>H </c><c>   1</c></rc>
    <rc><c>H </c><c>   1</c></rc>
    <rc><c>H </c><c>   1</c></rc>
    <rc><c>H </c><c>   1</c></rc>
    <rc><c>H </c><c>   1</c></rc>
    <rc><c>H </c><c>   1</c></rc>
    <rc><c>H </c><c>   1</c></rc>
    <rc><c>H </c><c>   1</c></rc>
    <rc><c>H </c><c>   1</c></rc>
    <rc><c>H </c><c>   1</c></rc>
    <rc><c>H </c><c>   1</c></rc>
    <rc><c>H </c><c>   1</c></rc>
    <rc><c>H </c><c>   1</c></rc>
    <rc><c>H </c><c>   1</c></rc>
    <rc><c>H </c><c>   1</c></rc>
    <rc><c>H </c><c>   1</c></rc>
    <rc><c>H </c><c>   1</c></rc>
    <rc><c>H </c><c>   1</c></rc>
    <rc><c>H </c><c>   1</c></rc>
    <rc><c>H </c><c>   1</c></rc>
    <rc><c>H </c><c>   1</c></rc>
    <rc><c>H </c><c>   1</c></rc>
    <rc><c>H </c><c>   1</c></rc>
    <rc><c>H </c><c>   1</c></rc>
    <rc><c>H </c><c>   1</c></rc>
    <rc><c>H </c><c>   1</c></rc>
    <rc><c>H </c><c>   1</c></rc>
    <rc><c>H </c><c>   1</c></rc>
    <rc><c>H </c><c>   1</c></rc>
    <rc><c>H </c><c>   1</c></rc>
    <rc><c>H </c><c>   1</c></rc>
    <rc><c>H </c><c>   1</c></rc>
    <rc><c>H </c><c>   1</c></rc>
    <rc><c>H </c><c>   1</c></rc>
    <rc><c>H </c><c>   1</c></rc>
    <rc><c>H </c><c>   1</c></rc>
    <rc><c>H </c><c>   1</c></rc>
    <rc><c>H </c><c>   1</c></rc>
    <rc><c>H </c><c>   1</c></rc>
    <rc><c>H </c><c>   1</c></rc>
    <rc><c>H </c><c>   1</c></rc>
    <rc><c>H </c><c>   1</c></rc>
    <rc><c>H </c><c>   1</c></rc>
    <rc><c>H </c><c>   1</c></rc>
    <rc><c>H </c><c>   1</c></rc>
    <rc><c>H </c><c>   1</c></rc>
    <rc><c>H </c><c>   1</c></rc>
    <rc><c>H </c><c>   1</c></rc>
    <rc><c>H </c><c>   1</c></rc>
    <rc><c>H </c><c>   1</c></rc>
    <rc><c>H </c><c>   1</c></rc>
    <rc><c>H </c><c>   1</c></rc>
    <rc><c>H </c><c>   1</c></rc>
    <rc><c>H </c><c>   1</c></rc>
    <rc><c>H </c><c>   1</c></rc>
    <rc><c>H </c><c>   1</c></rc>
    <rc><c>H </c><c>   1</c></rc>
    <rc><c>H </c><c>   1</c></rc>
    <rc><c>H </c><c>   1</c></rc>
    <rc><c>H </c><c>   1</c></rc>
    <rc><c>H </c><c>   1</c></rc>
    <rc><c>H </c><c>   1</c></rc>
    <rc><c>H </c><c>   1</c></rc>
    <rc><c>H </c><c>   1</c></rc>
    <rc><c>H </c><c>   1</c></rc>
    <rc><c>H </c><c>   1</c></rc>
    <rc><c>H </c><c>   1</c></rc>
    <rc><c>H </c><c>   1</c></rc>
    <rc><c>H </c><c>   1</c></rc>
    <rc><c>H </c><c>   1</c></rc>
    <rc><c>H </c><c>   1</c></rc>
    <rc><c>H </c><c>   1</c></rc>
    <rc><c>H </c><c>   1</c></rc>
    <rc><c>H </c><c>   1</c></rc>
    <rc><c>H </c><c>   1</c></rc>
    <rc><c>H </c><c>   1</c></rc>
    <rc><c>H </c><c>   1</c></rc>
    <rc><c>H </c><c>   1</c></rc>
    <rc><c>H </c><c>   1</c></rc>
    <rc><c>H </c><c>   1</c></rc>
    <rc><c>H </c><c>   1</c></rc>
    <rc><c>H </c><c>   1</c></rc>
    <rc><c>H </c><c>   1</c></rc>
    <rc><c>H </c><c>   1</c></rc>
    <rc><c>H </c><c>   1</c></rc>
    <rc><c>H </c><c>   1</c></rc>
    <rc><c>H </c><c>   1</c></rc>
    <rc><c>H </c><c>   1</c></rc>
    <rc><c>H </c><c>   1</c></rc>
    <rc><c>H </c><c>   1</c></rc>
    <rc><c>H </c><c>   1</c></rc>
    <rc><c>H </c><c>   1</c></rc>
    <rc><c>H </c><c>   1</c></rc>
    <rc><c>H </c><c>   1</c></rc>
    <rc><c>H </c><c>   1</c></rc>
    <rc><c>H </c><c>   1</c></rc>
    <rc><c>H </c><c>   1</c></rc>
    <rc><c>H </c><c>   1</c></rc>
    <rc><c>H </c><c>   1</c></rc>
    <rc><c>H </c><c>   1</c></rc>
    <rc><c>H </c><c>   1</c></rc>
    <rc><c>H </c><c>   1</c></rc>
    <rc><c>H </c><c>   1</c></rc>
    <rc><c>H </c><c>   1</c></rc>
    <rc><c>H </c><c>   1</c></rc>
    <rc><c>H </c><c>   1</c></rc>
    <rc><c>H </c><c>   1</c></rc>
    <rc><c>H </c><c>   1</c></rc>
    <rc><c>H </c><c>   1</c></rc>
    <rc><c>H </c><c>   1</c></rc>
    <rc><c>H </c><c>   1</c></rc>
    <rc><c>H </c><c>   1</c></rc>
    <rc><c>H </c><c>   1</c></rc>
    <rc><c>H </c><c>   1</c></rc>
    <rc><c>H </c><c>   1</c></rc>
    <rc><c>H </c><c>   1</c></rc>
    <rc><c>H </c><c>   1</c></rc>
    <rc><c>C </c><c>   2</c></rc>
    <rc><c>C </c><c>   2</c></rc>
    <rc><c>C </c><c>   2</c></rc>
    <rc><c>C </c><c>   2</c></rc>
    <rc><c>C </c><c>   2</c></rc>
    <rc><c>C </c><c>   2</c></rc>
    <rc><c>C </c><c>   2</c></rc>
    <rc><c>C </c><c>   2</c></rc>
    <rc><c>C </c><c>   2</c></rc>
    <rc><c>C </c><c>   2</c></rc>
    <rc><c>C </c><c>   2</c></rc>
    <rc><c>C </c><c>   2</c></rc>
    <rc><c>C </c><c>   2</c></rc>
    <rc><c>C </c><c>   2</c></rc>
    <rc><c>C </c><c>   2</c></rc>
    <rc><c>C </c><c>   2</c></rc>
    <rc><c>C </c><c>   2</c></rc>
    <rc><c>C </c><c>   2</c></rc>
    <rc><c>C </c><c>   2</c></rc>
    <rc><c>C </c><c>   2</c></rc>
    <rc><c>C </c><c>   2</c></rc>
    <rc><c>C </c><c>   2</c></rc>
    <rc><c>C </c><c>   2</c></rc>
    <rc><c>C </c><c>   2</c></rc>
    <rc><c>C </c><c>   2</c></rc>
    <rc><c>C </c><c>   2</c></rc>
    <rc><c>C </c><c>   2</c></rc>
    <rc><c>C </c><c>   2</c></rc>
    <rc><c>C </c><c>   2</c></rc>
    <rc><c>C </c><c>   2</c></rc>
    <rc><c>C </c><c>   2</c></rc>
    <rc><c>C </c><c>   2</c></rc>
    <rc><c>C </c><c>   2</c></rc>
    <rc><c>C </c><c>   2</c></rc>
    <rc><c>C </c><c>   2</c></rc>
    <rc><c>C </c><c>   2</c></rc>
    <rc><c>C </c><c>   2</c></rc>
    <rc><c>C </c><c>   2</c></rc>
    <rc><c>C </c><c>   2</c></rc>
    <rc><c>N </c><c>   3</c></rc>
    <rc><c>N </c><c>   3</c></rc>
    <rc><c>N </c><c>   3</c></rc>
    <rc><c>N </c><c>   3</c></rc>
    <rc><c>N </c><c>   3</c></rc>
    <rc><c>N </c><c>   3</c></rc>
    <rc><c>N </c><c>   3</c></rc>
    <rc><c>N </c><c>   3</c></rc>
    <rc><c>N </c><c>   3</c></rc>
    <rc><c>N </c><c>   3</c></rc>
    <rc><c>N </c><c>   3</c></rc>
    <rc><c>N </c><c>   3</c></rc>
    <rc><c>N </c><c>   3</c></rc>
    <rc><c>N </c><c>   3</c></rc>
    <rc><c>N </c><c>   3</c></rc>
    <rc><c>N </c><c>   3</c></rc>
    <rc><c>N </c><c>   3</c></rc>
    <rc><c>N </c><c>   3</c></rc>
    <rc><c>N </c><c>   3</c></rc>
    <rc><c>N </c><c>   3</c></rc>
    <rc><c>N </c><c>   3</c></rc>
    <rc><c>N </c><c>   3</c></rc>
    <rc><c>N </c><c>   3</c></rc>
    <rc><c>N </c><c>   3</c></rc>
    <rc><c>N </c><c>   3</c></rc>
    <rc><c>N </c><c>   3</c></rc>
    <rc><c>N </c><c>   3</c></rc>
    <rc><c>N </c><c>   3</c></rc>
    <rc><c>N </c><c>   3</c></rc>
    <rc><c>N </c><c>   3</c></rc>
    <rc><c>N </c><c>   3</c></rc>
    <rc><c>N </c><c>   3</c></rc>
    <rc><c>N </c><c>   3</c></rc>
    <rc><c>N </c><c>   3</c></rc>
    <rc><c>N </c><c>   3</c></rc>
    <rc><c>N </c><c>   3</c></rc>
    <rc><c>N </c><c>   3</c></rc>
    <rc><c>N </c><c>   3</c></rc>
    <rc><c>N </c><c>   3</c></rc>
    <rc><c>N </c><c>   3</c></rc>
    <rc><c>N </c><c>   3</c></rc>
    <rc><c>N </c><c>   3</c></rc>
    <rc><c>N </c><c>   3</c></rc>
    <rc><c>N </c><c>   3</c></rc>
    <rc><c>N </c><c>   3</c></rc>
    <rc><c>N </c><c>   3</c></rc>
    <rc><c>N </c><c>   3</c></rc>
    <rc><c>I </c><c>   4</c></rc>
    <rc><c>I </c><c>   4</c></rc>
    <rc><c>I </c><c>   4</c></rc>
    <rc><c>I </c><c>   4</c></rc>
    <rc><c>I </c><c>   4</c></rc>
    <rc><c>I </c><c>   4</c></rc>
    <rc><c>I </c><c>   4</c></rc>
    <rc><c>I </c><c>   4</c></rc>
    <rc><c>I </c><c>   4</c></rc>
    <rc><c>I </c><c>   4</c></rc>
    <rc><c>I </c><c>   4</c></rc>
    <rc><c>I </c><c>   4</c></rc>
    <rc><c>I </c><c>   4</c></rc>
    <rc><c>I </c><c>   4</c></rc>
    <rc><c>I </c><c>   4</c></rc>
    <rc><c>I </c><c>   4</c></rc>
    <rc><c>I </c><c>   4</c></rc>
    <rc><c>I </c><c>   4</c></rc>
    <rc><c>I </c><c>   4</c></rc>
    <rc><c>I </c><c>   4</c></rc>
    <rc><c>I </c><c>   4</c></rc>
    <rc><c>I </c><c>   4</c></rc>
    <rc><c>I </c><c>   4</c></rc>
    <rc><c>I </c><c>   4</c></rc>
    <rc><c>I </c><c>   4</c></rc>
    <rc><c>I </c><c>   4</c></rc>
    <rc><c>I </c><c>   4</c></rc>
    <rc><c>I </c><c>   4</c></rc>
    <rc><c>I </c><c>   4</c></rc>
    <rc><c>I </c><c>   4</c></rc>
    <rc><c>I </c><c>   4</c></rc>
    <rc><c>I </c><c>   4</c></rc>
    <rc><c>I </c><c>   4</c></rc>
    <rc><c>I </c><c>   4</c></rc>
    <rc><c>I </c><c>   4</c></rc>
    <rc><c>I </c><c>   4</c></rc>
    <rc><c>I </c><c>   4</c></rc>
    <rc><c>I </c><c>   4</c></rc>
    <rc><c>I </c><c>   4</c></rc>
    <rc><c>I </c><c>   4</c></rc>
    <rc><c>I </c><c>   4</c></rc>
    <rc><c>I </c><c>   4</c></rc>
    <rc><c>I </c><c>   4</c></rc>
    <rc><c>I </c><c>   4</c></rc>
    <rc><c>I </c><c>   4</c></rc>
    <rc><c>I </c><c>   4</c></rc>
    <rc><c>I </c><c>   4</c></rc>
    <rc><c>I </c><c>   4</c></rc>
    <rc><c>I </c><c>   4</c></rc>
    <rc><c>I </c><c>   4</c></rc>
    <rc><c>I </c><c>   4</c></rc>
    <rc><c>I </c><c>   4</c></rc>
    <rc><c>I </c><c>   4</c></rc>
    <rc><c>I </c><c>   4</c></rc>
    <rc><c>I </c><c>   4</c></rc>
    <rc><c>I </c><c>   4</c></rc>
    <rc><c>I </c><c>   4</c></rc>
    <rc><c>I </c><c>   4</c></rc>
    <rc><c>I </c><c>   4</c></rc>
    <rc><c>I </c><c>   4</c></rc>
    <rc><c>I </c><c>   4</c></rc>
    <rc><c>I </c><c>   4</c></rc>
    <rc><c>I </c><c>   4</c></rc>
    <rc><c>I </c><c>   4</c></rc>
    <rc><c>I </c><c>   4</c></rc>
    <rc><c>I </c><c>   4</c></rc>
    <rc><c>I </c><c>   4</c></rc>
    <rc><c>I </c><c>   4</c></rc>
    <rc><c>I </c><c>   4</c></rc>
    <rc><c>I </c><c>   4</c></rc>
    <rc><c>I </c><c>   4</c></rc>
    <rc><c>I </c><c>   4</c></rc>
    <rc><c>Pb</c><c>   5</c></rc>
    <rc><c>Pb</c><c>   5</c></rc>
    <rc><c>Pb</c><c>   5</c></rc>
    <rc><c>Pb</c><c>   5</c></rc>
    <rc><c>Pb</c><c>   5</c></rc>
    <rc><c>Pb</c><c>   5</c></rc>
    <rc><c>Pb</c><c>   5</c></rc>
    <rc><c>Pb</c><c>   5</c></rc>
    <rc><c>Pb</c><c>   5</c></rc>
    <rc><c>Pb</c><c>   5</c></rc>
    <rc><c>Pb</c><c>   5</c></rc>
    <rc><c>Pb</c><c>   5</c></rc>
    <rc><c>Pb</c><c>   5</c></rc>
    <rc><c>Pb</c><c>   5</c></rc>
    <rc><c>Pb</c><c>   5</c></rc>
    <rc><c>Pb</c><c>   5</c></rc>
    <rc><c>Pb</c><c>   5</c></rc>
    <rc><c>Pb</c><c>   5</c></rc>
    <rc><c>Pb</c><c>   5</c></rc>
    <rc><c>Pb</c><c>   5</c></rc>
    <rc><c>Pb</c><c>   5</c></rc>
    <rc><c>Pb</c><c>   5</c></rc>
    <rc><c>Pb</c><c>   5</c></rc>
    <rc><c>Pb</c><c>   5</c></rc>
   </set>
  </array>
  <array name="atomtypes" >
   <dimension dim="1">type</dimension>
   <field type="int">atomspertype</field>
   <field type="string">element</field>
   <field>mass</field>
   <field>valence</field>
   <field type="string">pseudopotential</field>
   <set>
    <rc><c> 143</c><c>H </c><c>      1.00000000</c><c>      1.00000000</c><c>  PAW_PBE H 15Jun2001                   </c></rc>
    <rc><c>  39</c><c>C </c><c>     12.01100000</c><c>      4.00000000</c><c>  PAW_PBE C 08Apr2002                   </c></rc>
    <rc><c>  47</c><c>N </c><c>     14.00100000</c><c>      5.00000000</c><c>  PAW_PBE N 08Apr2002                   </c></rc>
    <rc><c>  72</c><c>I </c><c>    126.90400000</c><c>      7.00000000</c><c>  PAW_PBE I 08Apr2002                   </c></rc>
    <rc><c>  24</c><c>Pb</c><c>    207.20000000</c><c>      4.00000000</c><c>  PAW_PBE Pb 08Apr2002                  </c></rc>
   </set>
  </array>
 </atominfo>
 <structure name="initialpos" >
  <crystal>
   <varray name="basis" >
    <v>      18.06080055       0.00000000       0.00000000 </v>
    <v>      -0.00491865      18.06279945       0.00000000 </v>
    <v>       0.00000000       0.00000000      62.48749924 </v>
   </varray>
   <i name="volume">  20385.21054034 </i>
   <varray name="rec_basis" >
    <v>       0.05536853       0.00001508      -0.00000000 </v>
    <v>       0.00000000       0.05536240       0.00000000 </v>
    <v>       0.00000000      -0.00000000       0.01600320 </v>
   </varray>
  </crystal>
  <varray name="positions" >
   <v>       0.40669368       0.28511404       0.55914766 </v>
   <v>       0.41723040       0.69687181       0.57049399 </v>
   <v>       0.92359483       0.29270439       0.57864912 </v>
   <v>       0.92395919       0.81276926       0.57288460 </v>
   <v>       0.32229302       0.09074427       0.56227610 </v>
   <v>       0.32634765       0.56889129       0.56723485 </v>
   <v>       0.79314513       0.10650867       0.56361413 </v>
   <v>       0.10791182       0.24106116       0.56162893 </v>
   <v>       0.07916049       0.68540795       0.56852430 </v>
   <v>       0.58043569       0.18495534       0.56494143 </v>
   <v>       0.59896182       0.77071404       0.55963958 </v>
   <v>       0.37995193       0.01763066       0.55448071 </v>
   <v>       0.25653753       0.62036905       0.55485719 </v>
   <v>       0.87230290       0.05519158       0.55607033 </v>
   <v>       0.06154735       0.29067849       0.58123985 </v>
   <v>       0.99245558       0.69350326       0.58060490 </v>
   <v>       0.48594515       0.17325417       0.56926279 </v>
   <v>       0.55352025       0.70071443       0.57347469 </v>
   <v>       0.30459225       0.43397626       0.57159492 </v>
   <v>       0.19018904       0.06358886       0.56825434 </v>
   <v>       0.68099437       0.02897635       0.57346175 </v>
   <v>       0.45745363       0.36598549       0.55348308 </v>
   <v>       0.37423929       0.75983534       0.55346183 </v>
   <v>       0.88321160       0.24451625       0.55727589 </v>
   <v>       0.96829774       0.87379406       0.55562554 </v>
   <v>       0.22725152       0.39767378       0.55920004 </v>
   <v>       0.15955528       0.97562934       0.56179480 </v>
   <v>       0.68808269       0.93522357       0.56659410 </v>
   <v>       0.57007265       0.30604326       0.55474816 </v>
   <v>       0.48851394       0.81656821       0.54475935 </v>
   <v>       0.99886501       0.20424035       0.54438281 </v>
   <v>       0.06848466       0.79548261       0.54980961 </v>
   <v>       0.18538561       0.51380406       0.54763883 </v>
   <v>       0.27887415       0.93449522       0.55266010 </v>
   <v>       0.80860686       0.94344199       0.55573933 </v>
   <v>       0.45543554       0.30087246       0.67306828 </v>
   <v>       0.44026798       0.81477763       0.67079420 </v>
   <v>       0.95535897       0.28403485       0.67617199 </v>
   <v>       0.91172640       0.74205777       0.66079843 </v>
   <v>       0.29484158       0.04105073       0.67521708 </v>
   <v>       0.30113738       0.56206671       0.67263692 </v>
   <v>       0.79776823       0.05198560       0.67483590 </v>
   <v>       0.83324619       0.46551808       0.66419748 </v>
   <v>       0.09031212       0.16999795       0.64714940 </v>
   <v>       0.10837559       0.69992964       0.65546283 </v>
   <v>       0.57608457       0.16631470       0.64630407 </v>
   <v>       0.57390284       0.67646560       0.65165903 </v>
   <v>       0.18508111       0.41203953       0.65153870 </v>
   <v>       0.16407898       0.93236690       0.64320354 </v>
   <v>       0.63420976       0.48660786       0.65563663 </v>
   <v>       0.67259645       0.91732767       0.64937817 </v>
   <v>       0.06260303       0.18812513       0.67343114 </v>
   <v>       0.02309425       0.65500735       0.65826472 </v>
   <v>       0.54923985       0.19257868       0.67198108 </v>
   <v>       0.54453815       0.71525745       0.67553685 </v>
   <v>       0.21159964       0.44978141       0.67595685 </v>
   <v>       0.18266203       0.95362567       0.66987214 </v>
   <v>       0.69779309       0.43017074       0.66896284 </v>
   <v>       0.69981512       0.94536135       0.67490513 </v>
   <v>       0.43314576       0.33752840       0.64817933 </v>
   <v>       0.41497370       0.82929278       0.64418268 </v>
   <v>       0.92454728       0.31747235       0.65151654 </v>
   <v>       0.93196703       0.83623890       0.65706245 </v>
   <v>       0.34207852       0.06325632       0.65203337 </v>
   <v>       0.32186596       0.58667904       0.64633716 </v>
   <v>       0.82245257       0.08184806       0.64920816 </v>
   <v>       0.85084301       0.54051326       0.64766976 </v>
   <v>       0.00602576       0.24968667       0.63176253 </v>
   <v>       0.05686599       0.81707972       0.65294249 </v>
   <v>       0.50666087       0.25618926       0.62929512 </v>
   <v>       0.49494316       0.74276780       0.63048493 </v>
   <v>       0.26222120       0.99825548       0.62979668 </v>
   <v>       0.25161720       0.49457087       0.63119516 </v>
   <v>       0.74730881       0.00006835       0.63164294 </v>
   <v>       0.72555103       0.56070574       0.64043681 </v>
   <v>       0.44874502       0.30128397       0.76888902 </v>
   <v>       0.44874501       0.80128391       0.76888902 </v>
   <v>       0.94874497       0.30128397       0.76888902 </v>
   <v>       0.94874501       0.80128391       0.76888902 </v>
   <v>       0.30127600       0.05129450       0.76887296 </v>
   <v>       0.30127601       0.55129450       0.76887296 </v>
   <v>       0.80127594       0.05129450       0.76887296 </v>
   <v>       0.80127598       0.55129450       0.76887296 </v>
   <v>       0.07877100       0.17118050       0.74344197 </v>
   <v>       0.07877101       0.67118045       0.74344197 </v>
   <v>       0.57877100       0.17118050       0.74344197 </v>
   <v>       0.57877099       0.67118045       0.74344197 </v>
   <v>       0.17119950       0.42117448       0.74342103 </v>
   <v>       0.17119950       0.92117451       0.74342103 </v>
   <v>       0.67119951       0.42117448       0.74342103 </v>
   <v>       0.67119950       0.92117451       0.74342103 </v>
   <v>       0.05125600       0.19871499       0.76888902 </v>
   <v>       0.05125600       0.69871493       0.76888902 </v>
   <v>       0.55125603       0.19871499       0.76888902 </v>
   <v>       0.55125602       0.69871493       0.76888902 </v>
   <v>       0.19872349       0.44870397       0.76887205 </v>
   <v>       0.19872349       0.94870397       0.76887205 </v>
   <v>       0.69872352       0.44870397       0.76887205 </v>
   <v>       0.69872351       0.94870397       0.76887205 </v>
   <v>       0.42123152       0.32881747       0.74344197 </v>
   <v>       0.42123151       0.82881744       0.74344197 </v>
   <v>       0.92123147       0.32881747       0.74344197 </v>
   <v>       0.92123151       0.82881744       0.74344197 </v>
   <v>       0.32880050       0.07882500       0.74342103 </v>
   <v>       0.32880049       0.57882496       0.74342103 </v>
   <v>       0.82880048       0.07882500       0.74342103 </v>
   <v>       0.82880052       0.57882496       0.74342103 </v>
   <v>       0.00000350       0.25000148       0.72582199 </v>
   <v>       0.00000350       0.75000145       0.72582199 </v>
   <v>       0.50000351       0.25000148       0.72582199 </v>
   <v>       0.50000350       0.75000145       0.72582199 </v>
   <v>       0.25000050       0.00000000       0.72580398 </v>
   <v>       0.25000052       0.50000000       0.72580398 </v>
   <v>       0.75000050       0.00000000       0.72580398 </v>
   <v>       0.75000049       0.50000000       0.72580398 </v>
   <v>       0.80021686       0.50671851       0.51351671 </v>
   <v>       0.87823697       0.49943807       0.53073243 </v>
   <v>       0.75663961       0.61776232       0.53189050 </v>
   <v>       0.75195897       0.61729575       0.56002321 </v>
   <v>       0.68607878       0.43774182       0.54813637 </v>
   <v>       0.66523152       0.52946376       0.55582193 </v>
   <v>       0.79414245       0.41950945       0.56539531 </v>
   <v>       0.86183434       0.48994198       0.56807413 </v>
   <v>       0.85947091       0.37302876       0.53763933 </v>
   <v>       0.76533159       0.37420166       0.53055418 </v>
   <v>       0.78925181       0.38372739       0.49330393 </v>
   <v>       0.88209006       0.40992788       0.49698051 </v>
   <v>       0.89519480       0.61391875       0.53294033 </v>
   <v>       0.89320485       0.60540618       0.56129293 </v>
   <v>       0.85861388       0.68645398       0.54878555 </v>
   <v>       0.60173898       0.50164898       0.52297875 </v>
   <v>       0.68376954       0.47581211       0.50913583 </v>
   <v>       0.66806634       0.57040690       0.51668861 </v>
   <v>       0.70249433       0.49486199       0.58624952 </v>
   <v>       0.77045607       0.56615832       0.58975816 </v>
   <v>       0.78434849       0.47742682       0.60055756 </v>
   <v>       0.82440896       0.25797773       0.51120900 </v>
   <v>       0.85016836       0.27496225       0.48451042 </v>
   <v>       0.92598886       0.15782078       0.49928834 </v>
   <v>       0.97624173       0.38485859       0.51504253 </v>
   <v>       0.05731791       0.12437618       0.50500372 </v>
   <v>       0.10632271       0.35140543       0.52083800 </v>
   <v>       0.14935296       0.22190325       0.51528928 </v>
   <v>       0.99609826       0.23932568       0.55854635 </v>
   <v>       0.02243331       0.77725193       0.55998884 </v>
   <v>       0.51975080       0.27476526       0.55819789 </v>
   <v>       0.48732325       0.76765584       0.55503234 </v>
   <v>       0.23869760       0.50921885       0.55580025 </v>
   <v>       0.26986515       0.99216660       0.55722943 </v>
   <v>       0.78041183       0.99389153       0.56080779 </v>
   <v>       0.00722378       0.24386166       0.64914198 </v>
   <v>       0.02114303       0.76939062       0.65566270 </v>
   <v>       0.50486152       0.25185938       0.64670882 </v>
   <v>       0.49366166       0.75205090       0.64770133 </v>
   <v>       0.25361313       0.49924689       0.64862168 </v>
   <v>       0.25247955       0.99864878       0.64704800 </v>
   <v>       0.74212024       0.51510843       0.65085870 </v>
   <v>       0.74787899       0.99952988       0.64916005 </v>
   <v>       0.49998898       0.24999498       0.74327702 </v>
   <v>       0.49998903       0.74999496       0.74327702 </v>
   <v>       0.99998898       0.24999498       0.74327702 </v>
   <v>       0.99998903       0.74999496       0.74327702 </v>
   <v>       0.25000050       0.00000100       0.74325596 </v>
   <v>       0.25000052       0.50000100       0.74325596 </v>
   <v>       0.75000050       0.00000100       0.74325596 </v>
   <v>       0.75000049       0.50000100       0.74325596 </v>
   <v>       0.94099378       0.27437052       0.50618419 </v>
   <v>       0.96567983       0.20094534       0.50379144 </v>
   <v>       0.99275366       0.32766590       0.51246352 </v>
   <v>       0.03990416       0.18185150       0.50701315 </v>
   <v>       0.06714406       0.30914119       0.51560453 </v>
   <v>       0.09131216       0.23632241       0.51279867 </v>
   <v>       0.82101544       0.48116585       0.52813267 </v>
   <v>       0.78421994       0.59735907       0.54632125 </v>
   <v>       0.69349089       0.49617185       0.54363156 </v>
   <v>       0.80204895       0.47947700       0.56720866 </v>
   <v>       0.81969360       0.39716512       0.52629441 </v>
   <v>       0.83821481       0.37368952       0.50331969 </v>
   <v>       0.86283778       0.62608667       0.54734941 </v>
   <v>       0.66144938       0.51226686       0.52167069 </v>
   <v>       0.76157216       0.50711930       0.58676049 </v>
   <v>       0.86102953       0.29243259       0.50112620 </v>
   <v>       0.05849254       0.25689340       0.56800442 </v>
   <v>       0.03026298       0.71311481       0.56962101 </v>
   <v>       0.52805742       0.20470874       0.56327495 </v>
   <v>       0.55022270       0.74367143       0.56275160 </v>
   <v>       0.45635984       0.30989591       0.55637996 </v>
   <v>       0.42263182       0.73765582       0.55916873 </v>
   <v>       0.93030901       0.26011197       0.56516150 </v>
   <v>       0.96443464       0.82110892       0.56171055 </v>
   <v>       0.25917131       0.44292294       0.56204436 </v>
   <v>       0.20231628       0.01213716       0.56244868 </v>
   <v>       0.71109978       0.98687878       0.56669190 </v>
   <v>       0.32695391       0.03695277       0.55729115 </v>
   <v>       0.27733827       0.56994513       0.55890158 </v>
   <v>       0.81738807       0.05621415       0.56028089 </v>
   <v>       0.05568220       0.19790979       0.65738924 </v>
   <v>       0.05184918       0.70371872       0.65664244 </v>
   <v>       0.54570536       0.20101143       0.65583888 </v>
   <v>       0.53949187       0.71231836       0.65924380 </v>
   <v>       0.21496891       0.45067280       0.65961026 </v>
   <v>       0.19608948       0.95941149       0.65407577 </v>
   <v>       0.68875290       0.47395437       0.65880871 </v>
   <v>       0.70499058       0.95085399       0.65864138 </v>
   <v>       0.46210818       0.29936749       0.65682461 </v>
   <v>       0.44653119       0.80099754       0.65498403 </v>
   <v>       0.95988757       0.28416669       0.65993656 </v>
   <v>       0.94980827       0.78268893       0.65757812 </v>
   <v>       0.29874590       0.03738768       0.65892855 </v>
   <v>       0.29436580       0.55258239       0.65663774 </v>
   <v>       0.79134466       0.04762553       0.65864223 </v>
   <v>       0.81286073       0.50619792       0.65452569 </v>
   <v>       0.04586250       0.20411950       0.75272599 </v>
   <v>       0.04586250       0.70411946       0.75272599 </v>
   <v>       0.54586251       0.20411950       0.75272599 </v>
   <v>       0.54586250       0.70411946       0.75272599 </v>
   <v>       0.20411900       0.45410100       0.75270499 </v>
   <v>       0.20411899       0.95410095       0.75270499 </v>
   <v>       0.70411898       0.45410100       0.75270499 </v>
   <v>       0.70411896       0.95410095       0.75270499 </v>
   <v>       0.45414002       0.29588849       0.75272697 </v>
   <v>       0.45414001       0.79588852       0.75272697 </v>
   <v>       0.95414002       0.29588849       0.75272697 </v>
[...]
   <v>       0.58043569       0.18495534       0.56494143 </v>
   <v>       0.59896182       0.77071404       0.55963958 </v>
   <v>       0.37995193       0.01763066       0.55448071 </v>
   <v>       0.25653753       0.62036905       0.55485719 </v>
   <v>       0.87230290       0.05519158       0.55607033 </v>
   <v>       0.06154735       0.29067849       0.58123985 </v>
   <v>       0.99245558       0.69350326       0.58060490 </v>
   <v>       0.48594515       0.17325417       0.56926279 </v>
   <v>       0.55352025       0.70071443       0.57347469 </v>
   <v>       0.30459225       0.43397626       0.57159492 </v>
   <v>       0.19018904       0.06358886       0.56825434 </v>
   <v>       0.68099437       0.02897635       0.57346175 </v>
   <v>       0.45745363       0.36598549       0.55348308 </v>
   <v>       0.37423929       0.75983534       0.55346183 </v>
   <v>       0.88321160       0.24451625       0.55727589 </v>
   <v>       0.96829774       0.87379406       0.55562554 </v>
   <v>       0.22725152       0.39767378       0.55920004 </v>
   <v>       0.15955528       0.97562934       0.56179480 </v>
   <v>       0.68808269       0.93522357       0.56659410 </v>
   <v>       0.57007265       0.30604326       0.55474816 </v>
   <v>       0.48851394       0.81656821       0.54475935 </v>
   <v>       0.99886501       0.20424035       0.54438281 </v>
   <v>       0.06848466       0.79548261       0.54980961 </v>
   <v>       0.18538561       0.51380406       0.54763883 </v>
   <v>       0.27887415       0.93449522       0.55266010 </v>
   <v>       0.80860686       0.94344199       0.55573933 </v>
   <v>       0.45543554       0.30087246       0.67306828 </v>
   <v>       0.44026798       0.81477763       0.67079420 </v>
   <v>       0.95535897       0.28403485       0.67617199 </v>
   <v>       0.91172640       0.74205777       0.66079843 </v>
   <v>       0.29484158       0.04105073       0.67521708 </v>
   <v>       0.30113738       0.56206671       0.67263692 </v>
   <v>       0.79776823       0.05198560       0.67483590 </v>
   <v>       0.83324619       0.46551808       0.66419748 </v>
   <v>       0.09031212       0.16999795       0.64714940 </v>
   <v>       0.10837559       0.69992964       0.65546283 </v>
   <v>       0.57608457       0.16631470       0.64630407 </v>
   <v>       0.57390284       0.67646560       0.65165903 </v>
   <v>       0.18508111       0.41203953       0.65153870 </v>
   <v>       0.16407898       0.93236690       0.64320354 </v>
   <v>       0.63420976       0.48660786       0.65563663 </v>
   <v>       0.67259645       0.91732767       0.64937817 </v>
   <v>       0.06260303       0.18812513       0.67343114 </v>
   <v>       0.02309425       0.65500735       0.65826472 </v>
   <v>       0.54923985       0.19257868       0.67198108 </v>
   <v>       0.54453815       0.71525745       0.67553685 </v>
   <v>       0.21159964       0.44978141       0.67595685 </v>
   <v>       0.18266203       0.95362567       0.66987214 </v>
   <v>       0.69779309       0.43017074       0.66896284 </v>
   <v>       0.69981512       0.94536135       0.67490513 </v>
   <v>       0.43314576       0.33752840       0.64817933 </v>
   <v>       0.41497370       0.82929278       0.64418268 </v>
   <v>       0.92454728       0.31747235       0.65151654 </v>
   <v>       0.93196703       0.83623890       0.65706245 </v>
   <v>       0.34207852       0.06325632       0.65203337 </v>
   <v>       0.32186596       0.58667904       0.64633716 </v>
   <v>       0.82245257       0.08184806       0.64920816 </v>
   <v>       0.85084301       0.54051326       0.64766976 </v>
   <v>       0.00602576       0.24968667       0.63176253 </v>
   <v>       0.05686599       0.81707972       0.65294249 </v>
   <v>       0.50666087       0.25618926       0.62929512 </v>
   <v>       0.49494316       0.74276780       0.63048493 </v>
   <v>       0.26222120       0.99825548       0.62979668 </v>
   <v>       0.25161720       0.49457087       0.63119516 </v>
   <v>       0.74730881       0.00006835       0.63164294 </v>
   <v>       0.72555103       0.56070574       0.64043681 </v>
   <v>       0.44874502       0.30128397       0.76888902 </v>
   <v>       0.44874501       0.80128391       0.76888902 </v>
   <v>       0.94874497       0.30128397       0.76888902 </v>
   <v>       0.94874501       0.80128391       0.76888902 </v>
   <v>       0.30127600       0.05129450       0.76887296 </v>
   <v>       0.30127601       0.55129450       0.76887296 </v>
   <v>       0.80127594       0.05129450       0.76887296 </v>
   <v>       0.80127598       0.55129450       0.76887296 </v>
   <v>       0.07877100       0.17118050       0.74344197 </v>
   <v>       0.07877101       0.67118045       0.74344197 </v>
   <v>       0.57877100       0.17118050       0.74344197 </v>
   <v>       0.57877099       0.67118045       0.74344197 </v>
   <v>       0.17119950       0.42117448       0.74342103 </v>
   <v>       0.17119950       0.92117451       0.74342103 </v>
   <v>       0.67119951       0.42117448       0.74342103 </v>
   <v>       0.67119950       0.92117451       0.74342103 </v>
   <v>       0.05125600       0.19871499       0.76888902 </v>
   <v>       0.05125600       0.69871493       0.76888902 </v>
   <v>       0.55125603       0.19871499       0.76888902 </v>
   <v>       0.55125602       0.69871493       0.76888902 </v>
   <v>       0.19872349       0.44870397       0.76887205 </v>
   <v>       0.19872349       0.94870397       0.76887205 </v>
   <v>       0.69872352       0.44870397       0.76887205 </v>
   <v>       0.69872351       0.94870397       0.76887205 </v>
   <v>       0.42123152       0.32881747       0.74344197 </v>
   <v>       0.42123151       0.82881744       0.74344197 </v>
   <v>       0.92123147       0.32881747       0.74344197 </v>
   <v>       0.92123151       0.82881744       0.74344197 </v>
   <v>       0.32880050       0.07882500       0.74342103 </v>
   <v>       0.32880049       0.57882496       0.74342103 </v>
   <v>       0.82880048       0.07882500       0.74342103 </v>
   <v>       0.82880052       0.57882496       0.74342103 </v>
   <v>       0.00000350       0.25000148       0.72582199 </v>
   <v>       0.00000350       0.75000145       0.72582199 </v>
   <v>       0.50000351       0.25000148       0.72582199 </v>
   <v>       0.50000350       0.75000145       0.72582199 </v>
   <v>       0.25000050       0.00000000       0.72580398 </v>
   <v>       0.25000052       0.50000000       0.72580398 </v>
   <v>       0.75000050       0.00000000       0.72580398 </v>
   <v>       0.75000049       0.50000000       0.72580398 </v>
   <v>       0.80021686       0.50671851       0.51351671 </v>
   <v>       0.87823697       0.49943807       0.53073243 </v>
   <v>       0.75663961       0.61776232       0.53189050 </v>
   <v>       0.75195897       0.61729575       0.56002321 </v>
   <v>       0.68607878       0.43774182       0.54813637 </v>
   <v>       0.66523152       0.52946376       0.55582193 </v>
   <v>       0.79414245       0.41950945       0.56539531 </v>
   <v>       0.86183434       0.48994198       0.56807413 </v>
   <v>       0.85947091       0.37302876       0.53763933 </v>
   <v>       0.76533159       0.37420166       0.53055418 </v>
   <v>       0.78925181       0.38372739       0.49330393 </v>
   <v>       0.88209006       0.40992788       0.49698051 </v>
   <v>       0.89519480       0.61391875       0.53294033 </v>
   <v>       0.89320485       0.60540618       0.56129293 </v>
   <v>       0.85861388       0.68645398       0.54878555 </v>
   <v>       0.60173898       0.50164898       0.52297875 </v>
   <v>       0.68376954       0.47581211       0.50913583 </v>
   <v>       0.66806634       0.57040690       0.51668861 </v>
   <v>       0.70249433       0.49486199       0.58624952 </v>
   <v>       0.77045607       0.56615832       0.58975816 </v>
   <v>       0.78434849       0.47742682       0.60055756 </v>
   <v>       0.82440896       0.25797773       0.51120900 </v>
   <v>       0.85016836       0.27496225       0.48451042 </v>
   <v>       0.92598886       0.15782078       0.49928834 </v>
   <v>       0.97624173       0.38485859       0.51504253 </v>
   <v>       0.05731791       0.12437618       0.50500372 </v>
   <v>       0.10632271       0.35140543       0.52083800 </v>
   <v>       0.14935296       0.22190325       0.51528928 </v>
   <v>       0.99609826       0.23932568       0.55854635 </v>
   <v>       0.02243331       0.77725193       0.55998884 </v>
   <v>       0.51975080       0.27476526       0.55819789 </v>
   <v>       0.48732325       0.76765584       0.55503234 </v>
   <v>       0.23869760       0.50921885       0.55580025 </v>
   <v>       0.26986515       0.99216660       0.55722943 </v>
   <v>       0.78041183       0.99389153       0.56080779 </v>
   <v>       0.00722378       0.24386166       0.64914198 </v>
   <v>       0.02114303       0.76939062       0.65566270 </v>
   <v>       0.50486152       0.25185938       0.64670882 </v>
   <v>       0.49366166       0.75205090       0.64770133 </v>
   <v>       0.25361313       0.49924689       0.64862168 </v>
   <v>       0.25247955       0.99864878       0.64704800 </v>
   <v>       0.74212024       0.51510843       0.65085870 </v>
   <v>       0.74787899       0.99952988       0.64916005 </v>
   <v>       0.49998898       0.24999498       0.74327702 </v>
   <v>       0.49998903       0.74999496       0.74327702 </v>
   <v>       0.99998898       0.24999498       0.74327702 </v>
   <v>       0.99998903       0.74999496       0.74327702 </v>
   <v>       0.25000050       0.00000100       0.74325596 </v>
   <v>       0.25000052       0.50000100       0.74325596 </v>
   <v>       0.75000050       0.00000100       0.74325596 </v>
   <v>       0.75000049       0.50000100       0.74325596 </v>
   <v>       0.94099378       0.27437052       0.50618419 </v>
   <v>       0.96567983       0.20094534       0.50379144 </v>
   <v>       0.99275366       0.32766590       0.51246352 </v>
   <v>       0.03990416       0.18185150       0.50701315 </v>
   <v>       0.06714406       0.30914119       0.51560453 </v>
   <v>       0.09131216       0.23632241       0.51279867 </v>
   <v>       0.82101544       0.48116585       0.52813267 </v>
   <v>       0.78421994       0.59735907       0.54632125 </v>
   <v>       0.69349089       0.49617185       0.54363156 </v>
   <v>       0.80204895       0.47947700       0.56720866 </v>
   <v>       0.81969360       0.39716512       0.52629441 </v>
   <v>       0.83821481       0.37368952       0.50331969 </v>
   <v>       0.86283778       0.62608667       0.54734941 </v>
   <v>       0.66144938       0.51226686       0.52167069 </v>
   <v>       0.76157216       0.50711930       0.58676049 </v>
   <v>       0.86102953       0.29243259       0.50112620 </v>
   <v>       0.05849254       0.25689340       0.56800442 </v>
   <v>       0.03026298       0.71311481       0.56962101 </v>
   <v>       0.52805742       0.20470874       0.56327495 </v>
   <v>       0.55022270       0.74367143       0.56275160 </v>
   <v>       0.45635984       0.30989591       0.55637996 </v>
   <v>       0.42263182       0.73765582       0.55916873 </v>
   <v>       0.93030901       0.26011197       0.56516150 </v>
   <v>       0.96443464       0.82110892       0.56171055 </v>
   <v>       0.25917131       0.44292294       0.56204436 </v>
   <v>       0.20231628       0.01213716       0.56244868 </v>
   <v>       0.71109978       0.98687878       0.56669190 </v>
   <v>       0.32695391       0.03695277       0.55729115 </v>
   <v>       0.27733827       0.56994513       0.55890158 </v>
   <v>       0.81738807       0.05621415       0.56028089 </v>
   <v>       0.05568220       0.19790979       0.65738924 </v>
   <v>       0.05184918       0.70371872       0.65664244 </v>
   <v>       0.54570536       0.20101143       0.65583888 </v>
   <v>       0.53949187       0.71231836       0.65924380 </v>
   <v>       0.21496891       0.45067280       0.65961026 </v>
   <v>       0.19608948       0.95941149       0.65407577 </v>
   <v>       0.68875290       0.47395437       0.65880871 </v>
   <v>       0.70499058       0.95085399       0.65864138 </v>
   <v>       0.46210818       0.29936749       0.65682461 </v>
   <v>       0.44653119       0.80099754       0.65498403 </v>
   <v>       0.95988757       0.28416669       0.65993656 </v>
   <v>       0.94980827       0.78268893       0.65757812 </v>
   <v>       0.29874590       0.03738768       0.65892855 </v>
   <v>       0.29436580       0.55258239       0.65663774 </v>
   <v>       0.79134466       0.04762553       0.65864223 </v>
   <v>       0.81286073       0.50619792       0.65452569 </v>
   <v>       0.04586250       0.20411950       0.75272599 </v>
   <v>       0.04586250       0.70411946       0.75272599 </v>
   <v>       0.54586251       0.20411950       0.75272599 </v>
   <v>       0.54586250       0.70411946       0.75272599 </v>
   <v>       0.20411900       0.45410100       0.75270499 </v>
   <v>       0.20411899       0.95410095       0.75270499 </v>
   <v>       0.70411898       0.45410100       0.75270499 </v>
   <v>       0.70411896       0.95410095       0.75270499 </v>
   <v>       0.45414002       0.29588849       0.75272697 </v>
   <v>       0.45414001       0.79588852       0.75272697 </v>
   <v>       0.95414002       0.29588849       0.75272697 </v>
   <v>       0.95414006       0.79588852       0.75272697 </v>
   <v>       0.29588249       0.04590050       0.75270499 </v>
   <v>       0.29588248       0.54590053       0.75270499 </v>
   <v>       0.79588244       0.04590050       0.75270499 </v>
   <v>       0.79588248       0.54590053       0.75270499 </v>
   <v>       0.77568851       0.51335560       0.54627882 </v>
   <v>       0.51503119       0.98421743       0.55334090 </v>
   <v>       0.47523680       0.51039735       0.55315556 </v>
   <v>       0.00523570       0.01251933       0.55165611 </v>
   <v>       0.02963915       0.48459368       0.55399698 </v>
   <v>       0.25944559       0.23756994       0.55354187 </v>
   <v>       0.22928484       0.76428239       0.55063443 </v>
   <v>       0.73346038       0.23270830       0.55435703 </v>
   <v>       0.73638458       0.79436161       0.55387836 </v>
   <v>       0.99505113       0.98694251       0.65435689 </v>
   <v>       0.01023630       0.50438997       0.65496376 </v>
   <v>       0.49675746       0.00355229       0.65487122 </v>
   <v>       0.49558663       0.50626128       0.65406277 </v>
   <v>       0.26235782       0.24263337       0.65497201 </v>
   <v>       0.24565547       0.75429903       0.65359081 </v>
   <v>       0.74602624       0.27241125       0.65513915 </v>
   <v>       0.75121891       0.73393136       0.65412485 </v>
   <v>       0.13491706       0.11639449       0.60809904 </v>
   <v>       0.14647164       0.60869062       0.60607624 </v>
   <v>       0.63601056       0.11450074       0.60771274 </v>
   <v>       0.61951609       0.63136549       0.60638227 </v>
   <v>       0.36792900       0.38394936       0.60756335 </v>
   <v>       0.36465490       0.88442894       0.60458204 </v>
   <v>       0.88795213       0.36797457       0.61079465 </v>
   <v>       0.86203263       0.89112776       0.60706454 </v>
   <v>       0.12637101       0.36738574       0.61181622 </v>
   <v>       0.11523216       0.87330711       0.60565782 </v>
   <v>       0.61092144       0.36447524       0.60257755 </v>
   <v>       0.61760166       0.86466275       0.61252278 </v>
   <v>       0.39448532       0.13670305       0.60406723 </v>
   <v>       0.37970322       0.63476054       0.60683280 </v>
   <v>       0.88160319       0.13644225       0.61224892 </v>
   <v>       0.90172858       0.64602651       0.60941303 </v>
   <v>       0.00000000       0.00000000       0.75492797 </v>
   <v>       0.00000000       0.50000000       0.75492797 </v>
   <v>       0.50000000       0.00000000       0.75492797 </v>
   <v>       0.49999999       0.50000000       0.75492797 </v>
   <v>       0.25000050       0.25000000       0.75493902 </v>
   <v>       0.25000051       0.74999997       0.75493902 </v>
   <v>       0.75000047       0.25000000       0.75493902 </v>
   <v>       0.75000046       0.74999997       0.75493902 </v>
   <v>       0.13579050       0.11421000       0.70478299 </v>
   <v>       0.13579050       0.61420998       0.70478299 </v>
   <v>       0.63579045       0.11421000       0.70478299 </v>
   <v>       0.63579049       0.61420998       0.70478299 </v>
   <v>       0.36420952       0.38578999       0.70478299 </v>
   <v>       0.36420950       0.88578996       0.70478299 </v>
   <v>       0.86420954       0.38578999       0.70478299 </v>
   <v>       0.86420953       0.88578996       0.70478299 </v>
   <v>       0.11421799       0.36421899       0.70478098 </v>
   <v>       0.11421799       0.86421899       0.70478098 </v>
   <v>       0.61421800       0.36421899       0.70478098 </v>
   <v>       0.61421799       0.86421899       0.70478098 </v>
   <v>       0.38578201       0.13578149       0.70478202 </v>
   <v>       0.38578200       0.63578149       0.70478202 </v>
   <v>       0.88578199       0.13578149       0.70478202 </v>
   <v>       0.88578203       0.63578149       0.70478202 </v>
   <v>       0.13466700       0.11533200       0.80125603 </v>
   <v>       0.13466699       0.61533199       0.80125603 </v>
   <v>       0.63466699       0.11533200       0.80125603 </v>
   <v>       0.63466698       0.61533199       0.80125603 </v>
   <v>       0.36533300       0.38466799       0.80125603 </v>
   <v>       0.36533299       0.88466796       0.80125603 </v>
   <v>       0.86533295       0.38466799       0.80125603 </v>
   <v>       0.86533294       0.88466796       0.80125603 </v>
   <v>       0.11532850       0.36533700       0.80126500 </v>
   <v>       0.11532850       0.86533698       0.80126500 </v>
   <v>       0.61532850       0.36533700       0.80126500 </v>
   <v>       0.61532849       0.86533698       0.80126500 </v>
   <v>       0.38467151       0.13466300       0.80126500 </v>
   <v>       0.38467150       0.63466297       0.80126500 </v>
   <v>       0.88467149       0.13466300       0.80126500 </v>
   <v>       0.88467153       0.63466297       0.80126500 </v>
   <v>       0.99594967       0.00676725       0.60392774 </v>
   <v>       0.01071558       0.50096393       0.60352794 </v>
   <v>       0.50182648       0.99305538       0.60363166 </v>
   <v>       0.50016995       0.50071446       0.60291698 </v>
   <v>       0.25632001       0.24665827       0.60530436 </v>
   <v>       0.24253859       0.75490166       0.60296643 </v>
   <v>       0.74704970       0.25251391       0.60569933 </v>
   <v>       0.75230350       0.75701658       0.60379991 </v>
   <v>       0.00000050       0.00000050       0.70482896 </v>
   <v>       0.00000050       0.50000048       0.70482896 </v>
   <v>       0.50000048       0.00000050       0.70482896 </v>
   <v>       0.50000046       0.50000048       0.70482896 </v>
   <v>       0.24999999       0.24999947       0.70482499 </v>
   <v>       0.25000001       0.74999950       0.70482499 </v>
   <v>       0.74999999       0.24999947       0.70482499 </v>
   <v>       0.74999998       0.74999950       0.70482499 </v>
   <v>       0.00000000       0.00000000       0.80731797 </v>
   <v>       0.00000000       0.50000000       0.80731797 </v>
   <v>       0.50000000       0.00000000       0.80731797 </v>
   <v>       0.49999999       0.50000000       0.80731797 </v>
   <v>       0.24999999       0.25000000       0.80731797 </v>
   <v>       0.25000001       0.74999997       0.80731797 </v>
   <v>       0.74999999       0.25000000       0.80731797 </v>
   <v>       0.74999998       0.74999997       0.80731797 </v>
  </varray>
 </structure>
</modeling>
