 vasp.6.2.1 16May21 (build Nov 15 2021 14:57:28) complex                         
 executed on             LinuxPGI date 2023.07.30  11:48:33
 running on    4 total cores
 distrk:  each k-point on    4 cores,    1 groups
 distr:  one band on NCORE=   1 cores,    4 groups


--------------------------------------------------------------------------------------------------------


 INCAR:
   SYSTEM = PSC
   ISTART = 1
   ICHARG = 1
   PREC = Normal
   ENCUT = 500
   GGA_COMPAT = F
   NELM = 600
   ISYM = 0
   LREAL = Auto
   ISMEAR = 0
   SIGMA = 0.05
   AMIN = 0.01
   BMIX = 0.01
   LVTOT = T
   LWAVE = F
   LDIPOL = T
   IDIPOL = 3
   LVDW = T
   IVDW = 12

 POTCAR:    PAW_PBE H 15Jun2001                   
 POTCAR:    PAW_PBE C 08Apr2002                   
 POTCAR:    PAW_PBE N 08Apr2002                   
 POTCAR:    PAW_PBE I 08Apr2002                   
 POTCAR:    PAW_PBE Pb 08Apr2002                  
 WARNING: For LVTOT=.TRUE., VASP.5.x writes the TOTAL local potential to the
     file LOCPOT. If you want only the Hartree contributions, use LVHAR=.TRUE.
     instead. 

 POTCAR:    PAW_PBE H 15Jun2001                   
   SHA256 =  030f79b5d3ab3cf0e668861823c8fb652ff669f3e15e46930bd03bfd63a607b6 H/POTCAR              
   COPYR  = (c) Copyright 15Jun2001 Georg Kresse                                                    
   COPYR  = This file is part of the software VASP. Any use, copying, and all other rights are regul
   COPYR  = If you do not have a valid VASP license, you may not use, copy or distribute this file. 
   VRHFIN =H: ultrasoft test                                                                        
   LEXCH  = PE                                                                                      
   EATOM  =    12.4884 eV,    0.9179 Ry                                                             
                                                                                                    
   TITEL  = PAW_PBE H 15Jun2001                                                                     
   LULTRA =        F    use ultrasoft PP ?                                                          
   IUNSCR =        0    unscreen: 0-lin 1-nonlin 2-no                                               
   RPACOR =    0.000    partial core radius                                                         
   POMASS =    1.000; ZVAL   =    1.000    mass and valenz                                          
   RCORE  =    1.100    outmost cutoff radius                                                       
   RWIGS  =    0.700; RWIGS  =    0.370    wigner-seitz radius (au A)                               
   ENMAX  =  250.000; ENMIN  =  200.000 eV                                                          
   RCLOC  =    0.701    cutoff for local pot                                                        
   LCOR   =        T    correct aug charges                                                         
   LPAW   =        T    paw PP                                                                      
   EAUG   =  400.000                                                                                
   RMAX   =    1.123    core radius for proj-oper                                                   
   RAUG   =    1.200    factor for augmentation sphere                                              
   RDEP   =    1.112    radius for radial grids                                                     
   RDEPT  =    0.926    core radius for aug-charge                                                  
                                                                                                    
   Atomic configuration                                                                             
    2 entries                                                                                       
     n  l   j            E        occ.                                                              
     1  0  0.50        -6.4927   1.0000                                                             
     2  1  0.50        -3.4015   0.0000                                                             
   Description                                                                                      
     l       E           TYP  RCUT    TYP  RCUT                                                     
     0     -6.4927494     23  1.100                                                                 
     0      6.8029130     23  1.100                                                                 
     1     -4.0817478     23  1.100                                                                 
  local pseudopotential read in
  atomic valenz-charges read in
  non local Contribution for L=            0  read in
    real space projection operators read in
  non local Contribution for L=            0  read in
    real space projection operators read in
  non local Contribution for L=            1  read in
    real space projection operators read in
    PAW grid and wavefunctions read in
 
   number of l-projection  operators is LMAX  =            3
   number of lm-projection operators is LMMAX =            5
 
 POTCAR:    PAW_PBE C 08Apr2002                   
   SHA256 =  253f7b50bb8d59471dbedb8285d89021f4a42ed1a2c5d38a03a736e69125dd95 C/POTCAR              
   COPYR  = (c) Copyright 08Apr2002 Georg Kresse                                                    
   COPYR  = This file is part of the software VASP. Any use, copying, and all other rights are regul
   COPYR  = If you do not have a valid VASP license, you may not use, copy or distribute this file. 
   VRHFIN =C: s2p2                                                                                  
   LEXCH  = PE                                                                                      
   EATOM  =   147.1560 eV,   10.8157 Ry                                                             
                                                                                                    
   TITEL  = PAW_PBE C 08Apr2002                                                                     
   LULTRA =        F    use ultrasoft PP ?                                                          
   IUNSCR =        1    unscreen: 0-lin 1-nonlin 2-no                                               
   RPACOR =    1.200    partial core radius                                                         
   POMASS =   12.011; ZVAL   =    4.000    mass and valenz                                          
   RCORE  =    1.500    outmost cutoff radius                                                       
   RWIGS  =    1.630; RWIGS  =    0.863    wigner-seitz radius (au A)                               
   ENMAX  =  400.000; ENMIN  =  300.000 eV                                                          
   ICORE  =        2    local potential                                                             
   LCOR   =        T    correct aug charges                                                         
   LPAW   =        T    paw PP                                                                      
   EAUG   =  644.873                                                                                
   DEXC   =    0.000                                                                                
   RMAX   =    1.529    core radius for proj-oper                                                   
   RAUG   =    1.300    factor for augmentation sphere                                              
   RDEP   =    1.501    radius for radial grids                                                     
   RDEPT  =    1.300    core radius for aug-charge                                                  
                                                                                                    
   Atomic configuration                                                                             
    4 entries                                                                                       
     n  l   j            E        occ.                                                              
     1  0  0.50      -273.3789   2.0000                                                             
     2  0  0.50       -13.7508   2.0000                                                             
     2  1  0.50        -5.2854   2.0000                                                             
     3  2  1.50        -5.4423   0.0000                                                             
   Description                                                                                      
     l       E           TYP  RCUT    TYP  RCUT                                                     
     0    -13.7508458     23  1.200                                                                 
     0     -8.2022199     23  1.200                                                                 
     1     -5.2854383     23  1.500                                                                 
     1     34.0145650     23  1.500                                                                 
     2     -5.4423304      7  1.500                                                                 
  local pseudopotential read in
  partial core-charges read in
  partial kinetic energy density read in
  atomic valenz-charges read in
  non local Contribution for L=            0  read in
    real space projection operators read in
  non local Contribution for L=            0  read in
    real space projection operators read in
  non local Contribution for L=            1  read in
    real space projection operators read in
  non local Contribution for L=            1  read in
    real space projection operators read in
    PAW grid and wavefunctions read in
 
   number of l-projection  operators is LMAX  =            4
   number of lm-projection operators is LMMAX =            8
 
 POTCAR:    PAW_PBE N 08Apr2002                   
   SHA256 =  e053789ff3a61a86a1b75d8a110fcc91f86041011e7b0817c7c99e4e8a6349d7 N/POTCAR              
   COPYR  = (c) Copyright 08Apr2002 Georg Kresse                                                    
   COPYR  = This file is part of the software VASP. Any use, copying, and all other rights are regul
   COPYR  = If you do not have a valid VASP license, you may not use, copy or distribute this file. 
   VRHFIN =N: s2p3                                                                                  
   LEXCH  = PE                                                                                      
   EATOM  =   264.5486 eV,   19.4438 Ry                                                             
                                                                                                    
   TITEL  = PAW_PBE N 08Apr2002                                                                     
   LULTRA =        F    use ultrasoft PP ?                                                          
   IUNSCR =        1    unscreen: 0-lin 1-nonlin 2-no                                               
   RPACOR =    1.200    partial core radius                                                         
   POMASS =   14.001; ZVAL   =    5.000    mass and valenz                                          
   RCORE  =    1.500    outmost cutoff radius                                                       
   RWIGS  =    1.400; RWIGS  =    0.741    wigner-seitz radius (au A)                               
   ENMAX  =  400.000; ENMIN  =  300.000 eV                                                          
   ICORE  =        2    local potential                                                             
   LCOR   =        T    correct aug charges                                                         
   LPAW   =        T    paw PP                                                                      
   EAUG   =  627.112                                                                                
   DEXC   =    0.000                                                                                
   RMAX   =    1.529    core radius for proj-oper                                                   
   RAUG   =    1.300    factor for augmentation sphere                                              
   RDEP   =    1.514    radius for radial grids                                                     
   RDEPT  =    1.338    core radius for aug-charge                                                  
                                                                                                    
   Atomic configuration                                                                             
    4 entries                                                                                       
     n  l   j            E        occ.                                                              
     1  0  0.50      -384.7179   2.0000                                                             
     2  0  0.50       -18.5828   2.0000                                                             
     2  1  0.50        -7.0898   3.0000                                                             
     3  2  1.50        -6.8029   0.0000                                                             
   Description                                                                                      
     l       E           TYP  RCUT    TYP  RCUT                                                     
     0    -18.5828119     23  1.200                                                                 
     0    -13.5018863     23  1.200                                                                 
     1     -7.0897853     23  1.500                                                                 
     1      9.5240782     23  1.500                                                                 
     2     -6.8029130      7  1.500                                                                 
  local pseudopotential read in
  partial core-charges read in
  partial kinetic energy density read in
  atomic valenz-charges read in
  non local Contribution for L=            0  read in
    real space projection operators read in
  non local Contribution for L=            0  read in
    real space projection operators read in
  non local Contribution for L=            1  read in
    real space projection operators read in
  non local Contribution for L=            1  read in
    real space projection operators read in
    PAW grid and wavefunctions read in
 
   number of l-projection  operators is LMAX  =            4
   number of lm-projection operators is LMMAX =            8
 
 POTCAR:    PAW_PBE I 08Apr2002                   
   SHA256 =  e40f3f59b681c1fc3e3091736183c4589116986673d2b852a5012aec72758799 I/POTCAR              
   COPYR  = (c) Copyright 08Apr2002 Georg Kresse                                                    
   COPYR  = This file is part of the software VASP. Any use, copying, and all other rights are regul
   COPYR  = If you do not have a valid VASP license, you may not use, copy or distribute this file. 
   VRHFIN =I : s2p5                                                                                 
   LEXCH  = PE                                                                                      
   EATOM  =   315.8678 eV,   23.2156 Ry                                                             
                                                                                                    
   TITEL  = PAW_PBE I 08Apr2002                                                                     
   LULTRA =        F    use ultrasoft PP ?                                                          
   IUNSCR =        1    unscreen: 0-lin 1-nonlin 2-no                                               
   RPACOR =    2.200    partial core radius                                                         
   POMASS =  126.904; ZVAL   =    7.000    mass and valenz                                          
   RCORE  =    2.300    outmost cutoff radius                                                       
   RWIGS  =    2.810; RWIGS  =    1.487    wigner-seitz radius (au A)                               
   ENMAX  =  175.647; ENMIN  =  131.735 eV                                                          
   ICORE  =        3    local potential                                                             
   LCOR   =        T    correct aug charges                                                         
   LPAW   =        T    paw PP                                                                      
   EAUG   =  370.139                                                                                
   DEXC   =    0.000                                                                                
   RMAX   =    2.359    core radius for proj-oper                                                   
   RAUG   =    1.300    factor for augmentation sphere                                              
   RDEP   =    2.392    radius for radial grids                                                     
   RDEPT  =    2.170    core radius for aug-charge                                                  
                                                                                                    
   Atomic configuration                                                                             
   13 entries                                                                                       
     n  l   j            E        occ.                                                              
     1  0  0.50    -32976.3739   2.0000                                                             
     2  0  0.50     -5094.5933   2.0000                                                             
     2  1  1.50     -4572.0131   6.0000                                                             
     3  0  0.50     -1028.2813   2.0000                                                             
     3  1  1.50      -859.0250   6.0000                                                             
     3  2  2.50      -605.7620  10.0000                                                             
     4  0  0.50      -180.5540   2.0000                                                             
     4  1  1.50      -127.5306   6.0000                                                             
     4  2  2.50       -50.2720  10.0000                                                             
     5  0  0.50       -17.4058   2.0000                                                             
     5  1  0.50        -7.0851   5.0000                                                             
     5  2  1.50        -7.0750   0.0000                                                             
     4  3  2.50        -7.0750   0.0000                                                             
   Description                                                                                      
     l       E           TYP  RCUT    TYP  RCUT                                                     
     0    -17.4058016     23  2.300                                                                 
     0    -18.7663842     23  2.300                                                                 
     1     -7.0850686     23  2.300                                                                 
     1     -4.2150896     23  2.300                                                                 
     2     -7.0750295     23  2.300                                                                 
     3     -1.3605826     23  2.300                                                                 
  local pseudopotential read in
  partial core-charges read in
  partial kinetic energy density read in
  atomic valenz-charges read in
  non local Contribution for L=            0  read in
    real space projection operators read in
  non local Contribution for L=            0  read in
    real space projection operators read in
  non local Contribution for L=            1  read in
    real space projection operators read in
  non local Contribution for L=            1  read in
    real space projection operators read in
  non local Contribution for L=            2  read in
    real space projection operators read in
    PAW grid and wavefunctions read in
 
   number of l-projection  operators is LMAX  =            5
   number of lm-projection operators is LMMAX =           13
 
 POTCAR:    PAW_PBE Pb 08Apr2002                  
   SHA256 =  797118a27cf1bcd06b9881c67a26cdde129e3cd1a551dd4a281f9681ce847303 Pb/POTCAR             
   COPYR  = (c) Copyright 08Apr2002 Georg Kresse                                                    
   COPYR  = This file is part of the software VASP. Any use, copying, and all other rights are regul
   COPYR  = If you do not have a valid VASP license, you may not use, copy or distribute this file. 
   VRHFIN =Pb:                                                                                      
   LEXCH  = PE                                                                                      
   EATOM  =    96.9868 eV,    7.1283 Ry                                                             
                                                                                                    
   TITEL  = PAW_PBE Pb 08Apr2002                                                                    
   LULTRA =        F    use ultrasoft PP ?                                                          
   IUNSCR =        1    unscreen: 0-lin 1-nonlin 2-no                                               
   RPACOR =    2.200    partial core radius                                                         
   POMASS =  207.200; ZVAL   =    4.000    mass and valenz                                          
   RCORE  =    3.100    outmost cutoff radius                                                       
   RWIGS  =    3.260; RWIGS  =    1.725    wigner-seitz radius (au A)                               
   ENMAX  =   97.973; ENMIN  =   73.480 eV                                                          
   ICORE  =        3    local potential                                                             
   LCOR   =        T    correct aug charges                                                         
   LPAW   =        T    paw PP                                                                      
   EAUG   =  234.873                                                                                
   DEXC   =    0.000                                                                                
   RMAX   =    3.158    core radius for proj-oper                                                   
   RAUG   =    1.300    factor for augmentation sphere                                              
   RDEP   =    3.202    radius for radial grids                                                     
   RDEPT  =    2.659    core radius for aug-charge                                                  
                                                                                                    
   Atomic configuration                                                                             
   17 entries                                                                                       
     n  l   j            E        occ.                                                              
     1  0  0.50    -88091.8466   2.0000                                                             
     2  0  0.50    -15753.4197   2.0000                                                             
     2  1  1.50    -13508.1797   6.0000                                                             
     3  0  0.50     -3781.7194   2.0000                                                             
     3  1  1.50     -3138.2529   6.0000                                                             
     3  2  2.50     -2483.2977  10.0000                                                             
     4  0  0.50      -856.2895   2.0000                                                             
     4  1  1.50      -645.4943   6.0000                                                             
     4  2  2.50      -401.8768  10.0000                                                             
     4  3  3.50      -132.9059  14.0000                                                             
     5  0  0.50      -144.0950   2.0000                                                             
     5  1  1.50       -85.7879   6.0000                                                             
     5  2  2.50       -21.1769  10.0000                                                             
     6  0  0.50       -12.0372   2.0000                                                             
     6  1  1.50        -3.4971   2.0000                                                             
     6  2  2.50        -1.3606   0.0000                                                             
     5  3  2.50        -2.7212   0.0000                                                             
   Description                                                                                      
     l       E           TYP  RCUT    TYP  RCUT                                                     
     0    -12.0371566     23  3.100                                                                 
     0    -13.3977392     23  3.100                                                                 
     1     -3.4971341     23  3.100                                                                 
     1     -5.4423304     23  3.100                                                                 
     2     -1.3605826     23  3.100                                                                 
     3     -1.3605826     23  3.100                                                                 
  local pseudopotential read in
  partial core-charges read in
  partial kinetic energy density read in
  atomic valenz-charges read in
  non local Contribution for L=            0  read in
    real space projection operators read in
  non local Contribution for L=            0  read in
    real space projection operators read in
  non local Contribution for L=            1  read in
    real space projection operators read in
  non local Contribution for L=            1  read in
    real space projection operators read in
  non local Contribution for L=            2  read in
    real space projection operators read in
    PAW grid and wavefunctions read in
 
   number of l-projection  operators is LMAX  =            5
   number of lm-projection operators is LMMAX =           13
 
 Optimization of the real space projectors (new method)

 maximal supplied QI-value         = 34.20
 optimisation between [QCUT,QGAM] = [ 11.29, 22.57] = [ 35.68,142.71] Ry 
 Optimized for a Real-space Cutoff    1.16 Angstroem

   l    n(q)    QCUT    max X(q) W(low)/X(q) W(high)/X(q)  e(spline) 
   0      8    11.287    19.460    0.40E-03    0.73E-03    0.16E-06
   0      8    11.287    12.209    0.38E-03    0.70E-03    0.15E-06
   1      7    11.287     4.655    0.22E-03    0.25E-04    0.22E-06
 Optimization of the real space projectors (new method)

 maximal supplied QI-value         = 25.13
 optimisation between [QCUT,QGAM] = [ 11.31, 22.87] = [ 35.82,146.48] Ry 
 Optimized for a Real-space Cutoff    1.00 Angstroem

   l    n(q)    QCUT    max X(q) W(low)/X(q) W(high)/X(q)  e(spline) 
   0      7    11.310   115.676    0.43E-03    0.13E-02    0.19E-06
   0      7    11.310    87.132    0.43E-03    0.13E-02    0.18E-06
   1      6    11.310     4.429    0.42E-03    0.74E-03    0.11E-06
   1      6    11.310     2.733    0.34E-03    0.55E-03    0.92E-07
 Optimization of the real space projectors (new method)

 maximal supplied QI-value         = 25.13
 optimisation between [QCUT,QGAM] = [ 11.31, 22.87] = [ 35.82,146.48] Ry 
 Optimized for a Real-space Cutoff    1.27 Angstroem

   l    n(q)    QCUT    max X(q) W(low)/X(q) W(high)/X(q)  e(spline) 
   0      9    11.310    79.467    0.75E-04    0.16E-03    0.36E-06
   0      9    11.310    66.151    0.74E-04    0.16E-03    0.36E-06
   1      8    11.310    17.416    0.35E-03    0.12E-03    0.95E-06
   1      8    11.310    12.382    0.37E-03    0.13E-03    0.98E-06
 Optimization of the real space projectors (new method)

 maximal supplied QI-value         = 16.25
 optimisation between [QCUT,QGAM] = [ 11.38, 22.75] = [ 36.24,144.96] Ry 
 Optimized for a Real-space Cutoff    1.31 Angstroem

   l    n(q)    QCUT    max X(q) W(low)/X(q) W(high)/X(q)  e(spline) 
   0      9    11.376   194.483    0.24E-03    0.23E-03    0.67E-07
   0      9    11.376   190.334    0.23E-03    0.22E-03    0.65E-07
   1      8    11.376   116.687    0.25E-03    0.63E-04    0.16E-06
   1      8    11.376    88.696    0.25E-03    0.61E-04    0.16E-06
   2      8    11.376     4.877    0.17E-03    0.14E-03    0.29E-07
 Optimization of the real space projectors (new method)

 maximal supplied QI-value         = 12.09
 optimisation between [QCUT,QGAM] = [ 11.37, 22.86] = [ 36.19,146.31] Ry 
 Optimized for a Real-space Cutoff    1.66 Angstroem

   l    n(q)    QCUT    max X(q) W(low)/X(q) W(high)/X(q)  e(spline) 
   0     11    11.369   135.111    0.12E-03    0.69E-04    0.19E-05
   0     11    11.369   146.850    0.11E-03    0.65E-04    0.18E-05
   1     11    11.369   148.016    0.17E-03    0.32E-03    0.89E-06
   1     11    11.369   122.989    0.17E-03    0.32E-03    0.91E-06
   2     10    11.369     8.916    0.12E-03    0.45E-04    0.33E-06
  PAW_PBE H 15Jun2001                   :
 energy of atom  1       EATOM=  -12.4884
 kinetic energy error for atom=    0.0020 (will be added to EATOM!!)
  PAW_PBE C 08Apr2002                   :
 energy of atom  2       EATOM= -147.1560
 kinetic energy error for atom=    0.0076 (will be added to EATOM!!)
  PAW_PBE N 08Apr2002                   :
 energy of atom  3       EATOM= -264.5486
 kinetic energy error for atom=    0.0138 (will be added to EATOM!!)
  PAW_PBE I 08Apr2002                   :
 energy of atom  4       EATOM= -315.8678
 kinetic energy error for atom=    0.0009 (will be added to EATOM!!)
  PAW_PBE Pb 08Apr2002                  :
 energy of atom  5       EATOM=  -96.9868
 kinetic energy error for atom=    0.0000 (will be added to EATOM!!)
 
 
 POSCAR:  H  C  N  I Pb
  positions in cartesian coordinates
  No initial velocities read in
 exchange correlation table for  LEXCH =        8
   RHO(1)=    0.500       N(1)  =     2000
   RHO(2)=  100.500       N(2)  =     4000
 


--------------------------------------------------------------------------------------------------------


 ion  position               nearest neighbor table
   1  0.421  0.256  0.577- 187 1.05
   2  0.410  0.722  0.575- 188 1.05
   3  0.923  0.282  0.581- 189 1.03
   4  0.940  0.816  0.577- 190 1.03
   5  0.317  0.073  0.574- 194 1.02
   6  0.308  0.581  0.573- 195 1.03
   7  0.799  0.078  0.578- 196 1.02
   8  0.109  0.223  0.565- 183 1.04
   9  0.081  0.674  0.569- 184 1.01
  10  0.610  0.201  0.565- 185 1.03
  11  0.603  0.744  0.561- 186 1.03
  12  0.374  0.012  0.560- 194 1.03
  13  0.255  0.622  0.553- 195 1.02
  14  0.872  0.035  0.564- 196 1.02
  15  0.060  0.276  0.584- 183 1.03
  16  0.999  0.691  0.583- 184 1.04
  17  0.529  0.174  0.579- 185 1.04
  18  0.543  0.690  0.578- 186 1.03
  19  0.290  0.447  0.580- 191 1.03
  20  0.182  0.049  0.572- 192 1.02
  21  0.677  0.020  0.575- 193 1.03
  22  0.433  0.338  0.562- 187 1.03
  23  0.386  0.793  0.557- 188 1.01
  24  0.883  0.232  0.560- 189 1.03
  25  0.986  0.873  0.559- 190 1.02
  26  0.221  0.403  0.565- 191 1.03
  27  0.152  0.978  0.556- 192 1.01
  28  0.674  0.934  0.561- 193 1.02
  29  0.554  0.304  0.551- 146 1.09
  30  0.511  0.812  0.547- 147 1.09
  31  0.999  0.193  0.547- 144 1.10
  32  0.079  0.787  0.552- 145 1.10
  33  0.191  0.510  0.546- 148 1.10
  34  0.275  0.944  0.546- 149 1.10
  35  0.796  0.937  0.552- 150 1.10
  36  0.442  0.282  0.676- 205 1.03
  37  0.431  0.822  0.672- 206 1.04
  38  0.973  0.275  0.682- 207 1.01
  39  0.928  0.769  0.674- 208 1.02
  40  0.294  0.046  0.676- 209 1.03
  41  0.306  0.554  0.673- 210 1.03
  42  0.794  0.060  0.675- 211 1.04
  43  0.814  0.542  0.675- 212 1.02
  44  0.086  0.165  0.645- 197 1.02
  45  0.101  0.689  0.653- 198 1.01
  46  0.581  0.174  0.647- 199 1.02
  47  0.562  0.677  0.656- 200 1.01
  48  0.181  0.407  0.654- 201 1.00
  49  0.167  0.923  0.647- 202 1.00
  50  0.662  0.438  0.650- 203 1.03
  51  0.670  0.921  0.652- 204 1.00
  52  0.073  0.176  0.672- 197 1.04
  53  0.036  0.672  0.673- 198 1.03
  54  0.540  0.178  0.672- 199 1.03
  55  0.525  0.716  0.679- 200 1.04
  56  0.218  0.441  0.678- 201 1.03
  57  0.186  0.953  0.674- 202 1.03
  58  0.707  0.444  0.675- 203 1.03
  59  0.693  0.958  0.677- 204 1.03
  60  0.431  0.337  0.653- 205 1.02
  61  0.416  0.839  0.645- 206 1.02
  62  0.933  0.317  0.660- 207 1.00
  63  0.935  0.837  0.654- 208 1.02
  64  0.336  0.066  0.652- 209 0.98
  65  0.314  0.584  0.647- 210 1.01
  66  0.827  0.077  0.649- 211 1.02
  67  0.827  0.590  0.652- 212 1.02
  68  1.000  0.252  0.635- 151 1.09
  69  0.043  0.790  0.639- 152 1.08
  70  0.516  0.274  0.633- 153 1.08
  71  0.497  0.750  0.633- 154 1.08
  72  0.258  0.990  0.632- 156 1.07
  73  0.237  0.492  0.633- 155 1.08
  74  0.751  0.991  0.633- 158 1.08
  75  0.732  0.530  0.634- 157 1.10
  76  0.449  0.301  0.769- 221 1.02
  77  0.449  0.801  0.769- 222 1.02
  78  0.949  0.301  0.769- 223 1.02
  79  0.949  0.801  0.769- 224 1.02
  80  0.301  0.051  0.769- 225 1.02
  81  0.301  0.551  0.769- 226 1.02
  82  0.801  0.051  0.769- 227 1.02
  83  0.801  0.551  0.769- 228 1.02
  84  0.079  0.171  0.743- 213 1.02
  85  0.079  0.671  0.743- 214 1.02
  86  0.579  0.171  0.743- 215 1.02
  87  0.579  0.671  0.743- 216 1.02
  88  0.171  0.421  0.743- 217 1.02
  89  0.171  0.921  0.743- 218 1.02
  90  0.671  0.421  0.743- 219 1.02
  91  0.671  0.921  0.743- 220 1.02
  92  0.051  0.199  0.769- 213 1.02
  93  0.051  0.699  0.769- 214 1.02
  94  0.551  0.199  0.769- 215 1.02
  95  0.551  0.699  0.769- 216 1.02
  96  0.199  0.449  0.769- 217 1.02
  97  0.199  0.949  0.769- 218 1.02
  98  0.699  0.449  0.769- 219 1.02
  99  0.699  0.949  0.769- 220 1.02
 100  0.421  0.329  0.743- 221 1.02
 101  0.421  0.829  0.743- 222 1.02
 102  0.921  0.329  0.743- 223 1.02
 103  0.921  0.829  0.743- 224 1.02
 104  0.329  0.079  0.743- 225 1.02
 105  0.329  0.579  0.743- 226 1.02
 106  0.829  0.079  0.743- 227 1.02
 107  0.829  0.579  0.743- 228 1.02
 108  0.000  0.250  0.726- 161 1.09
 109  0.000  0.750  0.726- 162 1.09
 110  0.500  0.250  0.726- 159 1.09
 111  0.500  0.750  0.726- 160 1.09
 112  0.250  0.000  0.726- 163 1.09
 113  0.250  0.500  0.726- 164 1.09
 114  0.750  0.000  0.726- 165 1.09
 115  0.750  0.500  0.726- 166 1.09
 116  0.792  0.509  0.517- 173 1.10
 117  0.873  0.505  0.533- 173 1.09
 118  0.755  0.627  0.537- 174 1.09
 119  0.767  0.624  0.564- 174 1.09
 120  0.683  0.453  0.554- 175 1.08
 121  0.669  0.546  0.561- 175 1.09
 122  0.799  0.430  0.569- 176 1.08
 123  0.866  0.500  0.571- 176 1.10
 124  0.861  0.379  0.540- 177 1.10
 125  0.766  0.374  0.535- 177 1.09
 126  0.778  0.379  0.498- 178 1.11
 127  0.869  0.415  0.499- 178 1.11
 128  0.896  0.614  0.532- 179 1.10
 129  0.902  0.610  0.560- 179 1.09
 130  0.870  0.690  0.548- 179 1.09
 131  0.595  0.521  0.529- 180 1.10
 132  0.674  0.486  0.515- 180 1.10
 133  0.666  0.581  0.522- 180 1.09
 134  0.716  0.488  0.595- 181 1.11
 135  0.763  0.576  0.592- 181 1.09
 136  0.807  0.502  0.604- 181 1.09
 137  0.831  0.261  0.515- 182 1.09
 138  0.848  0.278  0.489- 182 1.09
 139  0.933  0.169  0.500- 168 1.11
 140  0.973  0.397  0.516- 169 1.08
 141  0.069  0.144  0.503- 170 1.09
 142  0.108  0.372  0.519- 171 1.10
 143  0.156  0.246  0.512- 172 1.09
 144  0.996  0.227  0.561-  31 1.10 183 1.31 189 1.32
 145  0.033  0.772  0.562-  32 1.10 184 1.31 190 1.32
 146  0.522  0.269  0.561-  29 1.09 187 1.32 185 1.32
 147  0.496  0.768  0.558-  30 1.09 188 1.30 186 1.31
 148  0.234  0.513  0.558-  33 1.10 195 1.32 191 1.32
 149  0.264  0.992  0.557-  34 1.10 194 1.31 192 1.32
 150  0.773  0.984  0.561-  35 1.10 193 1.32 196 1.32
 151  0.009  0.241  0.652-  68 1.09 197 1.31 207 1.32
 152  0.018  0.763  0.653-  69 1.08 208 1.31 198 1.33
 153  0.506  0.256  0.650-  70 1.08 205 1.31 199 1.32
 154  0.490  0.758  0.650-  71 1.08 206 1.31 200 1.31
 155  0.248  0.495  0.650-  73 1.08 210 1.30 201 1.32
 156  0.251  0.995  0.649-  72 1.07 202 1.32 209 1.32
 157  0.744  0.514  0.651-  75 1.10 212 1.30 203 1.31
 158  0.749  0.999  0.650-  74 1.08 211 1.30 204 1.32
 159  0.500  0.250  0.743- 110 1.09 221 1.31 215 1.31
 160  0.500  0.750  0.743- 111 1.09 222 1.31 216 1.31
 161  1.000  0.250  0.743- 108 1.09 223 1.31 213 1.31
 162  1.000  0.750  0.743- 109 1.09 224 1.31 214 1.31
 163  0.250  0.000  0.743- 112 1.09 225 1.31 218 1.31
 164  0.250  0.500  0.743- 113 1.09 226 1.31 217 1.31
 165  0.750  0.000  0.743- 114 1.09 227 1.31 220 1.31
 166  0.750  0.500  0.743- 115 1.09 228 1.31 219 1.31
 167  0.943  0.286  0.508- 169 1.39 168 1.42 182 1.51
 168  0.972  0.214  0.505- 139 1.11 170 1.39 167 1.42
 169  0.993  0.342  0.513- 140 1.08 167 1.39 171 1.40
 170  0.048  0.200  0.506- 141 1.09 168 1.39 172 1.40
 171  0.069  0.327  0.515- 142 1.10 172 1.40 169 1.40
 172  0.097  0.257  0.511- 143 1.09 171 1.40 170 1.40
 173  0.816  0.485  0.531- 117 1.09 116 1.10 177 1.52 229 1.53
 174  0.790  0.605  0.549- 118 1.09 119 1.09 179 1.51 229 1.53
 175  0.692  0.510  0.549- 120 1.08 121 1.09 180 1.52 229 1.53
 176  0.805  0.490  0.571- 122 1.08 123 1.10 181 1.51 229 1.52
 177  0.817  0.401  0.530- 125 1.09 124 1.10 173 1.52 178 1.53
 178  0.832  0.376  0.507- 126 1.11 127 1.11 182 1.52 177 1.53
 179  0.869  0.630  0.547- 129 1.09 130 1.09 128 1.10 174 1.51
 180  0.656  0.525  0.528- 133 1.09 132 1.10 131 1.10 175 1.52
 181  0.769  0.516  0.591- 135 1.09 136 1.09 134 1.11 176 1.51
 182  0.861  0.297  0.505- 137 1.09 138 1.09 167 1.51 178 1.52
 183  0.058  0.240  0.572-  15 1.03   8 1.04 144 1.31
 184  0.037  0.707  0.572-   9 1.01  16 1.04 145 1.31
 185  0.555  0.208  0.568-  10 1.03  17 1.04 146 1.32
 186  0.550  0.727  0.565-  18 1.03  11 1.03 147 1.31
 187  0.453  0.288  0.566-  22 1.03   1 1.05 146 1.32
 188  0.427  0.762  0.564-  23 1.01   2 1.05 147 1.30
 189  0.930  0.252  0.567-   3 1.03  24 1.03 144 1.32
 190  0.980  0.821  0.565-  25 1.02   4 1.03 145 1.32
 191  0.249  0.451  0.569-  26 1.03  19 1.03 148 1.32
 192  0.194  0.007  0.562-  27 1.01  20 1.02 149 1.32
 193  0.702  0.981  0.565-  28 1.02  21 1.03 150 1.32
 194  0.322  0.030  0.563-   5 1.02  12 1.03 149 1.31
 195  0.268  0.576  0.561-  13 1.02   6 1.03 148 1.32
 196  0.818  0.037  0.568-  14 1.02   7 1.02 150 1.32
 197  0.058  0.191  0.657-  44 1.02  52 1.04 151 1.31
 198  0.053  0.705  0.661-  45 1.01  53 1.03 152 1.33
 199  0.544  0.199  0.657-  46 1.02  54 1.03 153 1.32
 200  0.529  0.716  0.662-  47 1.01  55 1.04 154 1.31
 201  0.213  0.444  0.661-  48 1.00  56 1.03 155 1.32
 202  0.197  0.954  0.657-  49 1.00  57 1.03 156 1.32
 203  0.703  0.463  0.659-  58 1.03  50 1.03 157 1.31
 204  0.701  0.956  0.660-  51 1.00  59 1.03 158 1.32
 205  0.457  0.293  0.660-  60 1.02  36 1.03 153 1.31
 206  0.443  0.810  0.656-  61 1.02  37 1.04 154 1.31
 207  0.969  0.280  0.666-  62 1.00  38 1.01 151 1.32
 208  0.956  0.790  0.661-  63 1.02  39 1.02 152 1.31
 209  0.297  0.039  0.660-  64 0.98  40 1.03 156 1.32
 210  0.291  0.547  0.657-  65 1.01  41 1.03 155 1.30
 211  0.792  0.048  0.659-  66 1.02  42 1.04 158 1.30
 212  0.798  0.549  0.660-  43 1.02  67 1.02 157 1.30
 213  0.046  0.204  0.753-  92 1.02  84 1.02 161 1.31
 214  0.046  0.704  0.753-  93 1.02  85 1.02 162 1.31
 215  0.546  0.204  0.753-  94 1.02  86 1.02 159 1.31
 216  0.546  0.704  0.753-  95 1.02  87 1.02 160 1.31
 217  0.204  0.454  0.753-  96 1.02  88 1.02 164 1.31
 218  0.204  0.954  0.753-  97 1.02  89 1.02 163 1.31
 219  0.704  0.454  0.753-  98 1.02  90 1.02 166 1.31
 220  0.704  0.954  0.753-  99 1.02  91 1.02 165 1.31
 221  0.454  0.296  0.753-  76 1.02 100 1.02 159 1.31
 222  0.454  0.796  0.753-  77 1.02 101 1.02 160 1.31
 223  0.954  0.296  0.753-  78 1.02 102 1.02 161 1.31
 224  0.954  0.796  0.753-  79 1.02 103 1.02 162 1.31
 225  0.296  0.046  0.753-  80 1.02 104 1.02 163 1.31
 226  0.296  0.546  0.753-  81 1.02 105 1.02 164 1.31
 227  0.796  0.046  0.753-  82 1.02 106 1.02 165 1.31
 228  0.796  0.546  0.753-  83 1.02 107 1.02 166 1.31
 229  0.776  0.521  0.550- 176 1.52 173 1.53 174 1.53 175 1.53
 230  0.505  0.978  0.555- 304 3.13
 231  0.455  0.483  0.554- 305 3.13
 232  0.002  0.016  0.553- 302 3.26
 233  0.038  0.493  0.556- 303 3.12
 234  0.248  0.246  0.556- 306 3.12
 235  0.233  0.768  0.552- 307 3.23
 236  0.744  0.224  0.555- 308 3.24
 237  0.716  0.794  0.548- 309 3.66
 238  0.999  0.992  0.655- 310 3.12 302 3.13
 239  0.005  0.501  0.656- 311 3.05 303 3.17
 240  0.498  0.008  0.656- 312 3.08 304 3.18
 241  0.499  0.502  0.654- 313 3.15 305 3.21
 242  0.258  0.238  0.656- 314 3.05 306 3.13
 243  0.247  0.750  0.654- 307 3.17 315 3.17
 244  0.741  0.255  0.655- 316 3.09 308 3.09
 245  0.754  0.752  0.654- 309 3.11 317 3.17
 246  0.143  0.108  0.609- 302 3.19 306 3.25
 247  0.144  0.610  0.610- 303 3.13 307 3.22
 248  0.646  0.107  0.609- 304 3.26 308 3.28
 249  0.611  0.638  0.614- 309 3.33 305 3.35
 250  0.364  0.386  0.613- 305 3.18 306 3.20
 251  0.363  0.887  0.607- 307 3.21 304 3.22
 252  0.891  0.360  0.616- 308 3.22 303 3.41
 253  0.866  0.886  0.608- 309 3.17 302 3.26
 254  0.119  0.364  0.614- 306 3.21 303 3.26
 255  0.119  0.876  0.608- 307 3.11 302 3.22
 256  0.615  0.369  0.607- 308 3.20 305 3.22
 257  0.621  0.868  0.612- 304 3.12 309 3.14
 258  0.396  0.142  0.606- 306 3.25 304 3.32
 259  0.378  0.635  0.606- 305 3.24 307 3.31
 260  0.887  0.137  0.614- 302 3.14 308 3.28
 261  0.913  0.662  0.614- 303 3.37 309 3.45
 262  0.000  0.000  0.755- 310 3.13 318 3.27
 263  0.000  0.500  0.755- 311 3.13 319 3.27
 264  0.500  0.000  0.755- 312 3.13 320 3.27
 265  0.500  0.500  0.755- 313 3.13 321 3.27
 266  0.250  0.250  0.755- 314 3.13 322 3.27
 267  0.250  0.750  0.755- 315 3.13 323 3.27
 268  0.750  0.250  0.755- 316 3.13 324 3.27
 269  0.750  0.750  0.755- 317 3.13 325 3.27
 270  0.136  0.114  0.705- 310 3.20 314 3.20
 271  0.136  0.614  0.705- 311 3.20 315 3.20
 272  0.636  0.114  0.705- 312 3.20 316 3.20
 273  0.636  0.614  0.705- 313 3.20 317 3.20
 274  0.364  0.386  0.705- 313 3.20 314 3.20
 275  0.364  0.886  0.705- 312 3.20 315 3.20
 276  0.864  0.386  0.705- 311 3.20 316 3.20
 277  0.864  0.886  0.705- 310 3.20 317 3.20
 278  0.114  0.364  0.705- 314 3.21 311 3.21
 279  0.114  0.864  0.705- 315 3.21 310 3.21
 280  0.614  0.364  0.705- 316 3.21 313 3.21
 281  0.614  0.864  0.705- 317 3.21 312 3.21
 282  0.386  0.136  0.705- 314 3.21 312 3.21
 283  0.386  0.636  0.705- 315 3.21 313 3.21
 284  0.886  0.136  0.705- 316 3.21 310 3.21
 285  0.886  0.636  0.705- 317 3.21 311 3.21
 286  0.135  0.115  0.801- 318 3.22 322 3.22
 287  0.135  0.615  0.801- 319 3.22 323 3.22
 288  0.635  0.115  0.801- 320 3.22 324 3.22
 289  0.635  0.615  0.801- 321 3.22 325 3.22
 290  0.365  0.385  0.801- 321 3.22 322 3.22
 291  0.365  0.885  0.801- 320 3.22 323 3.22
 292  0.865  0.385  0.801- 319 3.22 324 3.22
 293  0.865  0.885  0.801- 318 3.22 325 3.22
 294  0.115  0.365  0.801- 319 3.23 322 3.23
 295  0.115  0.865  0.801- 318 3.23 323 3.23
 296  0.615  0.365  0.801- 321 3.23 324 3.23
 297  0.615  0.865  0.801- 320 3.23 325 3.23
 298  0.385  0.135  0.801- 320 3.23 322 3.23
 299  0.385  0.635  0.801- 321 3.23 323 3.23
 300  0.885  0.135  0.801- 318 3.23 324 3.23
 301  0.885  0.635  0.801- 319 3.23 325 3.23
 302  0.998  0.008  0.605- 238 3.13 260 3.14 246 3.19 255 3.22 253 3.26 232 3.26
 303  0.008  0.504  0.605- 233 3.12 247 3.13 239 3.17 254 3.26 261 3.37 252 3.41
 304  0.505  0.994  0.605- 257 3.12 230 3.13 240 3.18 251 3.22 248 3.26 258 3.32
 305  0.494  0.499  0.603- 231 3.13 250 3.18 241 3.21 256 3.22 259 3.24 249 3.35
 306  0.253  0.250  0.606- 234 3.12 242 3.13 250 3.20 254 3.21 246 3.25 258 3.25
 307  0.242  0.757  0.604- 255 3.11 243 3.17 251 3.21 247 3.22 235 3.23 259 3.31
 308  0.751  0.255  0.606- 244 3.09 256 3.20 252 3.22 236 3.24 248 3.28 260 3.28
 309  0.750  0.755  0.604- 245 3.11 257 3.14 253 3.17 249 3.33 261 3.45 237 3.66
 310  0.000  0.000  0.705- 238 3.12 262 3.13 270 3.20 277 3.20 279 3.21 284 3.21
 311  0.000  0.500  0.705- 239 3.05 263 3.13 271 3.20 276 3.20 278 3.21 285 3.21
 312  0.500  0.000  0.705- 240 3.08 264 3.13 272 3.20 275 3.20 281 3.21 282 3.21
 313  0.500  0.500  0.705- 265 3.13 241 3.15 273 3.20 274 3.20 280 3.21 283 3.21
 314  0.250  0.250  0.705- 242 3.05 266 3.13 270 3.20 274 3.20 282 3.21 278 3.21
 315  0.250  0.750  0.705- 267 3.13 243 3.17 271 3.20 275 3.20 283 3.21 279 3.21
 316  0.750  0.250  0.705- 244 3.09 268 3.13 272 3.20 276 3.20 284 3.21 280 3.21
 317  0.750  0.750  0.705- 269 3.13 245 3.17 273 3.20 277 3.20 285 3.21 281 3.21
 318  0.000  0.000  0.807- 286 3.22 293 3.22 300 3.23 295 3.23 262 3.27
 319  0.000  0.500  0.807- 287 3.22 292 3.22 301 3.23 294 3.23 263 3.27
 320  0.500  0.000  0.807- 288 3.22 291 3.22 298 3.23 297 3.23 264 3.27
 321  0.500  0.500  0.807- 289 3.22 290 3.22 299 3.23 296 3.23 265 3.27
 322  0.250  0.250  0.807- 290 3.22 286 3.22 294 3.23 298 3.23 266 3.27
 323  0.250  0.750  0.807- 291 3.22 287 3.22 299 3.23 295 3.23 267 3.27
 324  0.750  0.250  0.807- 292 3.22 288 3.22 296 3.23 300 3.23 268 3.27
 325  0.750  0.750  0.807- 293 3.22 289 3.22 297 3.23 301 3.23 269 3.27
 

IMPORTANT INFORMATION: All symmetrisations will be switched off!
NOSYMM: (Re-)initialisation of all symmetry stuff for point group C_1.


----------------------------------------------------------------------------------------

                                     Primitive cell                                     

  volume of cell :   20385.2105

  direct lattice vectors                    reciprocal lattice vectors
    18.060800552  0.000000000  0.000000000     0.055368531  0.000015077 -0.000000000
    -0.004918649 18.062799454  0.000000000     0.000000000  0.055362404  0.000000000
     0.000000000  0.000000000 62.487499237     0.000000000 -0.000000000  0.016003201

  length of vectors
    18.060800552 18.062800123 62.487499237     0.055368533  0.055362404  0.016003201

  position of ions in fractional coordinates (direct lattice)
     0.421250783  0.256169174  0.576887052
     0.410196460  0.721579129  0.574739283
     0.922644628  0.281628781  0.580980888
     0.939537452  0.815671815  0.576656720
     0.317189513  0.072844067  0.573912397
     0.307832740  0.581471660  0.573075804
     0.798695540  0.078249033  0.577695868
     0.108513824  0.223368628  0.565272180
     0.080657536  0.673621233  0.569274812
     0.610375600  0.200982402  0.565156434
     0.602683431  0.744215457  0.561275714
     0.374159133  0.011789094  0.559555705
     0.254842358  0.621933074  0.552569566
     0.872203702  0.034921143  0.563963996
     0.060430035  0.275979083  0.584349177
     0.998687810  0.690555304  0.583228530
     0.528718872  0.173823422  0.579348665
     0.543188198  0.689930021  0.577708322
     0.290092689  0.446864022  0.579949981
     0.182235326  0.049216039  0.572332125
     0.677062993  0.019885417  0.575071992
     0.433275101  0.338478522  0.561559462
     0.386208810  0.793118432  0.557057402
     0.882978417  0.231889042  0.559963745
     0.985517855  0.872769733  0.558801464
     0.221078044  0.403282502  0.565104056
     0.152015410  0.977775691  0.555730171
     0.673845306  0.934389021  0.561007472
     0.553937804  0.304351988  0.550749622
     0.511366165  0.811973231  0.546825925
     0.999191385  0.192793385  0.546754682
     0.078776984  0.786828906  0.551527426
     0.191098820  0.510030455  0.545756558
     0.274707194  0.944324103  0.546170703
     0.795723174  0.937480788  0.551913124
     0.442338178  0.282280040  0.676108619
     0.431133909  0.821523702  0.671996224
     0.972882979  0.275161458  0.681873627
     0.928479762  0.769452020  0.673560135
     0.293607931  0.046498917  0.675819437
     0.305593445  0.553641938  0.672992883
     0.794199507  0.059943027  0.675324404
     0.813997116  0.541862348  0.675429467
     0.085683129  0.164961406  0.644776424
     0.101024336  0.689265984  0.653385263
     0.581135817  0.173723832  0.647075773
     0.562109098  0.676999705  0.655803593
     0.181251007  0.407008541  0.653812350
     0.166533704  0.923289413  0.647498770
     0.662144897  0.437965128  0.650055373
     0.669529013  0.921304536  0.651830264
     0.072878756  0.175960158  0.672370322
     0.035644842  0.672491415  0.673189273
     0.539623778  0.177592438  0.672168072
     0.525304029  0.715993448  0.678921498
     0.217732101  0.441263585  0.677658123
     0.186438537  0.952838492  0.673525033
     0.707204545  0.443804554  0.674563266
     0.693205979  0.958002345  0.676709386
     0.431063624  0.336884692  0.653345338
     0.416121446  0.839486008  0.644688455
     0.933020060  0.317100574  0.660053283
     0.934799857  0.837333393  0.653983649
     0.335748058  0.065668159  0.651576857
     0.313560481  0.583732246  0.646685253
     0.827362879  0.077196557  0.649493737
     0.827334400  0.589581281  0.652049852
     0.999742150  0.252363199  0.634873931
     0.042821131  0.790389319  0.639292905
     0.515978666  0.273952707  0.633318749
     0.497446604  0.750056784  0.632701988
     0.258371888  0.990078246  0.632129730
     0.236829706  0.492258801  0.632686787
     0.750956138  0.991268492  0.633106732
     0.731956319  0.530106306  0.633964447
     0.448745018  0.301283966  0.768889017
     0.448745007  0.801283913  0.768889017
     0.948744965  0.301283966  0.768889017
     0.948745007  0.801283913  0.768889017
     0.301275995  0.051294496  0.768872961
     0.301276011  0.551294499  0.768872961
     0.801275943  0.051294496  0.768872961
     0.801275984  0.551294499  0.768872961
     0.078771004  0.171180501  0.743441971
     0.078771006  0.671180448  0.743441971
     0.578771004  0.171180501  0.743441971
     0.578770992  0.671180448  0.743441971
     0.171199499  0.421174482  0.743421032
     0.171199501  0.921174508  0.743421032
     0.671199512  0.421174482  0.743421032
     0.671199501  0.921174508  0.743421032
     0.051256000  0.198714991  0.768889017
     0.051256002  0.698714925  0.768889017
     0.551256027  0.198714991  0.768889017
     0.551256016  0.698714925  0.768889017
     0.198723491  0.448703970  0.768872046
     0.198723493  0.948703970  0.768872046
     0.698723518  0.448703970  0.768872046
     0.698723507  0.948703970  0.768872046
     0.421231519  0.328817467  0.743441971
     0.421231508  0.828817440  0.743441971
     0.921231466  0.328817467  0.743441971
     0.921231508  0.828817440  0.743441971
     0.328800503  0.078824997  0.743421032
     0.328800492  0.578824964  0.743421032
     0.828800477  0.078824997  0.743421032
     0.828800519  0.578824964  0.743421032
     0.000003500  0.250001478  0.725821992
     0.000003500  0.750001452  0.725821992
     0.500003506  0.250001478  0.725821992
     0.500003495  0.750001452  0.725821992
     0.250000502  0.000000000  0.725803983
     0.250000517  0.500000000  0.725803983
     0.750000502  0.000000000  0.725803983
     0.750000490  0.500000000  0.725803983
     0.792364335  0.509240390  0.516971931
     0.872757891  0.504969267  0.532787961
     0.755074077  0.627424721  0.536629427
     0.767369505  0.624382623  0.564397493
     0.683032026  0.453475245  0.554053322
     0.669317564  0.545930147  0.561470822
     0.798597523  0.430301198  0.569352708
     0.865500566  0.500295298  0.570745198
     0.860896469  0.379123487  0.540348311
     0.766111748  0.373964729  0.535153546
     0.778235485  0.378968737  0.498358925
     0.868893802  0.415473175  0.498656531
     0.896212281  0.613760517  0.531740510
     0.902108804  0.609704123  0.560281802
     0.869759826  0.690185773  0.547544818
     0.594890539  0.520710638  0.529220047
     0.674348989  0.485968166  0.515244718
     0.665543128  0.581271029  0.522082694
     0.715858673  0.488386459  0.594827103
     0.762588548  0.576038724  0.591847075
     0.806783589  0.501597711  0.604326500
     0.830500682  0.260827383  0.515409790
     0.847821978  0.278242415  0.488561372
     0.933469279  0.168507511  0.500306275
     0.973066736  0.397196035  0.516016173
     0.068686932  0.143769755  0.503255168
     0.108046026  0.372040227  0.518750119
     0.156088013  0.245820323  0.512049163
     0.996212103  0.226916554  0.561229990
     0.032854741  0.771891643  0.562172805
     0.521615571  0.268600472  0.561329619
     0.496269350  0.768092321  0.557990328
     0.234471387  0.512590932  0.558012732
     0.263844434  0.992355610  0.556649789
     0.772946859  0.983698234  0.561335113
     0.008886591  0.241392998  0.651886611
     0.017791520  0.763277170  0.652967271
     0.506375657  0.256121075  0.649632132
     0.489652120  0.758415452  0.649659481
     0.247653729  0.495395988  0.649701115
     0.251249876  0.994533306  0.649079287
     0.744339006  0.514176870  0.650516708
     0.748959471  0.998999953  0.650283751
     0.499988984  0.249994984  0.743277021
     0.499989025  0.749994958  0.743277021
     0.999988984  0.249994984  0.743277021
     0.999989025  0.749994958  0.743277021
     0.250000502  0.000001000  0.743255960
     0.250000517  0.500001003  0.743255960
     0.750000502  0.000001000  0.743255960
     0.750000491  0.500001003  0.743255960
     0.943414541  0.286117747  0.507956120
     0.972145146  0.213931302  0.504594822
     0.992900231  0.341964517  0.513121124
     0.047524684  0.199758683  0.505729051
     0.068954919  0.327413523  0.514977514
     0.096912371  0.256768639  0.510950310
     0.816330901  0.484567126  0.531410122
     0.789736280  0.604744359  0.549208664
     0.692005469  0.509929347  0.549028636
     0.805480673  0.489619866  0.570885302
     0.817154259  0.400585410  0.529906037
     0.831818142  0.375653174  0.506891454
     0.869369601  0.629667726  0.546841675
     0.655508393  0.524843220  0.527563649
     0.769326960  0.516293793  0.591307295
     0.861191456  0.297398610  0.504718443
     0.058106020  0.240208138  0.571624952
     0.036685896  0.707303211  0.571756204
     0.554814543  0.207945468  0.568256969
     0.549979717  0.726692639  0.565229081
     0.453441421  0.288110649  0.566470296
     0.427196064  0.762215409  0.563654242
     0.930447570  0.251591138  0.567162084
     0.979630793  0.820826350  0.565032874
     0.248620801  0.451384878  0.568764272
     0.194448838  0.007235359  0.561950349
     0.701514670  0.981077435  0.565381211
     0.321657222  0.030092823  0.563314940
     0.268116013  0.576289143  0.561259353
     0.817658240  0.036547045  0.568142078
     0.058391507  0.191342663  0.656952199
     0.053004290  0.704525787  0.660568584
     0.544032922  0.198900773  0.656887306
     0.528824612  0.715648310  0.662294271
     0.213410239  0.444227358  0.661182476
     0.197458168  0.954313534  0.657330510
     0.703095931  0.462720809  0.659138672
     0.700863844  0.956370401  0.660319267
     0.457062401  0.293454172  0.660476281
     0.443422442  0.809547123  0.656075376
     0.969456363  0.280073387  0.665805227
     0.955873556  0.790382402  0.660576887
     0.297247891  0.038550117  0.659516189
     0.291361723  0.546740222  0.657076003
     0.792406561  0.047528221  0.659128172
     0.798349790  0.549430424  0.659910310
     0.045862501  0.204119496  0.752725994
     0.045862500  0.704119456  0.752725994
     0.545862507  0.204119496  0.752725994
     0.545862496  0.704119456  0.752725994
     0.204119002  0.454101003  0.752704994
     0.204118991  0.954100951  0.752704994
     0.704118976  0.454101003  0.752704994
     0.704118964  0.954100951  0.752704994
     0.454140018  0.295888490  0.752726971
     0.454140007  0.795888516  0.752726971
     0.954140018  0.295888490  0.752726971
     0.954140060  0.795888516  0.752726971
     0.295882492  0.045900498  0.752704994
     0.295882481  0.545900528  0.752704994
     0.795882439  0.045900498  0.752704994
     0.795882481  0.545900528  0.752704994
     0.775811562  0.521372088  0.550012414
     0.504639175  0.977754257  0.554881308
     0.455181193  0.482973533  0.554431022
     0.002444840  0.015663209  0.552900443
     0.037517111  0.493181916  0.556250417
     0.248376000  0.246141861  0.556355357
     0.233462677  0.767930337  0.552019590
     0.743953516  0.223641460  0.555114997
     0.715566821  0.794318840  0.547666547
     0.999482230  0.991835877  0.654896734
     0.004528973  0.501425168  0.656061396
     0.498006582  0.007834158  0.655517708
     0.499135752  0.502321198  0.654402922
     0.258161371  0.238393930  0.656260533
     0.247032358  0.749564815  0.654115511
     0.740794517  0.254566183  0.655498600
     0.753566461  0.751820386  0.654030716
     0.143191373  0.108034145  0.609077511
     0.143837584  0.609919907  0.610144131
     0.645601156  0.106922984  0.609301189
     0.611130699  0.638039383  0.613635369
     0.363729408  0.385723068  0.613348690
     0.362976911  0.886564136  0.606859844
     0.890584453  0.360443132  0.615847115
     0.865730832  0.886096876  0.607733004
     0.118892615  0.364044991  0.613562539
     0.118696211  0.876491654  0.607501940
     0.615467893  0.369367792  0.606617241
     0.620512107  0.868428970  0.612195323
     0.396407066  0.141999620  0.606068609
     0.378000419  0.635385770  0.606350342
     0.886894722  0.137359889  0.613829316
     0.912932040  0.661619523  0.613598313
     0.000000000  0.000000000  0.754927972
     0.000000000  0.500000000  0.754927972
     0.500000000  0.000000000  0.754927972
     0.499999989  0.500000000  0.754927972
     0.250000496  0.250000000  0.754939022
     0.250000511  0.749999974  0.754939022
     0.750000470  0.250000000  0.754939022
     0.750000458  0.749999974  0.754939022
     0.135790500  0.114209997  0.704782994
     0.135790502  0.614209984  0.704782994
     0.635790447  0.114209997  0.704782994
     0.635790488  0.614209984  0.704782994
     0.364209516  0.385789989  0.704782994
     0.364209505  0.885789963  0.704782994
     0.864209542  0.385789989  0.704782994
     0.864209531  0.885789963  0.704782994
     0.114217990  0.364218986  0.704780979
     0.114217992  0.864218986  0.704780979
     0.614218004  0.364218986  0.704780979
     0.614217992  0.864218986  0.704780979
     0.385782012  0.135781489  0.704782017
     0.385782001  0.635781489  0.704782017
     0.885781985  0.135781489  0.704782017
     0.885782027  0.635781489  0.704782017
     0.134667000  0.115332001  0.801256025
     0.134666989  0.615331988  0.801256025
     0.634666987  0.115332001  0.801256025
     0.634666976  0.615331988  0.801256025
     0.365333002  0.384667985  0.801256025
     0.365332990  0.884667959  0.801256025
     0.865332949  0.384667985  0.801256025
     0.865332938  0.884667959  0.801256025
     0.115328503  0.365337004  0.801264999
     0.115328505  0.865336978  0.801264999
     0.615328503  0.365337004  0.801264999
     0.615328492  0.865336978  0.801264999
     0.384671513  0.134662996  0.801264999
     0.384671501  0.634662970  0.801264999
     0.884671486  0.134662996  0.801264999
     0.884671528  0.634662970  0.801264999
     0.998451246  0.007817602  0.604957913
     0.008114882  0.503827517  0.605394951
     0.505147669  0.994219656  0.604800655
     0.493862490  0.499283746  0.603043284
     0.252783824  0.250098309  0.606288868
     0.241875621  0.757238063  0.603510114
     0.750748040  0.254764042  0.606162072
     0.749526906  0.755391622  0.604324058
     0.000000500  0.000000500  0.704828963
     0.000000500  0.500000475  0.704828963
     0.500000475  0.000000500  0.704828963
     0.500000464  0.500000475  0.704828963
     0.249999994  0.249999472  0.704824995
     0.250000010  0.749999498  0.704824995
     0.749999994  0.249999472  0.704824995
     0.749999983  0.749999498  0.704824995
     0.000000000  0.000000000  0.807317968
     0.000000000  0.500000000  0.807317968
     0.500000000  0.000000000  0.807317968
     0.499999989  0.500000000  0.807317968
     0.249999994  0.250000000  0.807317968
     0.250000010  0.749999974  0.807317968
     0.749999994  0.250000000  0.807317968
     0.749999983  0.749999974  0.807317968

  ion indices of the primitive-cell ions
   primitive index   ion index
                 1           1
                 2           2
                 3           3
                 4           4
                 5           5
                 6           6
                 7           7
                 8           8
                 9           9
                10          10
                11          11
                12          12
                13          13
                14          14
                15          15
                16          16
                17          17
                18          18
                19          19
                20          20
                21          21
                22          22
                23          23
                24          24
                25          25
                26          26
                27          27
                28          28
                29          29
                30          30
                31          31
                32          32
                33          33
                34          34
                35          35
                36          36
                37          37
                38          38
                39          39
                40          40
                41          41
                42          42
                43          43
                44          44
                45          45
                46          46
                47          47
                48          48
                49          49
                50          50
                51          51
                52          52
                53          53
                54          54
                55          55
                56          56
                57          57
                58          58
                59          59
                60          60
                61          61
                62          62
                63          63
                64          64
                65          65
                66          66
                67          67
                68          68
                69          69
                70          70
                71          71
                72          72
                73          73
                74          74
                75          75
                76          76
                77          77
                78          78
                79          79
                80          80
                81          81
                82          82
                83          83
                84          84
                85          85
                86          86
                87          87
                88          88
                89          89
                90          90
                91          91
                92          92
                93          93
                94          94
                95          95
                96          96
                97          97
                98          98
                99          99
               100         100
               101         101
               102         102
               103         103
               104         104
               105         105
               106         106
               107         107
               108         108
               109         109
               110         110
               111         111
               112         112
               113         113
               114         114
               115         115
               116         116
               117         117
               118         118
               119         119
               120         120
               121         121
               122         122
               123         123
               124         124
               125         125
               126         126
               127         127
               128         128
               129         129
               130         130
               131         131
               132         132
               133         133
               134         134
               135         135
               136         136
               137         137
               138         138
               139         139
               140         140
               141         141
               142         142
               143         143
               144         144
               145         145
               146         146
               147         147
               148         148
               149         149
               150         150
               151         151
               152         152
               153         153
               154         154
               155         155
               156         156
               157         157
               158         158
               159         159
               160         160
               161         161
               162         162
               163         163
               164         164
               165         165
               166         166
               167         167
               168         168
               169         169
               170         170
               171         171
               172         172
               173         173
               174         174
               175         175
               176         176
               177         177
               178         178
               179         179
               180         180
               181         181
               182         182
               183         183
               184         184
               185         185
               186         186
               187         187
               188         188
               189         189
               190         190
               191         191
               192         192
               193         193
               194         194
               195         195
               196         196
               197         197
               198         198
               199         199
               200         200
               201         201
               202         202
               203         203
               204         204
               205         205
               206         206
               207         207
               208         208
               209         209
               210         210
               211         211
               212         212
               213         213
               214         214
               215         215
               216         216
               217         217
               218         218
               219         219
               220         220
               221         221
               222         222
               223         223
               224         224
               225         225
               226         226
               227         227
               228         228
               229         229
               230         230
               231         231
               232         232
               233         233
               234         234
               235         235
               236         236
               237         237
               238         238
               239         239
               240         240
               241         241
               242         242
               243         243
               244         244
               245         245
               246         246
               247         247
               248         248
               249         249
               250         250
               251         251
               252         252
               253         253
               254         254
               255         255
               256         256
               257         257
               258         258
               259         259
               260         260
               261         261
               262         262
               263         263
               264         264
               265         265
               266         266
               267         267
               268         268
               269         269
               270         270
               271         271
               272         272
               273         273
               274         274
               275         275
               276         276
               277         277
               278         278
               279         279
               280         280
               281         281
               282         282
               283         283
               284         284
               285         285
               286         286
               287         287
               288         288
               289         289
               290         290
               291         291
               292         292
               293         293
               294         294
               295         295
               296         296
               297         297
               298         298
               299         299
               300         300
               301         301
               302         302
               303         303
               304         304
               305         305
               306         306
               307         307
               308         308
               309         309
               310         310
               311         311
               312         312
               313         313
               314         314
               315         315
               316         316
               317         317
               318         318
               319         319
               320         320
               321         321
               322         322
               323         323
               324         324
               325         325

----------------------------------------------------------------------------------------

 
 
 KPOINTS: Automatic Mesh                          

Automatic generation of k-mesh.
 Grid dimensions read from file:
 generate k-points for:    3    3    1

 Generating k-lattice:

  Cartesian coordinates                     Fractional coordinates (reciprocal lattice)
     0.018456177  0.000005026 -0.000000000     0.333333333  0.000000000  0.000000000
     0.000000000  0.018454135  0.000000000     0.000000000  0.333333333  0.000000000
     0.000000000 -0.000000000  0.016003201     0.000000000  0.000000000  1.000000000

  Length of vectors
     0.018456178  0.018454135  0.016003201

  Shift w.r.t. Gamma in fractional coordinates (k-lattice)
     0.000000000  0.000000000  0.000000000

 
 Subroutine IBZKPT returns following result:
 ===========================================
 
 Found      5 irreducible k-points:
 
 Following reciprocal coordinates:
            Coordinates               Weight
  0.000000  0.000000  0.000000      1.000000
  0.333333  0.000000  0.000000      2.000000
  0.000000  0.333333  0.000000      2.000000
  0.333333  0.333333  0.000000      2.000000
 -0.333333  0.333333  0.000000      2.000000
 
 Following cartesian coordinates:
            Coordinates               Weight
  0.000000  0.000000  0.000000      1.000000
  0.018456  0.000005  0.000000      2.000000
  0.000000  0.018454  0.000000      2.000000
  0.018456  0.018459  0.000000      2.000000
 -0.018456  0.018449  0.000000      2.000000
 


--------------------------------------------------------------------------------------------------------




 Dimension of arrays:
   k-points           NKPTS =      5   k-points in BZ     NKDIM =      5   number of bands    NBANDS=    732
   number of dos      NEDOS =    301   number of ions     NIONS =    325
   non local maximal  LDIM  =      5   non local SUM 2l+1 LMDIM =     13
   total plane-waves  NPLWV = ******
   max r-space proj   IRMAX =   3336   max aug-charges    IRDMAX=  19845
   dimension x,y,z NGX =   100 NGY =  100 NGZ =  350
   dimension x,y,z NGXF=   200 NGYF=  200 NGZF=  700
   support grid    NGXF=   200 NGYF=  200 NGZF=  700
   ions per type =             143  39  47  72  24
   NGX,Y,Z   is equivalent  to a cutoff of   9.20,  9.20,  9.31 a.u.
   NGXF,Y,Z  is equivalent  to a cutoff of  18.41, 18.41, 18.62 a.u.

 SYSTEM =  PSC                                     
 POSCAR =   H  C  N  I Pb                          

 Startparameter for this run:
   NWRITE =      2    write-flag & timer
   PREC   = normal    normal or accurate (medium, high low for compatibility)
   ISTART =      0    job   : 0-new  1-cont  2-samecut
   ICHARG =      1    charge: 1-file 2-atom 10-const
   ISPIN  =      1    spin polarized calculation?
   LNONCOLLINEAR =      F non collinear calculations
   LSORBIT =      F    spin-orbit coupling
   INIWAV =      1    electr: 0-lowe 1-rand  2-diag
   LASPH  =      F    aspherical Exc in radial PAW
 Electronic Relaxation 1
   ENCUT  =  500.0 eV  36.75 Ry    6.06 a.u.  32.93 32.93113.93*2*pi/ulx,y,z
   ENINI  =  500.0     initial cutoff
   ENAUG  =  644.9 eV  augmentation charge cutoff
   NELM   =    600;   NELMIN=  2; NELMDL=  0     # of ELM steps 
   EDIFF  = 0.1E-03   stopping-criterion for ELM
   LREAL  =      T    real-space projection
   NLSPLINE    = F    spline interpolate recip. space projectors
   LCOMPAT=      F    compatible to vasp.4.4
   GGA_COMPAT  = F    GGA compatible to vasp.4.4-vasp.4.6
   LMAXPAW     = -100 max onsite density
   LMAXMIX     =    2 max onsite mixed and CHGCAR
   VOSKOWN=      0    Vosko Wilk Nusair interpolation
   ROPT   =   -0.00050  -0.00050  -0.00050  -0.00050
   ROPT   =   -0.00050
 Ionic relaxation
   EDIFFG = 0.1E-02   stopping-criterion for IOM
   NSW    =      0    number of steps for IOM
   NBLOCK =      1;   KBLOCK =      1    inner block; outer block 
   IBRION =     -1    ionic relax: 0-MD 1-quasi-New 2-CG
   NFREE  =      0    steps in history (QN), initial steepest desc. (CG)
   ISIF   =      2    stress and relaxation
   IWAVPR =     10    prediction:  0-non 1-charg 2-wave 3-comb
   ISYM   =      0    0-nonsym 1-usesym 2-fastsym
   LCORR  =      T    Harris-Foulkes like correction to forces

   POTIM  = 0.5000    time-step for ionic-motion
   TEIN   =    0.0    initial temperature
   TEBEG  =    0.0;   TEEND  =   0.0 temperature during run
   SMASS  =  -3.00    Nose mass-parameter (am)
   estimated Nose-frequenzy (Omega)   =  0.10E-29 period in steps = 0.13E+47 mass=  -0.745E-26a.u.
   SCALEE = 1.0000    scale energy and forces
   NPACO  =    256;   APACO  = 16.0  distance and # of slots for P.C.
   PSTRESS=    0.0 pullay stress

  Mass of Ions in am
   POMASS =   1.00 12.01 14.00126.90207.20
  Ionic Valenz
   ZVAL   =   1.00  4.00  5.00  7.00  4.00
  Atomic Wigner-Seitz radii
   RWIGS  =  -1.00 -1.00 -1.00 -1.00 -1.00
  virtual crystal weights 
   VCA    =   1.00  1.00  1.00  1.00  1.00
   NELECT =    1134.0000    total number of electrons
   NUPDOWN=      -1.0000    fix difference up-down

 DOS related values:
   EMIN   =  10.00;   EMAX   =-10.00  energy-range for DOS
   EFERMI =   0.00
   ISMEAR =     0;   SIGMA  =   0.05  broadening in eV -4-tet -1-fermi 0-gaus

 Electronic relaxation 2 (details)
   IALGO  =     38    algorithm
   LDIAG  =      T    sub-space diagonalisation (order eigenvalues)
   LSUBROT=      F    optimize rotation matrix (better conditioning)
   TURBO    =      0    0=normal 1=particle mesh
   IRESTART =      0    0=no restart 2=restart with 2 vectors
   NREBOOT  =      0    no. of reboots
   NMIN     =      0    reboot dimension
   EREF     =   0.00    reference energy to select bands
   IMIX   =      4    mixing-type and parameters
     AMIX     =   0.40;   BMIX     =  0.01
     AMIX_MAG =   1.60;   BMIX_MAG =  0.01
     AMIN     =   0.01
     WC   =   100.;   INIMIX=   1;  MIXPRE=   1;  MAXMIX= -45

 Intra band minimization:
   WEIMIN = 0.0000     energy-eigenvalue tresh-hold
   EBREAK =  0.34E-07  absolut break condition
   DEPER  =   0.30     relativ break condition  

   TIME   =   0.40     timestep for ELM

  volume/ion in A,a.u.               =      62.72       423.28
  Fermi-wavevector in a.u.,A,eV,Ry     =   0.624944  1.180972  5.313816  0.390554
  Thomas-Fermi vector in A             =   1.685677
 
 Write flags
   LWAVE        =      F    write WAVECAR
   LDOWNSAMPLE  =      F    k-point downsampling of WAVECAR
   LCHARG       =      T    write CHGCAR
   LVTOT        =      T    write LOCPOT, total local potential
   LVHAR        =      F    write LOCPOT, Hartree potential only
   LELF         =      F    write electronic localiz. function (ELF)
   LORBIT       =      0    0 simple, 1 ext, 2 COOP (PROOUT), +10 PAW based schemes


 Dipole corrections
   LMONO  =      F    monopole corrections only (constant potential shift)
   LDIPOL =      T    correct potential (dipole corrections)
   IDIPOL =      3    1-x, 2-y, 3-z, 4-all directions 
   EPSILON=  1.0000000 bulk dielectric constant

 Exchange correlation treatment:
   GGA     =    --    GGA type
   LEXCH   =     8    internal setting for exchange type
   VOSKOWN=      0    Vosko Wilk Nusair interpolation
   LHFCALC =     F    Hartree Fock is set to
   LHFONE  =     F    Hartree Fock one center treatment
   AEXX    =    0.0000 exact exchange contribution

 Linear response parameters
   LEPSILON=     F    determine dielectric tensor
   LRPA    =     F    only Hartree local field effects (RPA)
   LNABLA  =     F    use nabla operator in PAW spheres
   LVEL    =     F    velocity operator in full k-point grid
   LINTERFAST=   F  fast interpolation
   KINTER  =     0    interpolate to denser k-point grid
   CSHIFT  =0.1000    complex shift for real part using Kramers Kronig
   OMEGAMAX=  -1.0    maximum frequency
   DEG_THRESHOLD= 0.2000000E-02 threshold for treating states as degnerate
   RTIME   =   -0.100 relaxation time in fs
  (WPLASMAI=    0.000 imaginary part of plasma frequency in eV, 0.658/RTIME)
   DFIELD  = 0.0000000 0.0000000 0.0000000 field for delta impulse in time
 
 Orbital magnetization related:
   ORBITALMAG=     F  switch on orbital magnetization
   LCHIMAG   =     F  perturbation theory with respect to B field
   DQ        =  0.001000  dq finite difference perturbation B field
   LLRAUG    =     F  two centre corrections for induced B field



--------------------------------------------------------------------------------------------------------


 Static calculation
 charge density and potential will be updated during run
 non-spin polarized calculation
 Variant of blocked Davidson
 Davidson routine will perform the subspace rotation
 perform sub-space diagonalisation
    after iterative eigenvector-optimisation
 modified Broyden-mixing scheme, WC =      100.0
 initial mixing is a Kerker type mixing with AMIX =  0.4000 and BMIX =      0.0100
 Hartree-type preconditioning will be used
 using additional bands           165
 real space projection scheme for non local part
[...]
     13.54561      0.00000     45.35368         0.003291     -0.004606      0.012565
     13.54315      9.03140     45.35368        -0.009167     -0.002821      0.012224
     14.30823      9.19831     32.30428        -0.050845      0.045383     -0.072562
     15.76022      9.12116     33.29259         0.337936     -0.035614     -0.034317
     13.63416     11.33305     33.53263        -0.172958      0.050988     -0.258092
     13.85624     11.27810     35.26779        -0.089999      0.237379      0.023364
     12.33387      8.19103     34.62141        -0.161758     -0.606975      0.185358
     12.08573      9.86103     35.08491        -0.071727      0.075872      0.095022
     14.42119      7.77244     35.57743        -0.024128     -0.498400      0.002472
     15.62917      9.03673     35.66444        -0.081040      0.068231     -0.048703
     15.54661      6.84803     33.76501         0.094176     -0.057370      0.139273
     13.83475      6.75485     33.44041        -0.299176      0.030373      0.193254
     14.05369      6.84524     31.14120         0.169670      0.033499     -0.054496
     15.69087      7.50461     31.15980        -0.057390     -0.169301      0.075464
     16.18329     11.08623     33.22713        -0.100216     -0.014508      0.111438
     16.28981     11.01296     35.01061         0.340763     -0.077184      0.079370
     15.70516     12.46669     34.21471        -0.128726      0.165660      0.013575
     10.74164      9.40549     33.06964         0.143004     -0.225723      0.149218
     12.17689      8.77795     32.19635        -0.118990     -0.029443     -0.051129
     12.01738     10.49938     32.62364         0.122681      0.232600     -0.160842
     12.92658      8.82163     37.16926         0.313416      0.286602     -0.253881
     13.77013     10.40487     36.98304        -0.091531      0.254924      0.084726
     14.56869      9.06026     37.76285         0.164407     -0.062864      0.139922
     14.99822      4.71127     32.20667        -0.184297     -0.237883      0.257206
     15.31098      5.02584     30.52898        -0.015305     -0.148228     -0.236966
     16.85837      3.04372     31.26289         0.318380      0.394351      0.169028
     17.57241      7.17447     32.24456        -0.089305      0.512967      0.110854
      1.23983      2.59688     31.44716        -0.070822      0.012568     -0.081838
      1.94957      6.72009     32.41540        -0.264897     -0.069350      0.077389
      2.81787      4.44020     31.99667         0.023147      0.024010      0.024344
     17.99127      4.09875     35.06986        -0.128752      0.118972      0.153292
      0.58959     13.94252     35.12877         0.031174      0.089737      0.208239
      9.41947      4.85168     35.07608        -0.138182     -0.299855      0.460387
      8.95924     13.87390     34.86742         0.160862      0.293912     -0.148357
      4.23222      9.25883     34.86882         0.140684     -0.099216      0.048982
      4.76036     17.92472     34.78365        -0.077723     -0.086481      0.060724
     13.95520     17.76834     35.07643         0.088764      0.108430      0.201614
      0.15931      4.36023     40.73476        -0.076208      0.120091      0.568878
      0.31757     13.78692     40.80229         0.201966     -0.972349      0.616001
      9.14429      4.62626     40.59389         0.119439     -0.536066      0.370998
      8.83978     13.69911     40.59560         0.040419      0.024418      0.601573
      4.47039      8.94824     40.59820        -0.665103     -1.007609      0.357609
      4.53288     17.96406     40.55934        -0.058146      0.041220      0.666860
     13.44083      9.28747     40.64916        -0.166236      0.055750     -0.390697
     13.52189     18.04474     40.63461        -0.786466     -0.764543      0.126277
      9.02897      4.51561     46.44552         0.011776      0.005136      0.035107
      9.02651     13.54701     46.44552         0.020572     -0.003988      0.053332
     18.05937      4.51561     46.44552         0.002610      0.015653      0.064323
     18.05691     13.54701     46.44552         0.023343     -0.002726      0.035250
      4.51521      0.00002     46.44421        -0.002949     -0.004414      0.070798
      4.51275      9.03142     46.44421        -0.011030     -0.009196      0.047197
     13.54561      0.00002     46.44421        -0.001269     -0.002562      0.044886
     13.54315      9.03142     46.44421        -0.023146     -0.021459      0.038958
     17.03741      5.16809     31.74091        -0.116670     -0.881296     -0.216154
     17.55667      3.86420     31.53087        -0.678837     -0.089020     -0.209819
     17.93089      6.17684     32.06366         0.459670     -0.137521      0.131639
      0.85735      3.60820     31.60174         0.227571     -0.134681      0.213801
      1.24377      5.91400     32.17966         0.307022      0.073562     -0.212250
      1.74905      4.63796     31.92801        -0.194768      0.080859      0.036112
     14.74121      8.75264     33.20649        -0.316336      0.262096     -0.043187
     14.26029     10.92338     34.31868         0.140342     -0.124665      0.062882
     12.49566      9.21075     34.30743         0.106133      0.181252     -0.089696
     14.54522      8.84391     35.67319         0.179031      0.049257     -0.074121
     14.75649      7.23569     33.11250         0.261688      0.026198      0.272905
     15.02145      6.78535     31.67438        -0.315782      0.564070     -0.309818
     15.69841     11.37356     34.17077        -0.087404     -0.096341      0.020486
     11.83642      9.48014     32.96613         0.130122      0.058731      0.097077
     13.89212      9.32571     36.94931        -0.373486     -0.327092     -0.083192
     15.55234      5.37185     31.53859         0.268083      0.149960     -0.190129
      1.04826      4.33883     35.71941         0.110793     -0.110710     -0.521296
      0.65910     12.77588     35.72762        -0.319139      0.178429     -0.089894
     10.01937      3.75608     35.50896        -0.698981     -0.024412      0.254247
      9.92950     13.12610     35.31975         0.063332     -0.240477      0.322587
      8.18810      5.20408     35.39731        -0.084717     -0.482606      0.200426
      7.71175     13.76774     35.22134        -0.843314     -0.983063      0.718384
     16.80339      4.54444     35.44054         0.168697     -0.203403     -0.185079
     17.68888     14.82642     35.30749        -0.113111     -0.321116      0.060957
      4.48807      8.15327     35.54066        -0.138517     -0.057815     -0.254274
      3.51187      0.13069     35.11487         0.997732     -0.069699     -0.321443
     12.66509     17.72100     35.32926         0.512543      0.226623      0.039759
      5.80924      0.54356     35.20014        -0.489025     -0.261326     -0.212130
      4.83956     10.40940     35.07169         0.177537     -0.714526      0.192951
     14.76738      0.66014     35.50178        -0.780172     -0.357512     -0.250526
      1.05366      3.45618     41.05130         0.115446     -0.143913      0.028563
      0.95383     12.72571     41.27728        -0.594932      0.428065     -0.098208
      9.82469      3.59270     41.04725        -0.186162      0.152983      0.244755
      9.54748     12.92661     41.38511        -0.223879      0.125623      1.219002
      3.85217      8.02399     41.31564         0.910021      1.042606      0.878702
      3.56156     17.23757     41.07494         0.925342      0.904467      1.027802
     12.69620      8.35803     41.18793        -0.658331     -0.633019     -0.176523
     12.65346     17.27473     41.26170         0.693340      0.860322      1.024647
      8.25347      5.30060     41.27151        -0.289624      0.053159      0.669213
      8.00458     14.62269     40.99651        -0.202446      0.170520      0.422512
     17.50778      5.05891     41.60450         0.415514     -0.437186     -0.666932
     17.25995     14.27652     41.27780        -0.098313      0.063712      0.128640
      5.36835      0.69632     41.21152        -1.731706     -1.175983      1.085623
      5.25954      9.87566     41.05904         0.369798      0.356916      0.629302
     14.31126      0.85849     41.18727         0.490955      0.624741      0.647798
     14.41613      9.92425     41.23615         0.500643      0.320910      0.184130
      0.82731      3.68697     47.03596         0.023742     -0.031534     -0.107722
      0.82485     12.71837     47.03596         0.013092     -0.014497     -0.083124
      9.85771      3.68697     47.03596         0.021159     -0.023436     -0.089639
      9.85525     12.71837     47.03596         0.013320     -0.011830     -0.086766
      3.68432      8.20234     47.03465        -0.004028     -0.005691     -0.074732
      3.68186     17.23373     47.03465        -0.004747     -0.002761     -0.075789
     12.71472      8.20234     47.03465         0.004558      0.002952     -0.071589
     12.71226     17.23373     47.03465        -0.009679     -0.011618     -0.072962
      8.20068      5.34457     47.03603        -0.020091      0.018859     -0.092468
      8.19822     14.37597     47.03603        -0.025966      0.021974     -0.097110
     17.23108      5.34457     47.03603        -0.013231      0.008134     -0.108673
     17.22862     14.37597     47.03603        -0.025770      0.019681     -0.080432
      5.34365      0.82909     47.03465         0.009753      0.010835     -0.088307
      5.34119      9.86049     47.03465         0.017069      0.017188     -0.068456
     14.37405      0.82909     47.03465         0.012634      0.012962     -0.073923
     14.37159      9.86049     47.03465         0.026707      0.031538     -0.078867
     14.00921      9.41744     34.36890         0.044240      0.063357     -0.215559
      9.10938     17.66098     34.67315         0.073121      0.029420     -0.052006
      8.21856      8.72385     34.64501         0.090111      0.038978     -0.015491
      0.04408      0.28292     34.54937         0.049562     -0.040403     -0.081263
      0.67516      8.90825     34.75870        -0.217173      0.021765     -0.042951
      4.48466      4.44601     34.76525         0.029061     -0.010148     -0.043227
      4.21275     13.87097     34.49432         0.040788      0.067740     -0.072518
     13.43530      4.03959     34.68775        -0.085580     -0.025622     -0.006633
     12.91980     14.34762     34.22231         0.217282     -0.052223      0.236975
     18.04657     17.91533     40.92286        -0.036202     -0.001749     -0.018001
      0.07933      9.05714     40.99564        -0.023212      0.016531     -0.038196
      8.99436      0.14151     40.96166        -0.029956     -0.058287     -0.057634
      9.01232      9.07333     40.89200        -0.036433     -0.007863      0.090956
      4.66143      4.30606     41.00808        -0.001987     -0.019125     -0.077447
      4.45792     13.53924     40.87404         0.046684      0.023085      0.014957
     13.37809      4.59818     40.96047         0.013132     -0.009012      0.009264
     13.60632     13.57998     40.86874         0.004368     -0.002761     -0.057406
      2.58562      1.95140     38.05973         0.059927      0.067117      0.043841
      2.59482     11.01686     38.12638         0.045934     -0.016969     -0.006119
     11.65955      1.93133     38.07371        -0.002219      0.018379      0.012280
     11.03437     11.52478     38.34454         0.152653     -0.153626     -0.254611
      6.56735      6.96724     38.32663         0.030947      0.024754     -0.046085
      6.55129     16.01383     37.92115         0.030694      0.026345      0.055223
     16.08290      6.51061     38.48275        -0.098263      0.179423     -0.265172
     15.63143     16.00539     37.97572        -0.029926      0.037199      0.010653
      2.14551      6.57567     38.33999         0.044518      0.023045     -0.035500
      2.13944     15.83189     37.96128        -0.010678     -0.052383     -0.015240
     11.11403      6.67182     37.90599         0.036086      0.021002     -0.031313
     11.20267     15.68626     38.25455         0.023275     -0.058488      0.023938
      7.15873      2.56491     37.87171         0.051443      0.016105      0.012939
      6.82386     11.47685     37.88932         0.024249     -0.001079      0.039705
     16.01735      2.48110     38.35666        -0.070428     -0.024199     -0.010790
     16.48503     11.95070     38.34222        -0.222926     -0.235220     -0.233206
      0.00000      0.00000     47.17356         0.001481      0.004605      0.406964
     -0.00246      9.03140     47.17356        -0.004292      0.001281      0.533105
      9.03040      0.00000     47.17356        -0.002504     -0.001707      0.489254
      9.02794      9.03140     47.17356        -0.002578      0.002579      0.447774
      4.51398      4.51570     47.17425        -0.000945     -0.007470      0.515544
      4.51152     13.54710     47.17425         0.003104      0.003844      0.384496
     13.54438      4.51570     47.17425         0.002527     -0.002232      0.442599
     13.54192     13.54710     47.17425         0.002081     -0.001569      0.312102
      2.45192      2.06295     44.04013         0.022190     -0.068775      0.022766
      2.44946     11.09435     44.04013         0.068157     -0.042039      0.073936
     11.48232      2.06295     44.04013        -0.006745     -0.035308     -0.028125
     11.47986     11.09435     44.04013         0.010284      0.035599     -0.023995
      6.57602      6.96845     44.04013        -0.053336      0.006047     -0.000814
      6.57356     15.99985     44.04013        -0.007523      0.006410     -0.009012
     15.60642      6.96845     44.04013        -0.058517      0.040915     -0.021947
     15.60396     15.99985     44.04013        -0.039092      0.013547      0.015677
      2.06108      6.57881     44.04000        -0.001751     -0.067066      0.059633
      2.05862     15.61021     44.04000         0.038780      0.052234      0.014027
     11.09148      6.57881     44.04000         0.022436      0.022927     -0.001866
     11.08902     15.61021     44.04000        -0.027826     -0.032815      0.021332
      6.96686      2.45259     44.04007         0.042292      0.011032      0.022506
      6.96440     11.48399     44.04007        -0.039470     -0.003946     -0.055205
     15.99726      2.45259     44.04007         0.001314     -0.010842     -0.013017
     15.99481     11.48399     44.04007         0.048705      0.083784     -0.017473
      2.43163      2.08322     50.06849        -0.001854     -0.021524      0.021189
      2.42917     11.11462     50.06849         0.020018      0.001142      0.024316
     11.46203      2.08322     50.06849         0.011058     -0.010389      0.023780
     11.45957     11.11462     50.06849         0.021673      0.002096      0.023450
      6.59631      6.94818     50.06849        -0.004609      0.015735      0.024266
      6.59385     15.97958     50.06849        -0.015108      0.005187      0.022480
     15.62671      6.94818     50.06849        -0.014701      0.004549      0.022734
     15.62425     15.97958     50.06849        -0.016028      0.005455      0.023406
      2.08113      6.59901     50.06905        -0.011385     -0.009414      0.023800
      2.07867     15.63041     50.06905        -0.010546     -0.008070      0.022863
     11.11153      6.59901     50.06905        -0.009557     -0.009283      0.024559
     11.10907     15.63041     50.06905         0.002677     -0.022547      0.023059
      6.94681      2.43239     50.06905         0.014706      0.003048      0.023122
      6.94435     11.46379     50.06905         0.005678      0.016654      0.024411
     15.97721      2.43239     50.06905         0.016091      0.004381      0.023150
     15.97475     11.46379     50.06905        -0.006747      0.027234      0.022945
     18.03279      0.14121     37.80231        -0.033393     -0.047814      0.009729
      0.14408      9.10054     37.82962         0.000965     -0.011694      0.056902
      9.11848     17.95839     37.79248        -0.110294      0.003845     -0.062617
      8.91710      9.01846     37.68267         0.048504      0.015531      0.041297
      4.56425      4.51748     37.88548        -0.023459      0.011156     -0.011073
      4.36474     13.67784     37.71184         0.043100      0.006648      0.040848
     13.55786      4.60175     37.87755         0.022050     -0.030852      0.026231
     13.53334     13.64449     37.76270         0.002265      0.049003     -0.048132
      0.00001      0.00001     44.04300        -0.056254     -0.100878      0.167600
     -0.00245      9.03141     44.04300         0.096268     -0.068798      0.177049
      9.03041      0.00001     44.04300         0.021347     -0.009372      0.173102
      9.02795      9.03141     44.04300         0.064290     -0.023112     -0.004502
      4.51397      4.51569     44.04275         0.001572      0.076043      0.264584
      4.51151     13.54709     44.04275        -0.093301     -0.021287      0.074261
     13.54437      4.51569     44.04275        -0.039550      0.047861      0.202078
     13.54191     13.54709     44.04275        -0.086391      0.032557      0.148663
      0.00000      0.00000     50.44728         0.007149      0.011345     -0.624687
     -0.00246      9.03140     50.44728         0.006794     -0.011937     -0.658699
      9.03040      0.00000     50.44728        -0.005745      0.014556     -0.646000
      9.02794      9.03140     50.44728        -0.008034     -0.012226     -0.639181
      4.51397      4.51570     50.44728         0.002002      0.007428     -0.652235
      4.51151     13.54710     50.44728         0.000847     -0.007246     -0.620519
     13.54437      4.51570     50.44728        -0.002339      0.006485     -0.635606
     13.54191     13.54710     50.44728         0.000152     -0.005986     -0.600574
 -----------------------------------------------------------------------------------
    total drift:                               -0.042880     -0.113792      0.859958


--------------------------------------------------------------------------------------------------------



  FREE ENERGIE OF THE ION-ELECTRON SYSTEM (eV)
  ---------------------------------------------------
  free  energy   TOTEN  =     -1574.96322106 eV

  energy  without entropy=    -1574.96322106  energy(sigma->0) =    -1574.96322106
 


--------------------------------------------------------------------------------------------------------


    POTLOK:  cpu time    0.4999: real time    0.4998


--------------------------------------------------------------------------------------------------------


     LOOP+:  cpu time  322.9578: real time  323.5173
 vacuum level on the upper side and lower side of the slab         2.297         1.620
    4ORBIT:  cpu time    0.0000: real time    0.0000

 total amount of memory used by VASP MPI-rank0  8653561. kBytes
=======================================================================

   base      :      30000. kBytes
   nonlr-proj:      53599. kBytes
   fftplans  :     249280. kBytes
   grid      :     701440. kBytes
   one-center:       2636. kBytes
   wavefun   :    7616606. kBytes
 
  
  
 General timing and accounting informations for this job:
 ========================================================
  
                  Total CPU time used (sec):      536.093
                            User time (sec):      430.669
                          System time (sec):      105.424
                         Elapsed time (sec):      538.093
  
                   Maximum memory used (kb):    10338256.
                   Average memory used (kb):          N/A
  
                          Minor page faults:      3817802
                          Major page faults:           12
                 Voluntary context switches:        11548
