 vasp.6.2.1 16May21 (build Nov 15 2021 14:57:28) complex                         
 executed on             LinuxPGI date 2023.07.30  17:17:24
 running on    4 total cores
 distrk:  each k-point on    4 cores,    1 groups
 distr:  one band on NCORE=   1 cores,    4 groups


--------------------------------------------------------------------------------------------------------


 INCAR:
   SYSTEM = PSC
   ISTART = 1
   ICHARG = 1
   PREC = Normal
   ENCUT = 500
   GGA_COMPAT = F
   NELM = 600
   ISYM = 0
   LREAL = Auto
   ISMEAR = 0
   SIGMA = 0.05
   AMIN = 0.01
   BMIX = 0.01
   LVTOT = T
   LWAVE = F
   LDIPOL = T
   IDIPOL = 3
   LVDW = T
   IVDW = 12

 POTCAR:    PAW_PBE H 15Jun2001                   
 POTCAR:    PAW_PBE C 08Apr2002                   
 POTCAR:    PAW_PBE N 08Apr2002                   
 POTCAR:    PAW_PBE I 08Apr2002                   
 POTCAR:    PAW_PBE Pb 08Apr2002                  
 WARNING: For LVTOT=.TRUE., VASP.5.x writes the TOTAL local potential to the
     file LOCPOT. If you want only the Hartree contributions, use LVHAR=.TRUE.
     instead. 

 POTCAR:    PAW_PBE H 15Jun2001                   
   SHA256 =  030f79b5d3ab3cf0e668861823c8fb652ff669f3e15e46930bd03bfd63a607b6 H/POTCAR              
   COPYR  = (c) Copyright 15Jun2001 Georg Kresse                                                    
   COPYR  = This file is part of the software VASP. Any use, copying, and all other rights are regul
   COPYR  = If you do not have a valid VASP license, you may not use, copy or distribute this file. 
   VRHFIN =H: ultrasoft test                                                                        
   LEXCH  = PE                                                                                      
   EATOM  =    12.4884 eV,    0.9179 Ry                                                             
                                                                                                    
   TITEL  = PAW_PBE H 15Jun2001                                                                     
   LULTRA =        F    use ultrasoft PP ?                                                          
   IUNSCR =        0    unscreen: 0-lin 1-nonlin 2-no                                               
   RPACOR =    0.000    partial core radius                                                         
   POMASS =    1.000; ZVAL   =    1.000    mass and valenz                                          
   RCORE  =    1.100    outmost cutoff radius                                                       
   RWIGS  =    0.700; RWIGS  =    0.370    wigner-seitz radius (au A)                               
   ENMAX  =  250.000; ENMIN  =  200.000 eV                                                          
   RCLOC  =    0.701    cutoff for local pot                                                        
   LCOR   =        T    correct aug charges                                                         
   LPAW   =        T    paw PP                                                                      
   EAUG   =  400.000                                                                                
   RMAX   =    1.123    core radius for proj-oper                                                   
   RAUG   =    1.200    factor for augmentation sphere                                              
   RDEP   =    1.112    radius for radial grids                                                     
   RDEPT  =    0.926    core radius for aug-charge                                                  
                                                                                                    
   Atomic configuration                                                                             
    2 entries                                                                                       
     n  l   j            E        occ.                                                              
     1  0  0.50        -6.4927   1.0000                                                             
     2  1  0.50        -3.4015   0.0000                                                             
   Description                                                                                      
     l       E           TYP  RCUT    TYP  RCUT                                                     
     0     -6.4927494     23  1.100                                                                 
     0      6.8029130     23  1.100                                                                 
     1     -4.0817478     23  1.100                                                                 
  local pseudopotential read in
  atomic valenz-charges read in
  non local Contribution for L=            0  read in
    real space projection operators read in
  non local Contribution for L=            0  read in
    real space projection operators read in
  non local Contribution for L=            1  read in
    real space projection operators read in
    PAW grid and wavefunctions read in
 
   number of l-projection  operators is LMAX  =            3
   number of lm-projection operators is LMMAX =            5
 
 POTCAR:    PAW_PBE C 08Apr2002                   
   SHA256 =  253f7b50bb8d59471dbedb8285d89021f4a42ed1a2c5d38a03a736e69125dd95 C/POTCAR              
   COPYR  = (c) Copyright 08Apr2002 Georg Kresse                                                    
   COPYR  = This file is part of the software VASP. Any use, copying, and all other rights are regul
   COPYR  = If you do not have a valid VASP license, you may not use, copy or distribute this file. 
   VRHFIN =C: s2p2                                                                                  
   LEXCH  = PE                                                                                      
   EATOM  =   147.1560 eV,   10.8157 Ry                                                             
                                                                                                    
   TITEL  = PAW_PBE C 08Apr2002                                                                     
   LULTRA =        F    use ultrasoft PP ?                                                          
   IUNSCR =        1    unscreen: 0-lin 1-nonlin 2-no                                               
   RPACOR =    1.200    partial core radius                                                         
   POMASS =   12.011; ZVAL   =    4.000    mass and valenz                                          
   RCORE  =    1.500    outmost cutoff radius                                                       
   RWIGS  =    1.630; RWIGS  =    0.863    wigner-seitz radius (au A)                               
   ENMAX  =  400.000; ENMIN  =  300.000 eV                                                          
   ICORE  =        2    local potential                                                             
   LCOR   =        T    correct aug charges                                                         
   LPAW   =        T    paw PP                                                                      
   EAUG   =  644.873                                                                                
   DEXC   =    0.000                                                                                
   RMAX   =    1.529    core radius for proj-oper                                                   
   RAUG   =    1.300    factor for augmentation sphere                                              
   RDEP   =    1.501    radius for radial grids                                                     
   RDEPT  =    1.300    core radius for aug-charge                                                  
                                                                                                    
   Atomic configuration                                                                             
    4 entries                                                                                       
     n  l   j            E        occ.                                                              
     1  0  0.50      -273.3789   2.0000                                                             
     2  0  0.50       -13.7508   2.0000                                                             
     2  1  0.50        -5.2854   2.0000                                                             
     3  2  1.50        -5.4423   0.0000                                                             
   Description                                                                                      
     l       E           TYP  RCUT    TYP  RCUT                                                     
     0    -13.7508458     23  1.200                                                                 
     0     -8.2022199     23  1.200                                                                 
     1     -5.2854383     23  1.500                                                                 
     1     34.0145650     23  1.500                                                                 
     2     -5.4423304      7  1.500                                                                 
  local pseudopotential read in
  partial core-charges read in
  partial kinetic energy density read in
  atomic valenz-charges read in
  non local Contribution for L=            0  read in
    real space projection operators read in
  non local Contribution for L=            0  read in
    real space projection operators read in
  non local Contribution for L=            1  read in
    real space projection operators read in
  non local Contribution for L=            1  read in
    real space projection operators read in
    PAW grid and wavefunctions read in
 
   number of l-projection  operators is LMAX  =            4
   number of lm-projection operators is LMMAX =            8
 
 POTCAR:    PAW_PBE N 08Apr2002                   
   SHA256 =  e053789ff3a61a86a1b75d8a110fcc91f86041011e7b0817c7c99e4e8a6349d7 N/POTCAR              
   COPYR  = (c) Copyright 08Apr2002 Georg Kresse                                                    
   COPYR  = This file is part of the software VASP. Any use, copying, and all other rights are regul
   COPYR  = If you do not have a valid VASP license, you may not use, copy or distribute this file. 
   VRHFIN =N: s2p3                                                                                  
   LEXCH  = PE                                                                                      
   EATOM  =   264.5486 eV,   19.4438 Ry                                                             
                                                                                                    
   TITEL  = PAW_PBE N 08Apr2002                                                                     
   LULTRA =        F    use ultrasoft PP ?                                                          
   IUNSCR =        1    unscreen: 0-lin 1-nonlin 2-no                                               
   RPACOR =    1.200    partial core radius                                                         
   POMASS =   14.001; ZVAL   =    5.000    mass and valenz                                          
   RCORE  =    1.500    outmost cutoff radius                                                       
   RWIGS  =    1.400; RWIGS  =    0.741    wigner-seitz radius (au A)                               
   ENMAX  =  400.000; ENMIN  =  300.000 eV                                                          
   ICORE  =        2    local potential                                                             
   LCOR   =        T    correct aug charges                                                         
   LPAW   =        T    paw PP                                                                      
   EAUG   =  627.112                                                                                
   DEXC   =    0.000                                                                                
   RMAX   =    1.529    core radius for proj-oper                                                   
   RAUG   =    1.300    factor for augmentation sphere                                              
   RDEP   =    1.514    radius for radial grids                                                     
   RDEPT  =    1.338    core radius for aug-charge                                                  
                                                                                                    
   Atomic configuration                                                                             
    4 entries                                                                                       
     n  l   j            E        occ.                                                              
     1  0  0.50      -384.7179   2.0000                                                             
     2  0  0.50       -18.5828   2.0000                                                             
     2  1  0.50        -7.0898   3.0000                                                             
     3  2  1.50        -6.8029   0.0000                                                             
   Description                                                                                      
     l       E           TYP  RCUT    TYP  RCUT                                                     
     0    -18.5828119     23  1.200                                                                 
     0    -13.5018863     23  1.200                                                                 
     1     -7.0897853     23  1.500                                                                 
     1      9.5240782     23  1.500                                                                 
     2     -6.8029130      7  1.500                                                                 
  local pseudopotential read in
  partial core-charges read in
  partial kinetic energy density read in
  atomic valenz-charges read in
  non local Contribution for L=            0  read in
    real space projection operators read in
  non local Contribution for L=            0  read in
    real space projection operators read in
  non local Contribution for L=            1  read in
    real space projection operators read in
  non local Contribution for L=            1  read in
    real space projection operators read in
    PAW grid and wavefunctions read in
 
   number of l-projection  operators is LMAX  =            4
   number of lm-projection operators is LMMAX =            8
 
 POTCAR:    PAW_PBE I 08Apr2002                   
   SHA256 =  e40f3f59b681c1fc3e3091736183c4589116986673d2b852a5012aec72758799 I/POTCAR              
   COPYR  = (c) Copyright 08Apr2002 Georg Kresse                                                    
   COPYR  = This file is part of the software VASP. Any use, copying, and all other rights are regul
   COPYR  = If you do not have a valid VASP license, you may not use, copy or distribute this file. 
   VRHFIN =I : s2p5                                                                                 
   LEXCH  = PE                                                                                      
   EATOM  =   315.8678 eV,   23.2156 Ry                                                             
                                                                                                    
   TITEL  = PAW_PBE I 08Apr2002                                                                     
   LULTRA =        F    use ultrasoft PP ?                                                          
   IUNSCR =        1    unscreen: 0-lin 1-nonlin 2-no                                               
   RPACOR =    2.200    partial core radius                                                         
   POMASS =  126.904; ZVAL   =    7.000    mass and valenz                                          
   RCORE  =    2.300    outmost cutoff radius                                                       
   RWIGS  =    2.810; RWIGS  =    1.487    wigner-seitz radius (au A)                               
   ENMAX  =  175.647; ENMIN  =  131.735 eV                                                          
   ICORE  =        3    local potential                                                             
   LCOR   =        T    correct aug charges                                                         
   LPAW   =        T    paw PP                                                                      
   EAUG   =  370.139                                                                                
   DEXC   =    0.000                                                                                
   RMAX   =    2.359    core radius for proj-oper                                                   
   RAUG   =    1.300    factor for augmentation sphere                                              
   RDEP   =    2.392    radius for radial grids                                                     
   RDEPT  =    2.170    core radius for aug-charge                                                  
                                                                                                    
   Atomic configuration                                                                             
   13 entries                                                                                       
     n  l   j            E        occ.                                                              
     1  0  0.50    -32976.3739   2.0000                                                             
     2  0  0.50     -5094.5933   2.0000                                                             
     2  1  1.50     -4572.0131   6.0000                                                             
     3  0  0.50     -1028.2813   2.0000                                                             
     3  1  1.50      -859.0250   6.0000                                                             
     3  2  2.50      -605.7620  10.0000                                                             
     4  0  0.50      -180.5540   2.0000                                                             
     4  1  1.50      -127.5306   6.0000                                                             
     4  2  2.50       -50.2720  10.0000                                                             
     5  0  0.50       -17.4058   2.0000                                                             
     5  1  0.50        -7.0851   5.0000                                                             
     5  2  1.50        -7.0750   0.0000                                                             
     4  3  2.50        -7.0750   0.0000                                                             
   Description                                                                                      
     l       E           TYP  RCUT    TYP  RCUT                                                     
     0    -17.4058016     23  2.300                                                                 
     0    -18.7663842     23  2.300                                                                 
     1     -7.0850686     23  2.300                                                                 
     1     -4.2150896     23  2.300                                                                 
     2     -7.0750295     23  2.300                                                                 
     3     -1.3605826     23  2.300                                                                 
  local pseudopotential read in
  partial core-charges read in
  partial kinetic energy density read in
  atomic valenz-charges read in
  non local Contribution for L=            0  read in
    real space projection operators read in
  non local Contribution for L=            0  read in
    real space projection operators read in
  non local Contribution for L=            1  read in
    real space projection operators read in
  non local Contribution for L=            1  read in
    real space projection operators read in
  non local Contribution for L=            2  read in
    real space projection operators read in
    PAW grid and wavefunctions read in
 
   number of l-projection  operators is LMAX  =            5
   number of lm-projection operators is LMMAX =           13
 
 POTCAR:    PAW_PBE Pb 08Apr2002                  
   SHA256 =  797118a27cf1bcd06b9881c67a26cdde129e3cd1a551dd4a281f9681ce847303 Pb/POTCAR             
   COPYR  = (c) Copyright 08Apr2002 Georg Kresse                                                    
   COPYR  = This file is part of the software VASP. Any use, copying, and all other rights are regul
   COPYR  = If you do not have a valid VASP license, you may not use, copy or distribute this file. 
   VRHFIN =Pb:                                                                                      
   LEXCH  = PE                                                                                      
   EATOM  =    96.9868 eV,    7.1283 Ry                                                             
                                                                                                    
   TITEL  = PAW_PBE Pb 08Apr2002                                                                    
   LULTRA =        F    use ultrasoft PP ?                                                          
   IUNSCR =        1    unscreen: 0-lin 1-nonlin 2-no                                               
   RPACOR =    2.200    partial core radius                                                         
   POMASS =  207.200; ZVAL   =    4.000    mass and valenz                                          
   RCORE  =    3.100    outmost cutoff radius                                                       
   RWIGS  =    3.260; RWIGS  =    1.725    wigner-seitz radius (au A)                               
   ENMAX  =   97.973; ENMIN  =   73.480 eV                                                          
   ICORE  =        3    local potential                                                             
   LCOR   =        T    correct aug charges                                                         
   LPAW   =        T    paw PP                                                                      
   EAUG   =  234.873                                                                                
   DEXC   =    0.000                                                                                
   RMAX   =    3.158    core radius for proj-oper                                                   
   RAUG   =    1.300    factor for augmentation sphere                                              
   RDEP   =    3.202    radius for radial grids                                                     
   RDEPT  =    2.659    core radius for aug-charge                                                  
                                                                                                    
   Atomic configuration                                                                             
   17 entries                                                                                       
     n  l   j            E        occ.                                                              
     1  0  0.50    -88091.8466   2.0000                                                             
     2  0  0.50    -15753.4197   2.0000                                                             
     2  1  1.50    -13508.1797   6.0000                                                             
     3  0  0.50     -3781.7194   2.0000                                                             
     3  1  1.50     -3138.2529   6.0000                                                             
     3  2  2.50     -2483.2977  10.0000                                                             
     4  0  0.50      -856.2895   2.0000                                                             
     4  1  1.50      -645.4943   6.0000                                                             
     4  2  2.50      -401.8768  10.0000                                                             
     4  3  3.50      -132.9059  14.0000                                                             
     5  0  0.50      -144.0950   2.0000                                                             
     5  1  1.50       -85.7879   6.0000                                                             
     5  2  2.50       -21.1769  10.0000                                                             
     6  0  0.50       -12.0372   2.0000                                                             
     6  1  1.50        -3.4971   2.0000                                                             
     6  2  2.50        -1.3606   0.0000                                                             
     5  3  2.50        -2.7212   0.0000                                                             
   Description                                                                                      
     l       E           TYP  RCUT    TYP  RCUT                                                     
     0    -12.0371566     23  3.100                                                                 
     0    -13.3977392     23  3.100                                                                 
     1     -3.4971341     23  3.100                                                                 
     1     -5.4423304     23  3.100                                                                 
     2     -1.3605826     23  3.100                                                                 
     3     -1.3605826     23  3.100                                                                 
  local pseudopotential read in
  partial core-charges read in
  partial kinetic energy density read in
  atomic valenz-charges read in
  non local Contribution for L=            0  read in
    real space projection operators read in
  non local Contribution for L=            0  read in
    real space projection operators read in
  non local Contribution for L=            1  read in
    real space projection operators read in
  non local Contribution for L=            1  read in
    real space projection operators read in
  non local Contribution for L=            2  read in
    real space projection operators read in
    PAW grid and wavefunctions read in
 
   number of l-projection  operators is LMAX  =            5
   number of lm-projection operators is LMMAX =           13
 
 Optimization of the real space projectors (new method)

 maximal supplied QI-value         = 34.20
 optimisation between [QCUT,QGAM] = [ 11.29, 22.57] = [ 35.68,142.71] Ry 
 Optimized for a Real-space Cutoff    1.16 Angstroem

   l    n(q)    QCUT    max X(q) W(low)/X(q) W(high)/X(q)  e(spline) 
   0      8    11.287    19.460    0.40E-03    0.73E-03    0.16E-06
   0      8    11.287    12.209    0.38E-03    0.70E-03    0.15E-06
   1      7    11.287     4.655    0.22E-03    0.25E-04    0.22E-06
 Optimization of the real space projectors (new method)

 maximal supplied QI-value         = 25.13
 optimisation between [QCUT,QGAM] = [ 11.31, 22.87] = [ 35.82,146.48] Ry 
 Optimized for a Real-space Cutoff    1.00 Angstroem

   l    n(q)    QCUT    max X(q) W(low)/X(q) W(high)/X(q)  e(spline) 
   0      7    11.310   115.676    0.43E-03    0.13E-02    0.19E-06
   0      7    11.310    87.132    0.43E-03    0.13E-02    0.18E-06
   1      6    11.310     4.429    0.42E-03    0.74E-03    0.11E-06
   1      6    11.310     2.733    0.34E-03    0.55E-03    0.92E-07
 Optimization of the real space projectors (new method)

 maximal supplied QI-value         = 25.13
 optimisation between [QCUT,QGAM] = [ 11.31, 22.87] = [ 35.82,146.48] Ry 
 Optimized for a Real-space Cutoff    1.27 Angstroem

   l    n(q)    QCUT    max X(q) W(low)/X(q) W(high)/X(q)  e(spline) 
   0      9    11.310    79.467    0.75E-04    0.16E-03    0.36E-06
   0      9    11.310    66.151    0.74E-04    0.16E-03    0.36E-06
   1      8    11.310    17.416    0.35E-03    0.12E-03    0.95E-06
   1      8    11.310    12.382    0.37E-03    0.13E-03    0.98E-06
 Optimization of the real space projectors (new method)

 maximal supplied QI-value         = 16.25
 optimisation between [QCUT,QGAM] = [ 11.38, 22.75] = [ 36.24,144.96] Ry 
 Optimized for a Real-space Cutoff    1.31 Angstroem

   l    n(q)    QCUT    max X(q) W(low)/X(q) W(high)/X(q)  e(spline) 
   0      9    11.376   194.483    0.24E-03    0.23E-03    0.67E-07
   0      9    11.376   190.334    0.23E-03    0.22E-03    0.65E-07
   1      8    11.376   116.687    0.25E-03    0.63E-04    0.16E-06
   1      8    11.376    88.696    0.25E-03    0.61E-04    0.16E-06
   2      8    11.376     4.877    0.17E-03    0.14E-03    0.29E-07
 Optimization of the real space projectors (new method)

 maximal supplied QI-value         = 12.09
 optimisation between [QCUT,QGAM] = [ 11.37, 22.86] = [ 36.19,146.31] Ry 
 Optimized for a Real-space Cutoff    1.66 Angstroem

   l    n(q)    QCUT    max X(q) W(low)/X(q) W(high)/X(q)  e(spline) 
   0     11    11.369   135.111    0.12E-03    0.69E-04    0.19E-05
   0     11    11.369   146.850    0.11E-03    0.65E-04    0.18E-05
   1     11    11.369   148.016    0.17E-03    0.32E-03    0.89E-06
   1     11    11.369   122.989    0.17E-03    0.32E-03    0.91E-06
   2     10    11.369     8.916    0.12E-03    0.45E-04    0.33E-06
  PAW_PBE H 15Jun2001                   :
 energy of atom  1       EATOM=  -12.4884
 kinetic energy error for atom=    0.0020 (will be added to EATOM!!)
  PAW_PBE C 08Apr2002                   :
 energy of atom  2       EATOM= -147.1560
 kinetic energy error for atom=    0.0076 (will be added to EATOM!!)
  PAW_PBE N 08Apr2002                   :
 energy of atom  3       EATOM= -264.5486
 kinetic energy error for atom=    0.0138 (will be added to EATOM!!)
  PAW_PBE I 08Apr2002                   :
 energy of atom  4       EATOM= -315.8678
 kinetic energy error for atom=    0.0009 (will be added to EATOM!!)
  PAW_PBE Pb 08Apr2002                  :
 energy of atom  5       EATOM=  -96.9868
 kinetic energy error for atom=    0.0000 (will be added to EATOM!!)
 
 
 POSCAR:  H  C  N  I Pb
  positions in cartesian coordinates
  No initial velocities read in
 exchange correlation table for  LEXCH =        8
   RHO(1)=    0.500       N(1)  =     2000
   RHO(2)=  100.500       N(2)  =     4000
 


--------------------------------------------------------------------------------------------------------


 ion  position               nearest neighbor table
   1  0.446  0.300  0.583- 187 1.06
   2  0.444  0.833  0.579- 188 1.08
   3  0.956  0.268  0.586- 189 1.01
   4  0.969  0.807  0.586- 190 1.01
   5  0.300  0.044  0.583- 194 1.01
   6  0.303  0.550  0.583- 195 1.00
   7  0.776  0.066  0.582- 196 1.00
   8  0.102  0.191  0.554- 183 1.04
   9  0.081  0.678  0.557- 184 1.00
  10  0.582  0.178  0.557- 185 1.03
  11  0.539  0.658  0.566- 186 1.03
  12  0.353  0.050  0.560- 194 1.07
  13  0.314  0.597  0.558- 195 1.06
  14  0.833  0.078  0.559- 196 1.05
  15  0.075  0.201  0.581- 183 1.04
  16  0.047  0.692  0.582- 184 1.06
  17  0.563  0.222  0.581- 185 1.03
  18  0.509  0.711  0.587- 186 1.02
  19  0.221  0.437  0.582- 191 1.01
  20  0.181  0.971  0.581- 192 1.00
  21  0.689  0.959  0.581- 193 1.01
  22  0.391  0.297  0.560- 187 1.02
  23  0.439  0.854  0.552- 188 1.01
  24  0.907  0.294  0.564- 189 1.01
  25  0.955  0.861  0.564- 190 1.01
  26  0.182  0.413  0.557- 191 1.05
  27  0.158  0.935  0.556- 192 1.05
  28  0.692  0.900  0.558- 193 1.08
  29  0.474  0.218  0.541- 146 1.09
  30  0.501  0.746  0.540- 147 1.13
  31  0.996  0.250  0.540- 144 1.11
  32  0.026  0.784  0.542- 145 1.11
  33  0.239  0.513  0.540- 148 1.10
  34  0.268  0.982  0.540- 149 1.10
  35  0.781  0.971  0.542- 150 1.10
  36  0.452  0.307  0.676- 205 1.06
  37  0.439  0.811  0.675- 206 1.07
  38  0.951  0.290  0.678- 207 1.04
  39  0.945  0.806  0.675- 208 1.00
  40  0.301  0.048  0.675- 209 1.07
  41  0.295  0.553  0.677- 210 1.06
  42  0.811  0.050  0.675- 211 1.07
  43  0.832  0.539  0.674- 212 1.07
  44  0.085  0.172  0.649- 197 0.99
  45  0.087  0.683  0.654- 198 0.99
  46  0.572  0.165  0.651- 199 0.98
  47  0.570  0.667  0.655- 200 1.05
  48  0.186  0.411  0.647- 201 1.01
  49  0.169  0.919  0.649- 202 0.99
  50  0.659  0.443  0.653- 203 1.04
  51  0.665  0.933  0.651- 204 0.98
  52  0.062  0.192  0.674- 197 1.02
  53  0.044  0.704  0.678- 198 1.00
  54  0.554  0.201  0.675- 199 1.01
  55  0.539  0.703  0.680- 200 1.04
  56  0.205  0.438  0.674- 201 1.07
  57  0.198  0.945  0.675- 202 1.06
  58  0.716  0.445  0.677- 203 1.04
  59  0.698  0.957  0.676- 204 1.06
  60  0.417  0.324  0.651- 205 1.01
  61  0.422  0.833  0.649- 206 1.01
  62  0.919  0.319  0.653- 207 1.03
  63  0.928  0.840  0.650- 208 1.02
  64  0.329  0.075  0.650- 209 1.01
  65  0.326  0.586  0.652- 210 1.02
  66  0.837  0.074  0.649- 211 1.02
  67  0.840  0.578  0.649- 212 1.05
  68  0.996  0.251  0.633- 151 1.07
  69  0.020  0.767  0.635- 152 1.06
  70  0.486  0.237  0.633- 153 1.07
  71  0.503  0.744  0.634- 154 1.07
  72  0.249  0.996  0.632- 156 1.08
  73  0.260  0.501  0.632- 155 1.08
  74  0.748  0.001  0.632- 158 1.08
  75  0.734  0.523  0.634- 157 1.11
  76  0.449  0.301  0.769- 221 1.02
  77  0.449  0.801  0.769- 222 1.02
  78  0.949  0.301  0.769- 223 1.02
  79  0.949  0.801  0.769- 224 1.02
  80  0.301  0.051  0.769- 225 1.02
  81  0.301  0.551  0.769- 226 1.02
  82  0.801  0.051  0.769- 227 1.02
  83  0.801  0.551  0.769- 228 1.02
  84  0.079  0.171  0.743- 213 1.02
  85  0.079  0.671  0.743- 214 1.02
  86  0.579  0.171  0.743- 215 1.02
  87  0.579  0.671  0.743- 216 1.02
  88  0.171  0.421  0.743- 217 1.02
  89  0.171  0.921  0.743- 218 1.02
  90  0.671  0.421  0.743- 219 1.02
  91  0.671  0.921  0.743- 220 1.02
  92  0.051  0.199  0.769- 213 1.02
  93  0.051  0.699  0.769- 214 1.02
  94  0.551  0.199  0.769- 215 1.02
  95  0.551  0.699  0.769- 216 1.02
  96  0.199  0.449  0.769- 217 1.02
  97  0.199  0.949  0.769- 218 1.02
  98  0.699  0.449  0.769- 219 1.02
  99  0.699  0.949  0.769- 220 1.02
 100  0.421  0.329  0.743- 221 1.02
 101  0.421  0.829  0.743- 222 1.02
 102  0.921  0.329  0.743- 223 1.02
 103  0.921  0.829  0.743- 224 1.02
 104  0.329  0.079  0.743- 225 1.02
 105  0.329  0.579  0.743- 226 1.02
 106  0.829  0.079  0.743- 227 1.02
 107  0.829  0.579  0.743- 228 1.02
 108  0.000  0.250  0.726- 161 1.09
 109  0.000  0.750  0.726- 162 1.09
 110  0.500  0.250  0.726- 159 1.09
 111  0.500  0.750  0.726- 160 1.09
 112  0.250  0.000  0.726- 163 1.09
 113  0.250  0.500  0.726- 164 1.09
 114  0.750  0.000  0.726- 165 1.09
 115  0.750  0.500  0.726- 166 1.09
 116  0.719  0.450  0.546- 173 1.09
 117  0.740  0.510  0.525- 173 1.07
 118  0.650  0.543  0.561- 174 1.11
 119  0.685  0.636  0.563- 174 1.09
 120  0.836  0.511  0.579- 175 1.10
 121  0.773  0.577  0.588- 175 1.09
 122  0.871  0.560  0.542- 176 1.10
 123  0.809  0.620  0.529- 176 1.13
 124  0.869  0.480  0.526- 177 1.09
 125  0.864  0.448  0.552- 177 1.10
 126  0.888  0.352  0.527- 178 1.11
 127  0.797  0.338  0.538- 178 1.09
 128  0.618  0.552  0.527- 179 1.09
 129  0.691  0.612  0.519- 179 1.08
 130  0.614  0.648  0.532- 179 1.11
 131  0.729  0.455  0.602- 180 1.09
 132  0.742  0.413  0.578- 180 1.08
 133  0.669  0.474  0.582- 180 1.08
 134  0.837  0.676  0.572- 181 1.08
 135  0.875  0.708  0.548- 181 1.09
 136  0.920  0.636  0.563- 181 1.09
 137  0.840  0.400  0.494- 182 1.13
 138  0.804  0.309  0.500- 182 1.12
 139  0.671  0.318  0.523- 168 1.08
 140  0.753  0.488  0.481- 169 1.11
 141  0.542  0.366  0.519- 170 1.09
 142  0.624  0.538  0.477- 171 1.13
 143  0.518  0.481  0.497- 172 1.14
 144  0.003  0.244  0.558-  31 1.11 189 1.28 183 1.31
 145  0.018  0.770  0.559-  32 1.11 190 1.30 184 1.30
 146  0.485  0.237  0.557-  29 1.09 187 1.30 185 1.32
 147  0.491  0.757  0.558-  30 1.13 188 1.28 186 1.31
 148  0.247  0.504  0.557-  33 1.10 191 1.30 195 1.34
 149  0.257  0.993  0.557-  34 1.10 194 1.29 192 1.34
 150  0.762  0.988  0.558-  35 1.10 193 1.29 196 1.34
 151  0.001  0.246  0.650-  68 1.07 207 1.29 197 1.36
 152  0.008  0.762  0.651-  69 1.06 208 1.33 198 1.36
 153  0.493  0.245  0.650-  70 1.07 205 1.28 199 1.36
 154  0.496  0.752  0.651-  71 1.07 206 1.27 200 1.33
 155  0.256  0.498  0.649-  73 1.08 201 1.30 210 1.32
 156  0.250  0.998  0.649-  72 1.08 209 1.28 202 1.36
 157  0.751  0.511  0.651-  75 1.11 212 1.28 203 1.34
 158  0.752  0.004  0.649-  74 1.08 211 1.28 204 1.36
 159  0.500  0.250  0.743- 110 1.09 221 1.31 215 1.31
 160  0.500  0.750  0.743- 111 1.09 222 1.31 216 1.31
 161  1.000  0.250  0.743- 108 1.09 223 1.31 213 1.31
 162  1.000  0.750  0.743- 109 1.09 224 1.31 214 1.31
 163  0.250  0.000  0.743- 112 1.09 225 1.31 218 1.31
 164  0.250  0.500  0.743- 113 1.09 226 1.31 217 1.31
 165  0.750  0.000  0.743- 114 1.09 227 1.31 220 1.31
 166  0.750  0.500  0.743- 115 1.09 228 1.31 219 1.31
 167  0.720  0.397  0.502- 168 1.43 169 1.44 182 1.55
 168  0.658  0.364  0.513- 139 1.08 170 1.38 167 1.43
 169  0.706  0.460  0.489- 140 1.11 171 1.41 167 1.44
 170  0.587  0.393  0.511- 141 1.09 168 1.38 172 1.42
 171  0.632  0.488  0.487- 142 1.13 172 1.36 169 1.41
 172  0.575  0.455  0.498- 143 1.14 171 1.36 170 1.42
 173  0.761  0.485  0.539- 117 1.07 116 1.09 177 1.46 229 1.58
 174  0.685  0.587  0.554- 119 1.09 118 1.11 229 1.52 179 1.52
 175  0.777  0.527  0.578- 121 1.09 120 1.10 180 1.51 229 1.55
 176  0.827  0.601  0.545- 122 1.10 123 1.13 181 1.53 229 1.56
 177  0.833  0.450  0.537- 124 1.09 125 1.10 173 1.46 178 1.47
 178  0.830  0.375  0.528- 127 1.09 126 1.11 177 1.47 182 1.54
 179  0.652  0.600  0.531- 129 1.08 128 1.09 130 1.11 174 1.52
 180  0.727  0.465  0.585- 132 1.08 133 1.08 131 1.09 175 1.51
 181  0.867  0.660  0.558- 134 1.08 136 1.09 135 1.09 176 1.53
 182  0.801  0.369  0.505- 138 1.12 137 1.13 178 1.54 167 1.55
 183  0.063  0.211  0.565-  15 1.04   8 1.04 144 1.31
 184  0.050  0.710  0.566-   9 1.00  16 1.06 145 1.30
 185  0.546  0.209  0.566-  17 1.03  10 1.03 146 1.32
 186  0.517  0.707  0.571-  18 1.02  11 1.03 147 1.31
 187  0.439  0.281  0.567-  22 1.02   1 1.06 146 1.30
 188  0.457  0.817  0.563-  23 1.01   2 1.08 147 1.28
 189  0.953  0.270  0.570-  24 1.01   3 1.01 144 1.28
 190  0.979  0.816  0.571-   4 1.01  25 1.01 145 1.30
 191  0.216  0.448  0.567-  19 1.01  26 1.05 148 1.30
 192  0.195  0.965  0.566-  20 1.00  27 1.05 149 1.34
 193  0.711  0.949  0.567-  21 1.01  28 1.08 150 1.29
 194  0.305  0.032  0.568-   5 1.01  12 1.07 149 1.29
 195  0.290  0.553  0.567-   6 1.00  13 1.06 148 1.34
 196  0.792  0.048  0.567-   7 1.00  14 1.05 150 1.34
 197  0.053  0.200  0.659-  44 0.99  52 1.02 151 1.36
 198  0.050  0.712  0.662-  45 0.99  53 1.00 152 1.36
 199  0.544  0.200  0.660-  46 0.98  54 1.01 153 1.36
 200  0.536  0.706  0.663-  55 1.04  47 1.05 154 1.33
 201  0.215  0.446  0.657-  48 1.01  56 1.07 155 1.30
 202  0.202  0.951  0.658-  49 0.99  57 1.06 156 1.36
 203  0.706  0.464  0.661-  58 1.04  50 1.04 157 1.34
 204  0.701  0.961  0.659-  51 0.98  59 1.06 158 1.36
 205  0.453  0.293  0.659-  60 1.01  36 1.06 153 1.28
 206  0.451  0.800  0.659-  61 1.01  37 1.07 154 1.27
 207  0.956  0.286  0.661-  62 1.03  38 1.04 151 1.29
 208  0.957  0.805  0.660-  39 1.00  63 1.02 152 1.33
 209  0.295  0.042  0.658-  64 1.01  40 1.07 156 1.28
 210  0.293  0.549  0.660-  65 1.02  41 1.06 155 1.32
 211  0.802  0.044  0.658-  66 1.02  42 1.07 158 1.28
 212  0.809  0.543  0.659-  67 1.05  43 1.07 157 1.28
 213  0.046  0.204  0.753-  92 1.02  84 1.02 161 1.31
 214  0.046  0.704  0.753-  93 1.02  85 1.02 162 1.31
 215  0.546  0.204  0.753-  94 1.02  86 1.02 159 1.31
 216  0.546  0.704  0.753-  95 1.02  87 1.02 160 1.31
 217  0.204  0.454  0.753-  96 1.02  88 1.02 164 1.31
 218  0.204  0.954  0.753-  97 1.02  89 1.02 163 1.31
 219  0.704  0.454  0.753-  98 1.02  90 1.02 166 1.31
 220  0.704  0.954  0.753-  99 1.02  91 1.02 165 1.31
 221  0.454  0.296  0.753-  76 1.02 100 1.02 159 1.31
 222  0.454  0.796  0.753-  77 1.02 101 1.02 160 1.31
 223  0.954  0.296  0.753-  78 1.02 102 1.02 161 1.31
 224  0.954  0.796  0.753-  79 1.02 103 1.02 162 1.31
 225  0.296  0.046  0.753-  80 1.02 104 1.02 163 1.31
 226  0.296  0.546  0.753-  81 1.02 105 1.02 164 1.31
 227  0.796  0.046  0.753-  82 1.02 106 1.02 165 1.31
 228  0.796  0.546  0.753-  83 1.02 107 1.02 166 1.31
 229  0.762  0.554  0.554- 174 1.52 175 1.55 176 1.56 173 1.58
 230  0.492  0.015  0.552- 304 3.21
 231  0.483  0.518  0.556- 305 3.09
 232  0.990  0.003  0.553- 302 3.18
 233  0.026  0.510  0.556- 303 3.17
 234  0.251  0.247  0.551- 306 3.20
 235  0.248  0.753  0.552- 307 3.22
 236  0.733  0.222  0.559- 308 3.11
 237  0.724  0.777  0.546- 309 3.70
 238  0.005  0.002  0.655- 310 3.10 302 3.22
 239  0.019  0.502  0.656- 311 3.06 303 3.10
 240  0.502  1.000  0.654- 312 3.15 304 3.23
 241  0.502  0.494  0.655- 313 3.09 305 3.16
 242  0.250  0.245  0.654- 314 3.19 306 3.19
 243  0.253  0.756  0.655- 315 3.12 307 3.22
 244  0.740  0.257  0.656- 316 3.03 308 3.04
 245  0.753  0.756  0.654- 309 3.07 317 3.19
 246  0.142  0.106  0.607- 302 3.19 306 3.23
 247  0.146  0.608  0.609- 303 3.17 307 3.23
 248  0.643  0.103  0.609- 304 3.19 308 3.24
 249  0.621  0.632  0.615- 309 3.30 305 3.35
 250  0.356  0.394  0.607- 305 3.15 306 3.28
 251  0.362  0.892  0.608- 304 3.22 307 3.23
 252  0.878  0.374  0.613- 308 3.30 303 3.31
 253  0.857  0.897  0.609- 309 3.19 302 3.23
 254  0.115  0.354  0.608- 306 3.07 303 3.31
 255  0.115  0.865  0.610- 307 3.25 302 3.32
 256  0.589  0.343  0.608- 308 3.23 305 3.26
 257  0.607  0.861  0.611- 309 3.06 304 3.34
 258  0.392  0.141  0.609- 304 3.09 306 3.28
 259  0.386  0.640  0.612- 307 3.18 305 3.29
 260  0.889  0.137  0.610- 302 3.13 308 3.36
 261  0.914  0.649  0.615- 303 3.19 309 3.75
 262  0.000  0.000  0.755- 310 3.13 318 3.27
 263  0.000  0.500  0.755- 311 3.13 319 3.27
 264  0.500  0.000  0.755- 312 3.13 320 3.27
 265  0.500  0.500  0.755- 313 3.13 321 3.27
 266  0.250  0.250  0.755- 314 3.13 322 3.27
 267  0.250  0.750  0.755- 315 3.13 323 3.27
 268  0.750  0.250  0.755- 316 3.13 324 3.27
 269  0.750  0.750  0.755- 317 3.13 325 3.27
 270  0.136  0.114  0.705- 310 3.20 314 3.20
 271  0.136  0.614  0.705- 311 3.20 315 3.20
 272  0.636  0.114  0.705- 312 3.20 316 3.20
 273  0.636  0.614  0.705- 313 3.20 317 3.20
 274  0.364  0.386  0.705- 313 3.20 314 3.20
 275  0.364  0.886  0.705- 312 3.20 315 3.20
 276  0.864  0.386  0.705- 311 3.20 316 3.20
 277  0.864  0.886  0.705- 310 3.20 317 3.20
 278  0.114  0.364  0.705- 314 3.21 311 3.21
 279  0.114  0.864  0.705- 315 3.21 310 3.21
 280  0.614  0.364  0.705- 316 3.21 313 3.21
 281  0.614  0.864  0.705- 317 3.21 312 3.21
 282  0.386  0.136  0.705- 314 3.21 312 3.21
 283  0.386  0.636  0.705- 315 3.21 313 3.21
 284  0.886  0.136  0.705- 316 3.21 310 3.21
 285  0.886  0.636  0.705- 317 3.21 311 3.21
 286  0.135  0.115  0.801- 318 3.22 322 3.22
 287  0.135  0.615  0.801- 319 3.22 323 3.22
 288  0.635  0.115  0.801- 320 3.22 324 3.22
 289  0.635  0.615  0.801- 321 3.22 325 3.22
 290  0.365  0.385  0.801- 321 3.22 322 3.22
 291  0.365  0.885  0.801- 320 3.22 323 3.22
 292  0.865  0.385  0.801- 319 3.22 324 3.22
 293  0.865  0.885  0.801- 318 3.22 325 3.22
 294  0.115  0.365  0.801- 319 3.23 322 3.23
 295  0.115  0.865  0.801- 318 3.23 323 3.23
 296  0.615  0.365  0.801- 321 3.23 324 3.23
 297  0.615  0.865  0.801- 320 3.23 325 3.23
 298  0.385  0.135  0.801- 320 3.23 322 3.23
 299  0.385  0.635  0.801- 321 3.23 323 3.23
 300  0.885  0.135  0.801- 318 3.23 324 3.23
 301  0.885  0.635  0.801- 319 3.23 325 3.23
 302  0.998  0.005  0.604- 260 3.13 232 3.18 246 3.19 238 3.22 253 3.23 255 3.32
 303  0.007  0.502  0.607- 239 3.10 247 3.17 233 3.17 261 3.19 252 3.31 254 3.31
 304  0.497  0.007  0.603- 258 3.09 248 3.19 230 3.21 251 3.22 240 3.23 257 3.34
 305  0.497  0.498  0.605- 231 3.09 250 3.15 241 3.16 256 3.26 259 3.29 249 3.35
 306  0.248  0.249  0.603- 254 3.07 242 3.19 234 3.20 246 3.23 258 3.28 250 3.28
 307  0.253  0.751  0.604- 259 3.18 243 3.22 235 3.22 251 3.23 247 3.23 255 3.25
 308  0.743  0.252  0.608- 244 3.04 236 3.11 256 3.23 248 3.24 252 3.30 260 3.36
 309  0.743  0.762  0.605- 257 3.06 245 3.07 253 3.19 249 3.30 237 3.70 261 3.75
 310  0.000  0.000  0.705- 238 3.10 262 3.13 270 3.20 277 3.20 279 3.21 284 3.21
 311  0.000  0.500  0.705- 239 3.06 263 3.13 271 3.20 276 3.20 278 3.21 285 3.21
 312  0.500  0.000  0.705- 264 3.13 240 3.15 272 3.20 275 3.20 281 3.21 282 3.21
 313  0.500  0.500  0.705- 241 3.09 265 3.13 273 3.20 274 3.20 280 3.21 283 3.21
 314  0.250  0.250  0.705- 266 3.13 242 3.19 270 3.20 274 3.20 282 3.21 278 3.21
 315  0.250  0.750  0.705- 243 3.12 267 3.13 271 3.20 275 3.20 283 3.21 279 3.21
 316  0.750  0.250  0.705- 244 3.03 268 3.13 272 3.20 276 3.20 284 3.21 280 3.21
 317  0.750  0.750  0.705- 269 3.13 245 3.19 273 3.20 277 3.20 285 3.21 281 3.21
 318  0.000  0.000  0.807- 286 3.22 293 3.22 300 3.23 295 3.23 262 3.27
 319  0.000  0.500  0.807- 287 3.22 292 3.22 301 3.23 294 3.23 263 3.27
 320  0.500  0.000  0.807- 288 3.22 291 3.22 298 3.23 297 3.23 264 3.27
 321  0.500  0.500  0.807- 289 3.22 290 3.22 299 3.23 296 3.23 265 3.27
 322  0.250  0.250  0.807- 290 3.22 286 3.22 294 3.23 298 3.23 266 3.27
 323  0.250  0.750  0.807- 291 3.22 287 3.22 299 3.23 295 3.23 267 3.27
 324  0.750  0.250  0.807- 292 3.22 288 3.22 296 3.23 300 3.23 268 3.27
 325  0.750  0.750  0.807- 293 3.22 289 3.22 297 3.23 301 3.23 269 3.27
 

IMPORTANT INFORMATION: All symmetrisations will be switched off!
NOSYMM: (Re-)initialisation of all symmetry stuff for point group C_1.


----------------------------------------------------------------------------------------

                                     Primitive cell                                     

  volume of cell :   20385.2105

  direct lattice vectors                    reciprocal lattice vectors
    18.060800552  0.000000000  0.000000000     0.055368531  0.000015077 -0.000000000
    -0.004918649 18.062799454  0.000000000     0.000000000  0.055362404  0.000000000
     0.000000000  0.000000000 62.487499237     0.000000000 -0.000000000  0.016003201

  length of vectors
    18.060800552 18.062800123 62.487499237     0.055368533  0.055362404  0.016003201

  position of ions in fractional coordinates (direct lattice)
     0.446163710  0.300483447  0.582724645
     0.443501056  0.832580755  0.579066504
     0.955501599  0.267928384  0.586149586
     0.969325461  0.806548003  0.586268384
     0.299766198  0.044172436  0.583469362
     0.302738881  0.550134323  0.582766829
     0.776068993  0.066364119  0.581591728
     0.102492265  0.191372652  0.553846982
     0.081042996  0.677867330  0.556615663
     0.582452928  0.177528659  0.557400061
     0.539421334  0.657875057  0.566335930
     0.353237112  0.050415137  0.559749286
     0.313626891  0.596951366  0.558339153
     0.833072360  0.078134726  0.558951580
     0.074668923  0.201483703  0.580676750
     0.046793710  0.691990451  0.582111425
     0.562842840  0.222270515  0.581316160
     0.508969718  0.710916949  0.587324931
     0.220619444  0.436869391  0.582407321
     0.181269572  0.971065044  0.581105303
     0.689377166  0.959256970  0.581228680
     0.390770811  0.296805348  0.559638851
     0.438737922  0.853946401  0.551866484
     0.907284049  0.293549631  0.563677989
     0.954779034  0.860835868  0.564227537
     0.182104268  0.412712277  0.557453905
     0.158462926  0.934850024  0.555744456
     0.692217169  0.899990393  0.558140932
     0.473671616  0.218484484  0.541114943
     0.500553168  0.745887033  0.540238670
     0.995646613  0.250314648  0.540221454
     0.026038092  0.784197415  0.541909231
     0.238912639  0.513266848  0.539975983
     0.268172726  0.982123655  0.540153203
     0.781283586  0.971280307  0.541973025
     0.452474313  0.306681687  0.675796422
     0.439438425  0.811138393  0.675050179
     0.950818519  0.290324615  0.677575953
     0.944807441  0.806137131  0.675321413
     0.301223601  0.047949455  0.675118675
     0.294766101  0.553145006  0.676621722
     0.810644184  0.049724408  0.675001891
     0.831965253  0.538519303  0.674208153
     0.085316856  0.171790261  0.648512523
     0.087115222  0.683474446  0.653595266
     0.571516976  0.165041355  0.650726650
     0.570047910  0.667340577  0.655346348
     0.186479653  0.411224253  0.647476122
     0.169436417  0.919398631  0.649190698
     0.659429407  0.442759186  0.653451438
     0.664679729  0.932680302  0.650980790
     0.061724801  0.192227434  0.674491413
     0.044300574  0.703610434  0.677624303
     0.554240708  0.200896302  0.675486180
     0.539047144  0.703347712  0.679660904
     0.204705289  0.438333445  0.673720018
     0.197758363  0.945420566  0.674997740
     0.715619578  0.444953274  0.676734843
     0.697518404  0.957077500  0.676247990
     0.416508715  0.323961028  0.650672623
     0.421839336  0.833397905  0.648595242
     0.918818210  0.319210344  0.652767708
     0.928275955  0.839959709  0.649862585
     0.328549360  0.075493851  0.649799646
     0.325753153  0.586311889  0.651757496
     0.837207936  0.074458488  0.649111520
     0.839969674  0.578209026  0.648546099
     0.996402491  0.251167014  0.633122360
     0.020272181  0.767201888  0.634551540
     0.486066739  0.236777634  0.633101970
     0.503048376  0.744248931  0.634446904
     0.248561312  0.996113076  0.631529451
     0.259536049  0.501371526  0.631730663
     0.748329614  0.001265194  0.632133942
     0.733897590  0.522744511  0.634461128
     0.448745018  0.301283966  0.768889017
     0.448745007  0.801283913  0.768889017
     0.948744965  0.301283966  0.768889017
     0.948745007  0.801283913  0.768889017
     0.301275995  0.051294496  0.768872961
     0.301276011  0.551294499  0.768872961
     0.801275943  0.051294496  0.768872961
     0.801275984  0.551294499  0.768872961
     0.078771004  0.171180501  0.743441971
     0.078771006  0.671180448  0.743441971
     0.578771004  0.171180501  0.743441971
     0.578770992  0.671180448  0.743441971
     0.171199499  0.421174482  0.743421032
     0.171199501  0.921174508  0.743421032
     0.671199512  0.421174482  0.743421032
     0.671199501  0.921174508  0.743421032
     0.051256000  0.198714991  0.768889017
     0.051256002  0.698714925  0.768889017
     0.551256027  0.198714991  0.768889017
     0.551256016  0.698714925  0.768889017
     0.198723491  0.448703970  0.768872046
     0.198723493  0.948703970  0.768872046
     0.698723518  0.448703970  0.768872046
     0.698723507  0.948703970  0.768872046
     0.421231519  0.328817467  0.743441971
     0.421231508  0.828817440  0.743441971
     0.921231466  0.328817467  0.743441971
     0.921231508  0.828817440  0.743441971
     0.328800503  0.078824997  0.743421032
     0.328800492  0.578824964  0.743421032
     0.828800477  0.078824997  0.743421032
     0.828800519  0.578824964  0.743421032
     0.000003500  0.250001478  0.725821992
     0.000003500  0.750001452  0.725821992
     0.500003506  0.250001478  0.725821992
     0.500003495  0.750001452  0.725821992
     0.250000502  0.000000000  0.725803983
     0.250000517  0.500000000  0.725803983
     0.750000502  0.000000000  0.725803983
     0.750000490  0.500000000  0.725803983
     0.718522763  0.449580939  0.545954168
     0.740394998  0.510085470  0.524562133
     0.650173141  0.542746710  0.560839897
     0.684577602  0.636180956  0.563375316
     0.836330070  0.511461959  0.578869382
     0.773329110  0.576828736  0.587545617
     0.870818825  0.559592556  0.542107024
     0.808518277  0.620013033  0.528500604
     0.868877527  0.480384175  0.525721545
     0.864075143  0.448170396  0.551797805
     0.887922478  0.352146211  0.527382033
     0.797209563  0.337556014  0.537710393
     0.618107643  0.552187256  0.526906108
     0.690718037  0.611809959  0.518959694
     0.614376298  0.648226224  0.532388467
     0.729361387  0.454851206  0.601988020
     0.741995936  0.413091629  0.577586288
     0.668894874  0.473812656  0.581701797
     0.837235338  0.676475107  0.572292627
     0.875331913  0.708386883  0.548136795
     0.919781401  0.636033598  0.563071667
     0.839590011  0.399618922  0.493633279
     0.803840766  0.308963577  0.500020298
     0.670669810  0.317530110  0.523044435
     0.752872729  0.487748293  0.480625062
     0.541633179  0.366107639  0.519189049
     0.623540495  0.538038052  0.476619225
     0.517690829  0.481054600  0.496760125
     0.003287701  0.244085628  0.557778066
     0.018266257  0.770247893  0.559108716
     0.485294666  0.237240168  0.557392796
     0.490950361  0.757105488  0.557825134
     0.246590409  0.504259666  0.557194698
     0.257202175  0.993054228  0.557126447
     0.761794490  0.988366274  0.557878123
     0.001394106  0.246182040  0.650077106
     0.008423030  0.762142759  0.651053803
     0.492977736  0.244785699  0.649897688
     0.495581164  0.751814631  0.651303242
     0.256153439  0.498214382  0.648929110
     0.249783643  0.998468995  0.648762939
     0.750968798  0.511036990  0.651112469
     0.751762442  0.003846422  0.649336052
     0.499988984  0.249994984  0.743277021
     0.499989025  0.749994958  0.743277021
     0.999988984  0.249994984  0.743277021
     0.999989025  0.749994958  0.743277021
     0.250000502  0.000001000  0.743255960
     0.250000517  0.500001003  0.743255960
     0.750000502  0.000001000  0.743255960
     0.750000491  0.500001003  0.743255960
     0.720035303  0.397357992  0.502192913
     0.658233940  0.364253859  0.512795620
     0.705568882  0.460210965  0.488608104
     0.587372511  0.392679271  0.510817349
     0.632432493  0.487576173  0.487011562
     0.575172950  0.455350778  0.497667380
     0.760702697  0.485009887  0.538897093
     0.684926708  0.586625191  0.553550841
     0.777441992  0.527434478  0.577596300
     0.827158879  0.600622654  0.544900369
     0.832927632  0.450038431  0.536610258
     0.830443523  0.374547088  0.527774262
     0.651542757  0.599742358  0.531472329
     0.727255585  0.465332764  0.584801294
     0.867142308  0.659577308  0.558068041
     0.800682523  0.368836119  0.504754125
     0.063126863  0.210608294  0.564645590
     0.050087979  0.710071975  0.566035516
     0.545570275  0.208900103  0.566155352
     0.517222944  0.707351626  0.571169233
     0.439052432  0.281338314  0.566869545
     0.456639211  0.816681096  0.562825768
     0.953046990  0.270312834  0.569942242
     0.979218545  0.815551701  0.570585865
     0.215683593  0.448215116  0.566650141
     0.194966077  0.964828728  0.565658854
     0.710786799  0.948834221  0.566654720
     0.304780753  0.031521829  0.567832018
     0.289934964  0.553208099  0.567227161
     0.792384046  0.047840243  0.567270871
     0.053451190  0.200005011  0.658521422
     0.050238161  0.711850993  0.661917853
     0.543912743  0.200459876  0.659593108
     0.536019472  0.705982318  0.663061148
     0.214692055  0.446348822  0.657043343
     0.201576108  0.950930528  0.658129498
     0.705929927  0.463606966  0.661304449
     0.700609971  0.961048475  0.659355451
     0.452731192  0.293266265  0.659216568
     0.450770556  0.800140843  0.658566841
     0.955794914  0.286338811  0.661061175
     0.956566414  0.804730072  0.659741576
     0.294722269  0.041936182  0.658250738
     0.293266161  0.549257934  0.659664839
     0.801619658  0.043600574  0.658172780
     0.809296541  0.542625645  0.658503047
     0.045862501  0.204119496  0.752725994
     0.045862500  0.704119456  0.752725994
     0.545862507  0.204119496  0.752725994
     0.545862496  0.704119456  0.752725994
     0.204119002  0.454101003  0.752704994
     0.204118991  0.954100951  0.752704994
     0.704118976  0.454101003  0.752704994
     0.704118964  0.954100951  0.752704994
     0.454140018  0.295888490  0.752726971
     0.454140007  0.795888516  0.752726971
     0.954140018  0.295888490  0.752726971
     0.954140060  0.795888516  0.752726971
     0.295882492  0.045900498  0.752704994
     0.295882481  0.545900528  0.752704994
     0.795882439  0.045900498  0.752704994
     0.795882481  0.545900528  0.752704994
     0.762380017  0.554091933  0.554486759
     0.491554602  0.014740662  0.551603980
     0.483378804  0.517832530  0.556032722
     0.990321363  0.003069442  0.552935911
     0.026153219  0.510130665  0.556207257
     0.250533383  0.246582246  0.551413756
     0.248455248  0.753417252  0.551981924
     0.732661900  0.222476135  0.558843709
     0.723907362  0.777289417  0.546106665
     0.005155559  0.001664772  0.655172546
     0.018604634  0.501935669  0.656126350
     0.501697464  0.999568464  0.654497424
     0.502244051  0.494246265  0.655485292
     0.249964083  0.245425897  0.653767358
     0.252827172  0.755651545  0.655004056
     0.739688278  0.256875290  0.656423712
     0.753027552  0.755712210  0.653771570
     0.142254283  0.106004212  0.607061972
     0.146251464  0.608242682  0.609115971
     0.642973671  0.103114798  0.609335253
     0.620743232  0.631507568  0.614520373
     0.356381948  0.394334400  0.607449195
     0.361705221  0.891813917  0.608200383
     0.877676074  0.374122119  0.613094733
     0.856705422  0.896701506  0.609167923
     0.115346420  0.354105903  0.607916391
     0.114939731  0.864873572  0.610202492
     0.589209691  0.342994283  0.608375894
     0.606927686  0.860976943  0.610532514
     0.392317532  0.141110942  0.608833078
     0.386066092  0.640273095  0.611776904
     0.888624270  0.136661970  0.610472139
     0.913991450  0.649061959  0.615044953
     0.000000000  0.000000000  0.754927972
     0.000000000  0.500000000  0.754927972
     0.500000000  0.000000000  0.754927972
     0.499999989  0.500000000  0.754927972
     0.250000496  0.250000000  0.754939022
     0.250000511  0.749999974  0.754939022
     0.750000470  0.250000000  0.754939022
     0.750000458  0.749999974  0.754939022
     0.135790500  0.114209997  0.704782994
     0.135790502  0.614209984  0.704782994
     0.635790447  0.114209997  0.704782994
     0.635790488  0.614209984  0.704782994
     0.364209516  0.385789989  0.704782994
     0.364209505  0.885789963  0.704782994
     0.864209542  0.385789989  0.704782994
     0.864209531  0.885789963  0.704782994
     0.114217990  0.364218986  0.704780979
     0.114217992  0.864218986  0.704780979
     0.614218004  0.364218986  0.704780979
     0.614217992  0.864218986  0.704780979
     0.385782012  0.135781489  0.704782017
     0.385782001  0.635781489  0.704782017
     0.885781985  0.135781489  0.704782017
     0.885782027  0.635781489  0.704782017
     0.134667000  0.115332001  0.801256025
     0.134666989  0.615331988  0.801256025
     0.634666987  0.115332001  0.801256025
     0.634666976  0.615331988  0.801256025
     0.365333002  0.384667985  0.801256025
     0.365332990  0.884667959  0.801256025
     0.865332949  0.384667985  0.801256025
     0.865332938  0.884667959  0.801256025
     0.115328503  0.365337004  0.801264999
     0.115328505  0.865336978  0.801264999
     0.615328503  0.365337004  0.801264999
     0.615328492  0.865336978  0.801264999
     0.384671513  0.134662996  0.801264999
     0.384671501  0.634662970  0.801264999
     0.884671486  0.134662996  0.801264999
     0.884671528  0.634662970  0.801264999
     0.998179558  0.004806745  0.603701436
     0.007085682  0.501952565  0.606643187
     0.496713732  0.007027919  0.602871192
     0.496646724  0.497762539  0.604912189
     0.248290057  0.249416084  0.602655817
     0.252511155  0.750946689  0.603503276
     0.742979635  0.252246146  0.607820180
     0.743472430  0.762291437  0.604814452
     0.000000500  0.000000500  0.704828963
     0.000000500  0.500000475  0.704828963
     0.500000475  0.000000500  0.704828963
     0.500000464  0.500000475  0.704828963
     0.249999994  0.249999472  0.704824995
     0.250000010  0.749999498  0.704824995
     0.749999994  0.249999472  0.704824995
     0.749999983  0.749999498  0.704824995
     0.000000000  0.000000000  0.807317968
     0.000000000  0.500000000  0.807317968
     0.500000000  0.000000000  0.807317968
     0.499999989  0.500000000  0.807317968
     0.249999994  0.250000000  0.807317968
     0.250000010  0.749999974  0.807317968
     0.749999994  0.250000000  0.807317968
     0.749999983  0.749999974  0.807317968

  ion indices of the primitive-cell ions
   primitive index   ion index
                 1           1
                 2           2
                 3           3
                 4           4
                 5           5
                 6           6
                 7           7
                 8           8
                 9           9
                10          10
                11          11
                12          12
                13          13
                14          14
                15          15
                16          16
                17          17
                18          18
                19          19
                20          20
                21          21
                22          22
                23          23
                24          24
                25          25
                26          26
                27          27
                28          28
                29          29
                30          30
                31          31
                32          32
                33          33
                34          34
                35          35
                36          36
                37          37
                38          38
                39          39
                40          40
                41          41
                42          42
                43          43
                44          44
                45          45
                46          46
                47          47
                48          48
                49          49
                50          50
                51          51
                52          52
                53          53
                54          54
                55          55
                56          56
                57          57
                58          58
                59          59
                60          60
                61          61
                62          62
                63          63
                64          64
                65          65
                66          66
                67          67
                68          68
                69          69
                70          70
                71          71
                72          72
                73          73
                74          74
                75          75
                76          76
                77          77
                78          78
                79          79
                80          80
                81          81
                82          82
                83          83
                84          84
                85          85
                86          86
                87          87
                88          88
                89          89
                90          90
                91          91
                92          92
                93          93
                94          94
                95          95
                96          96
                97          97
                98          98
                99          99
               100         100
               101         101
               102         102
               103         103
               104         104
               105         105
               106         106
               107         107
               108         108
               109         109
               110         110
               111         111
               112         112
               113         113
               114         114
               115         115
               116         116
               117         117
               118         118
               119         119
               120         120
               121         121
               122         122
               123         123
               124         124
               125         125
               126         126
               127         127
               128         128
               129         129
               130         130
               131         131
               132         132
               133         133
               134         134
               135         135
               136         136
               137         137
               138         138
               139         139
               140         140
               141         141
               142         142
               143         143
               144         144
               145         145
               146         146
               147         147
               148         148
               149         149
               150         150
               151         151
               152         152
               153         153
               154         154
               155         155
               156         156
               157         157
               158         158
               159         159
               160         160
               161         161
               162         162
               163         163
               164         164
               165         165
               166         166
               167         167
               168         168
               169         169
               170         170
               171         171
               172         172
               173         173
               174         174
               175         175
               176         176
               177         177
               178         178
               179         179
               180         180
               181         181
               182         182
               183         183
               184         184
               185         185
               186         186
               187         187
               188         188
               189         189
               190         190
               191         191
               192         192
               193         193
               194         194
               195         195
               196         196
               197         197
               198         198
               199         199
               200         200
               201         201
               202         202
               203         203
               204         204
               205         205
               206         206
               207         207
               208         208
               209         209
               210         210
               211         211
               212         212
               213         213
               214         214
               215         215
               216         216
               217         217
               218         218
               219         219
               220         220
               221         221
               222         222
               223         223
               224         224
               225         225
               226         226
               227         227
               228         228
               229         229
               230         230
               231         231
               232         232
               233         233
               234         234
               235         235
               236         236
               237         237
               238         238
               239         239
               240         240
               241         241
               242         242
               243         243
               244         244
               245         245
               246         246
               247         247
               248         248
               249         249
               250         250
               251         251
               252         252
               253         253
               254         254
               255         255
               256         256
               257         257
               258         258
               259         259
               260         260
               261         261
               262         262
               263         263
               264         264
               265         265
               266         266
               267         267
               268         268
               269         269
               270         270
               271         271
               272         272
               273         273
               274         274
               275         275
               276         276
               277         277
               278         278
               279         279
               280         280
               281         281
               282         282
               283         283
               284         284
               285         285
               286         286
               287         287
               288         288
               289         289
               290         290
               291         291
               292         292
               293         293
               294         294
               295         295
               296         296
               297         297
               298         298
               299         299
               300         300
               301         301
               302         302
               303         303
               304         304
               305         305
               306         306
               307         307
               308         308
               309         309
               310         310
               311         311
               312         312
               313         313
               314         314
               315         315
               316         316
               317         317
               318         318
               319         319
               320         320
               321         321
               322         322
               323         323
               324         324
               325         325

----------------------------------------------------------------------------------------

 
 
 KPOINTS: Automatic Mesh                          

Automatic generation of k-mesh.
 Grid dimensions read from file:
 generate k-points for:    3    3    1

 Generating k-lattice:

  Cartesian coordinates                     Fractional coordinates (reciprocal lattice)
     0.018456177  0.000005026 -0.000000000     0.333333333  0.000000000  0.000000000
     0.000000000  0.018454135  0.000000000     0.000000000  0.333333333  0.000000000
     0.000000000 -0.000000000  0.016003201     0.000000000  0.000000000  1.000000000

  Length of vectors
     0.018456178  0.018454135  0.016003201

  Shift w.r.t. Gamma in fractional coordinates (k-lattice)
     0.000000000  0.000000000  0.000000000

 
 Subroutine IBZKPT returns following result:
 ===========================================
 
 Found      5 irreducible k-points:
 
 Following reciprocal coordinates:
            Coordinates               Weight
  0.000000  0.000000  0.000000      1.000000
  0.333333  0.000000  0.000000      2.000000
  0.000000  0.333333  0.000000      2.000000
  0.333333  0.333333  0.000000      2.000000
 -0.333333  0.333333  0.000000      2.000000
 
 Following cartesian coordinates:
            Coordinates               Weight
  0.000000  0.000000  0.000000      1.000000
  0.018456  0.000005  0.000000      2.000000
  0.000000  0.018454  0.000000      2.000000
  0.018456  0.018459  0.000000      2.000000
 -0.018456  0.018449  0.000000      2.000000
 


--------------------------------------------------------------------------------------------------------




 Dimension of arrays:
   k-points           NKPTS =      5   k-points in BZ     NKDIM =      5   number of bands    NBANDS=    732
   number of dos      NEDOS =    301   number of ions     NIONS =    325
   non local maximal  LDIM  =      5   non local SUM 2l+1 LMDIM =     13
   total plane-waves  NPLWV = ******
   max r-space proj   IRMAX =   3336   max aug-charges    IRDMAX=  19845
   dimension x,y,z NGX =   100 NGY =  100 NGZ =  350
   dimension x,y,z NGXF=   200 NGYF=  200 NGZF=  700
   support grid    NGXF=   200 NGYF=  200 NGZF=  700
   ions per type =             143  39  47  72  24
   NGX,Y,Z   is equivalent  to a cutoff of   9.20,  9.20,  9.31 a.u.
   NGXF,Y,Z  is equivalent  to a cutoff of  18.41, 18.41, 18.62 a.u.

 SYSTEM =  PSC                                     
 POSCAR =   H  C  N  I Pb                          

 Startparameter for this run:
   NWRITE =      2    write-flag & timer
   PREC   = normal    normal or accurate (medium, high low for compatibility)
   ISTART =      0    job   : 0-new  1-cont  2-samecut
   ICHARG =      1    charge: 1-file 2-atom 10-const
   ISPIN  =      1    spin polarized calculation?
   LNONCOLLINEAR =      F non collinear calculations
   LSORBIT =      F    spin-orbit coupling
   INIWAV =      1    electr: 0-lowe 1-rand  2-diag
   LASPH  =      F    aspherical Exc in radial PAW
 Electronic Relaxation 1
   ENCUT  =  500.0 eV  36.75 Ry    6.06 a.u.  32.93 32.93113.93*2*pi/ulx,y,z
   ENINI  =  500.0     initial cutoff
   ENAUG  =  644.9 eV  augmentation charge cutoff
   NELM   =    600;   NELMIN=  2; NELMDL=  0     # of ELM steps 
   EDIFF  = 0.1E-03   stopping-criterion for ELM
   LREAL  =      T    real-space projection
   NLSPLINE    = F    spline interpolate recip. space projectors
   LCOMPAT=      F    compatible to vasp.4.4
   GGA_COMPAT  = F    GGA compatible to vasp.4.4-vasp.4.6
   LMAXPAW     = -100 max onsite density
   LMAXMIX     =    2 max onsite mixed and CHGCAR
   VOSKOWN=      0    Vosko Wilk Nusair interpolation
   ROPT   =   -0.00050  -0.00050  -0.00050  -0.00050
   ROPT   =   -0.00050
 Ionic relaxation
   EDIFFG = 0.1E-02   stopping-criterion for IOM
   NSW    =      0    number of steps for IOM
   NBLOCK =      1;   KBLOCK =      1    inner block; outer block 
   IBRION =     -1    ionic relax: 0-MD 1-quasi-New 2-CG
   NFREE  =      0    steps in history (QN), initial steepest desc. (CG)
   ISIF   =      2    stress and relaxation
   IWAVPR =     10    prediction:  0-non 1-charg 2-wave 3-comb
   ISYM   =      0    0-nonsym 1-usesym 2-fastsym
   LCORR  =      T    Harris-Foulkes like correction to forces

   POTIM  = 0.5000    time-step for ionic-motion
   TEIN   =    0.0    initial temperature
   TEBEG  =    0.0;   TEEND  =   0.0 temperature during run
   SMASS  =  -3.00    Nose mass-parameter (am)
   estimated Nose-frequenzy (Omega)   =  0.10E-29 period in steps = 0.13E+47 mass=  -0.745E-26a.u.
   SCALEE = 1.0000    scale energy and forces
   NPACO  =    256;   APACO  = 16.0  distance and # of slots for P.C.
   PSTRESS=    0.0 pullay stress

  Mass of Ions in am
   POMASS =   1.00 12.01 14.00126.90207.20
  Ionic Valenz
   ZVAL   =   1.00  4.00  5.00  7.00  4.00
  Atomic Wigner-Seitz radii
   RWIGS  =  -1.00 -1.00 -1.00 -1.00 -1.00
  virtual crystal weights 
   VCA    =   1.00  1.00  1.00  1.00  1.00
   NELECT =    1134.0000    total number of electrons
   NUPDOWN=      -1.0000    fix difference up-down

 DOS related values:
   EMIN   =  10.00;   EMAX   =-10.00  energy-range for DOS
   EFERMI =   0.00
   ISMEAR =     0;   SIGMA  =   0.05  broadening in eV -4-tet -1-fermi 0-gaus

 Electronic relaxation 2 (details)
   IALGO  =     38    algorithm
   LDIAG  =      T    sub-space diagonalisation (order eigenvalues)
   LSUBROT=      F    optimize rotation matrix (better conditioning)
   TURBO    =      0    0=normal 1=particle mesh
   IRESTART =      0    0=no restart 2=restart with 2 vectors
   NREBOOT  =      0    no. of reboots
   NMIN     =      0    reboot dimension
   EREF     =   0.00    reference energy to select bands
   IMIX   =      4    mixing-type and parameters
     AMIX     =   0.40;   BMIX     =  0.01
     AMIX_MAG =   1.60;   BMIX_MAG =  0.01
     AMIN     =   0.01
     WC   =   100.;   INIMIX=   1;  MIXPRE=   1;  MAXMIX= -45

 Intra band minimization:
   WEIMIN = 0.0000     energy-eigenvalue tresh-hold
   EBREAK =  0.34E-07  absolut break condition
   DEPER  =   0.30     relativ break condition  

   TIME   =   0.40     timestep for ELM

  volume/ion in A,a.u.               =      62.72       423.28
  Fermi-wavevector in a.u.,A,eV,Ry     =   0.624944  1.180972  5.313816  0.390554
  Thomas-Fermi vector in A             =   1.685677
 
 Write flags
   LWAVE        =      F    write WAVECAR
   LDOWNSAMPLE  =      F    k-point downsampling of WAVECAR
   LCHARG       =      T    write CHGCAR
   LVTOT        =      T    write LOCPOT, total local potential
   LVHAR        =      F    write LOCPOT, Hartree potential only
   LELF         =      F    write electronic localiz. function (ELF)
   LORBIT       =      0    0 simple, 1 ext, 2 COOP (PROOUT), +10 PAW based schemes


 Dipole corrections
   LMONO  =      F    monopole corrections only (constant potential shift)
   LDIPOL =      T    correct potential (dipole corrections)
   IDIPOL =      3    1-x, 2-y, 3-z, 4-all directions 
   EPSILON=  1.0000000 bulk dielectric constant

 Exchange correlation treatment:
   GGA     =    --    GGA type
   LEXCH   =     8    internal setting for exchange type
   VOSKOWN=      0    Vosko Wilk Nusair interpolation
   LHFCALC =     F    Hartree Fock is set to
   LHFONE  =     F    Hartree Fock one center treatment
   AEXX    =    0.0000 exact exchange contribution

 Linear response parameters
   LEPSILON=     F    determine dielectric tensor
   LRPA    =     F    only Hartree local field effects (RPA)
   LNABLA  =     F    use nabla operator in PAW spheres
   LVEL    =     F    velocity operator in full k-point grid
   LINTERFAST=   F  fast interpolation
   KINTER  =     0    interpolate to denser k-point grid
   CSHIFT  =0.1000    complex shift for real part using Kramers Kronig
   OMEGAMAX=  -1.0    maximum frequency
   DEG_THRESHOLD= 0.2000000E-02 threshold for treating states as degnerate
   RTIME   =   -0.100 relaxation time in fs
  (WPLASMAI=    0.000 imaginary part of plasma frequency in eV, 0.658/RTIME)
   DFIELD  = 0.0000000 0.0000000 0.0000000 field for delta impulse in time
 
 Orbital magnetization related:
   ORBITALMAG=     F  switch on orbital magnetization
   LCHIMAG   =     F  perturbation theory with respect to B field
   DQ        =  0.001000  dq finite difference perturbation B field
   LLRAUG    =     F  two centre corrections for induced B field



--------------------------------------------------------------------------------------------------------


 Static calculation
 charge density and potential will be updated during run
 non-spin polarized calculation
 Variant of blocked Davidson
 Davidson routine will perform the subspace rotation
 perform sub-space diagonalisation
    after iterative eigenvector-optimisation
 modified Broyden-mixing scheme, WC =      100.0
 initial mixing is a Kerker type mixing with AMIX =  0.4000 and BMIX =      0.0100
 Hartree-type preconditioning will be used
 using additional bands           165
 real space projection scheme for non local part
[...]
     13.54561      0.00000     45.35368        -0.003339      0.000747      0.011953
     13.54315      9.03140     45.35368        -0.006426      0.006295      0.011247
     12.97488      8.12069     34.11531        -0.179386     -0.245964     -0.174213
     13.36962      9.21357     32.77858        -0.295750     -0.068180     -0.711801
     11.73998      9.80352     35.04548         0.166826      0.553932      0.121483
     12.36089     11.49121     35.20391         0.099918      0.228820      0.198840
     15.10227      9.23843     36.17210        -0.204436     -0.039483     -0.270666
     13.96411     10.41914     36.71426        -0.274578      0.203309      0.159812
     15.72493     10.10781     33.87491        -0.279571      0.094686     -0.042370
     14.59944     11.19917     33.02468         0.007359     -0.180949      1.156389
     15.69026      8.67708     32.85102         0.171514      0.375767     -0.165598
     15.60368      8.09521     34.48046        -0.141082      0.043898      0.027330
     16.03486      6.36075     32.95478        -0.289864      0.055105      0.110968
     14.39658      6.09721     33.60018        -0.065307     -0.189393      0.254757
     11.16080      9.97405     32.92505        -0.047024     -0.134218     -0.188025
     12.47191     11.05100     32.42849         0.493791      0.231657     -0.425209
     11.09294     11.70878     33.26762         0.203237     -0.158843      0.008811
     13.17061      8.21589     37.61673         0.343028      0.300559      0.177427
     13.39901      7.46159     36.09192         0.207265     -0.543215     -0.323045
     12.07845      8.55838     36.34909        -0.397022      0.229271     -0.178773
     15.11781     12.21903     35.76114        -0.166775      0.205664      0.196367
     15.80571     12.79545     34.25170         0.025000      0.205538     -0.028551
     16.60886     11.48855     35.18494         0.253762      0.036342      0.169250
     15.16170      7.21824     30.84591        -0.750883     -0.339370      0.465134
     14.51649      5.58075     31.24502        -0.134381      0.602953      0.070741
     12.11127      5.73548     32.68374        -0.187923     -0.331770      0.236218
     13.59509      8.81010     30.03306        -0.485862     -0.205535      0.098029
      9.78053      6.61293     32.44283        -0.063826      0.112677      0.059361
     11.25899      9.71847     29.78274         0.022969     -0.904515      0.678441
      9.34754      8.68919     31.04130         1.208710     -0.671277      0.040297
      0.05818      4.40887     34.85416         1.446793     -0.763214     -1.774722
      0.32611     13.91283     34.93731         0.517092     -0.034144     -1.426868
      8.76364      4.28522     34.83008         1.008667     -1.046927     -0.133207
      8.86323     13.67544     34.85710         1.189807     -1.863690     -1.838954
      4.45114      9.10834     34.81770         1.281393      1.497410      0.465084
      4.64039     17.93734     34.81344        -1.883996     -1.023069      0.323761
     13.75376     17.85266     34.86041         1.235282      1.634562      0.368743
      0.02397      4.44674     40.62169         1.976665     -1.718512      1.682371
      0.14838     13.76643     40.68272         0.380095     -1.168545      2.718103
      8.90237      4.42151     40.61048         2.496462     -2.340486      1.097276
      8.94689     13.57988     40.69831         1.691422     -1.994700      0.643123
      4.62389      8.99915     40.54996         0.380605      0.867134      0.442886
      4.50638     18.03515     40.53957        -2.716424     -2.818544      0.214123
     13.56058      9.23076     40.68639        -2.207041     -1.564672     -0.418124
     13.57741      0.06948     40.57539        -2.750377     -2.392526      0.337494
      9.02897      4.51561     46.44552         0.020489     -0.002806      0.043150
      9.02651     13.54701     46.44552         0.016972     -0.001797      0.050254
     18.05937      4.51561     46.44552         0.016972      0.000192      0.052536
     18.05691     13.54701     46.44552         0.031144     -0.012004      0.054426
      4.51521      0.00002     46.44421        -0.006599     -0.006644      0.062292
      4.51275      9.03142     46.44421         0.004959      0.008811      0.053228
     13.54561      0.00002     46.44421         0.000178      0.001642      0.053750
     13.54315      9.03142     46.44421        -0.016826     -0.013087      0.053702
     13.00246      7.17740     31.38078        -0.035521      0.655179     -1.092685
     11.88644      6.57944     32.04332         1.403589      0.327588     -0.448635
     12.74088      8.31270     30.53190         0.052359     -1.064111      0.979725
     10.60649      7.09289     31.91970        -0.105905      0.442452     -0.506338
     11.41984      8.80699     30.43213         1.608921      1.425420     -1.531450
     10.38584      8.22491     31.09799        -2.284678     -0.342654      0.938469
     13.73651      8.76064     33.67433        -0.998599      1.646211      1.696712
     12.36744     10.59609     34.59001        -0.114247     -0.603861     -0.041390
     14.03863      9.52694     36.09255         0.418463      0.444024     -0.313327
     14.93620     10.84893     34.04946        -0.148421      0.040496     -0.485283
     15.04113      8.12895     33.53143         1.674906     -0.110412      0.201622
     14.99663      6.76537     32.97929         0.124259     -1.643779     -0.882373
     11.76443     10.83303     33.21038        -0.348303      0.270076      0.503051
     13.13253      8.40521     36.54277        -0.020757      0.074900      0.128064
     15.65804     11.91381     34.87228        -0.639811     -0.369190     -0.141506
     14.45915      6.66221     31.54082        -0.343564     -0.040043     -0.575730
      1.13909      3.80418     35.28329         0.714159     -0.471520     -0.426767
      0.90114     12.82589     35.37014        -0.326577     -0.321352      1.966402
      9.85241      3.77332     35.37763         0.012262      0.006495     -0.247478
      9.33798     12.77675     35.69094        -0.037574      0.066473      0.364906
      7.92825      5.08176     35.42226        -0.266090      1.048375      1.433854
      8.24325     14.75155     35.16957        -1.202804      1.858032      2.308022
     17.21146      4.88261     35.61427        -1.409871      0.784138      1.020488
     17.68146     14.73115     35.65448        -0.446761     -0.050607      0.326301
      3.89321      8.09602     35.40855        -1.207049     -1.294275     -1.504182
      3.51650     17.42751     35.34661         0.440141     -0.409953     -2.576696
     12.83271     17.13860     35.40884        -1.233939     -1.747924     -1.022247
      5.50443      0.56937     35.48240         1.726184      0.916683     -1.149179
      5.23374      9.99249     35.44461        -0.336734      0.394667     -2.444634
     14.31085      0.86413     35.44734         0.915908     -0.746027     -2.463885
      0.96439      3.61265     41.14936        -2.316976      2.058216     -0.590440
      0.90384     12.85802     41.36159        -2.305010      2.619430     -1.390032
      9.82251      3.62087     41.21632        -2.376974      2.343295     -0.429699
      9.67747     12.75202     41.43303         0.668918     -0.686762      0.131153
      3.87531      8.06231     41.05700        -0.413944     -0.385555      2.126676
      3.63595     17.17647     41.12487         2.264590      2.205296      1.859622
     12.74738      8.37404     41.32326         0.381951      0.240500     -0.280834
     12.64885     17.35923     41.20147         2.709896      2.126346      1.936454
      8.17525      5.29721     41.19279        -0.935979      1.526751      2.375630
      8.13734     14.45278     41.15219        -1.603950      1.804167      2.197462
     17.26101      5.17208     41.30806        -1.132139      0.980174      0.870237
     17.27240     14.53568     41.22560         1.008590     -0.566408     -1.808291
      5.32271      0.75748     41.13244         1.335059      1.305006      2.651029
      5.29392      9.92114     41.22081        -0.185756     -0.368605      1.454281
     14.47768      0.78755     41.12757         1.589782      1.333199      2.437899
     14.61387      9.80134     41.14821         2.441737      1.287704      1.068018
      0.82731      3.68697     47.03596         0.016307     -0.018871     -0.096436
      0.82485     12.71837     47.03596         0.005243     -0.011017     -0.092550
      9.85771      3.68697     47.03596         0.013206     -0.019574     -0.090822
      9.85525     12.71837     47.03596         0.017792     -0.014367     -0.084648
      3.68432      8.20234     47.03465        -0.012212     -0.018285     -0.072007
      3.68186     17.23373     47.03465        -0.005431     -0.004989     -0.078995
     12.71472      8.20234     47.03465         0.000884     -0.003010     -0.081069
     12.71226     17.23373     47.03465        -0.007974     -0.013637     -0.073638
      8.20068      5.34457     47.03603        -0.028237      0.020639     -0.094175
      8.19822     14.37597     47.03603        -0.022221      0.022163     -0.098386
     17.23108      5.34457     47.03603        -0.023864      0.021267     -0.107208
     17.22862     14.37597     47.03603        -0.032875      0.024157     -0.094130
      5.34365      0.82909     47.03465         0.012833      0.013173     -0.075243
      5.34119      9.86049     47.03465         0.008213      0.004311     -0.076598
     14.37405      0.82909     47.03465         0.012782      0.008972     -0.079380
     14.37159      9.86049     47.03465         0.019167      0.021512     -0.073839
     13.76647     10.00845     34.64849         0.767951     -0.881454     -0.786236
      8.87780      0.26626     34.46835        -0.031987     -0.009281      0.031524
      8.72766      9.35351     34.74509         0.056955     -0.124320     -0.055509
     17.88598      0.05544     34.55158         0.021560      0.034354     -0.022945
      0.46984      9.21439     34.75600        -0.055279     -0.090076     -0.092816
      4.52362      4.45397     34.45647         0.005779      0.010855     -0.009023
      4.48359     13.60882     34.49197         0.063852     -0.017762      0.154287
     13.23137      4.01854     34.92075         0.195229      0.162410     -0.181514
     13.07052     14.04002     34.12484        -0.215911      0.354919      0.193715
      0.09311      0.03007     40.94009        -0.057315      0.023852     -0.080440
      0.33355      9.06636     40.99969        -0.047397     -0.079969      0.078299
      9.05614     18.05500     40.89791        -0.086423     -0.008807     -0.000193
      9.06850      8.92747     40.95964        -0.022452     -0.037710      0.016137
      4.51334      4.43308     40.85229         0.071594     -0.014835      0.064179
      4.56254     13.64918     40.92957        -0.011820     -0.053319     -0.022581
     13.35810      4.63989     41.01828         0.058112     -0.051958      0.068911
     13.59656     13.65028     40.85255         0.037010     -0.026239      0.083777
      2.56870      1.91473     37.93378         0.143586      0.113732      0.039178
      2.63843     10.98657     38.06213         0.085293      0.081788      0.037894
     11.61211      1.86254     38.07584         0.040818      0.057115      0.028046
     11.20801     11.40679     38.39984         0.125810     -0.205921     -0.139354
      6.43460      7.12278     37.95798        -0.134418     -0.140669      0.039444
      6.52830     16.10866     38.00492         0.040270     -0.025350      0.005019
     15.84969      6.75769     38.31076        -0.006988      0.015353     -0.011830
     15.46838     16.19694     38.06538         0.072586     -0.041602      0.024078
      2.08151      6.39614     37.98717        -0.155931      0.039794      0.036270
      2.07165     15.62204     38.13003         0.003449      0.048707     -0.071510
     10.63991      6.19544     38.01589         0.008889     -0.002354     -0.004817
     10.95737     15.55165     38.15065        -0.041522      0.100881     -0.076193
      7.08487      2.54886     38.04446        -0.113013      0.007040      0.027644
      6.96951     11.56512     38.22841         0.068457     -0.132508      0.031285
     16.04859      2.46850     38.14688        -0.092878      0.184595      0.059888
     16.50422     11.72388     38.43262        -0.197721     -0.023361     -0.026117
      0.00000      0.00000     47.17356        -0.000999      0.002408      0.471161
     -0.00246      9.03140     47.17356        -0.001855     -0.002392      0.502862
      9.03040      0.00000     47.17356        -0.001211     -0.000486      0.438492
      9.02794      9.03140     47.17356        -0.001428     -0.000683      0.501342
      4.51398      4.51570     47.17425         0.001031     -0.001655      0.373210
      4.51152     13.54710     47.17425         0.003014      0.004366      0.477919
     13.54438      4.51570     47.17425         0.004577      0.001529      0.509669
     13.54192     13.54710     47.17425         0.004698      0.000105      0.309930
      2.45192      2.06295     44.04013         0.044153     -0.008504      0.033047
      2.44946     11.09435     44.04013         0.068945     -0.020217      0.085166
     11.48232      2.06295     44.04013         0.029110     -0.023983      0.024293
     11.47986     11.09435     44.04013         0.038267      0.015406      0.035629
      6.57602      6.96845     44.04013        -0.011610     -0.028065     -0.038533
      6.57356     15.99985     44.04013         0.013911      0.024860     -0.007238
     15.60642      6.96845     44.04013        -0.014686      0.032738     -0.063219
     15.60396     15.99985     44.04013        -0.036338      0.033143      0.028792
      2.06108      6.57881     44.04000         0.063244     -0.019954     -0.042864
      2.05862     15.61021     44.04000        -0.006168      0.019063      0.024980
     11.09148      6.57881     44.04000        -0.025749     -0.033466      0.039178
     11.08902     15.61021     44.04000         0.007572     -0.011612      0.002576
      6.96686      2.45259     44.04007        -0.041630     -0.029796     -0.052827
      6.96440     11.48399     44.04007        -0.001091      0.005572      0.010252
     15.99726      2.45259     44.04007        -0.013178     -0.010767     -0.054511
     15.99481     11.48399     44.04007         0.036951      0.003489     -0.036921
      2.43163      2.08322     50.06849         0.014051     -0.006087      0.020648
      2.42917     11.11462     50.06849         0.009692     -0.009460      0.022082
     11.46203      2.08322     50.06849         0.004018     -0.017277      0.021912
     11.45957     11.11462     50.06849         0.024774      0.004095      0.021901
      6.59631      6.94818     50.06849        -0.018480      0.001405      0.022310
      6.59385     15.97958     50.06849        -0.004312      0.015890      0.021843
     15.62671      6.94818     50.06849        -0.007507      0.011317      0.020982
     15.62425     15.97958     50.06849        -0.019739      0.000770      0.020870
      2.08113      6.59901     50.06905        -0.002903     -0.018395      0.022000
      2.07867     15.63041     50.06905        -0.013727     -0.005772      0.021868
     11.11153      6.59901     50.06905        -0.010241     -0.008933      0.022469
     11.10907     15.63041     50.06905        -0.001286     -0.018572      0.021415
      6.94681      2.43239     50.06905         0.007660      0.011722      0.021975
      6.94435     11.46379     50.06905         0.009262      0.011169      0.023158
     15.97721      2.43239     50.06905         0.015107      0.004414      0.021503
     15.97475     11.46379     50.06905        -0.002913      0.023196      0.021300
     18.02790      0.08682     37.72379        -0.101980     -0.182643      0.015633
      0.12550      9.06667     37.90762        -0.104623      0.109570     -0.236640
      8.97101      0.12694     37.67191         0.176133     -0.077009     -0.025688
      8.96739      8.99098     37.79945         0.112040      0.222208     -0.067919
      4.48309      4.50515     37.65845         0.170152     -0.062502      0.029244
      4.55686     13.56420     37.71141        -0.178298     -0.002554     -0.185807
     13.41757      4.55627     37.98116         0.053088     -0.034006     -0.283305
     13.42396     13.76912     37.79334        -0.015051     -0.135738     -0.198325
      0.00001      0.00001     44.04300         0.039090     -0.029572      0.076090
     -0.00245      9.03141     44.04300         0.101819      0.011703      0.191305
      9.03041      0.00001     44.04300         0.028064      0.023083      0.013518
      9.02795      9.03141     44.04300         0.038841      0.026747      0.145781
      4.51397      4.51569     44.04275        -0.004377     -0.007905      0.025191
      4.51151     13.54709     44.04275        -0.050213     -0.038959      0.034852
     13.54437      4.51569     44.04275        -0.063757     -0.041117      0.335663
     13.54191     13.54709     44.04275        -0.080665     -0.004748      0.057353
      0.00000      0.00000     50.44728         0.002926      0.003517     -0.639799
     -0.00246      9.03140     50.44728         0.003190     -0.004049     -0.648239
      9.03040      0.00000     50.44728        -0.002736      0.004691     -0.633402
      9.02794      9.03140     50.44728        -0.003133     -0.004216     -0.651494
      4.51397      4.51570     50.44728         0.000644      0.005930     -0.615166
      4.51151     13.54710     50.44728         0.000886     -0.006053     -0.644925
     13.54437      4.51570     50.44728        -0.001358      0.005725     -0.650119
     13.54191     13.54710     50.44728         0.000479     -0.005728     -0.598031
 -----------------------------------------------------------------------------------
    total drift:                               -0.026678      0.024020      0.273503


--------------------------------------------------------------------------------------------------------



  FREE ENERGIE OF THE ION-ELECTRON SYSTEM (eV)
  ---------------------------------------------------
  free  energy   TOTEN  =     -1570.65880064 eV

  energy  without entropy=    -1570.65880064  energy(sigma->0) =    -1570.65880064
 


--------------------------------------------------------------------------------------------------------


    POTLOK:  cpu time    0.5012: real time    0.5011


--------------------------------------------------------------------------------------------------------


     LOOP+:  cpu time  306.4525: real time  307.0129
 vacuum level on the upper side and lower side of the slab         2.326         1.550
    4ORBIT:  cpu time    0.0000: real time    0.0000

 total amount of memory used by VASP MPI-rank0  8653585. kBytes
=======================================================================

   base      :      30000. kBytes
   nonlr-proj:      53623. kBytes
   fftplans  :     249280. kBytes
   grid      :     701440. kBytes
   one-center:       2636. kBytes
   wavefun   :    7616606. kBytes
 
  
  
 General timing and accounting informations for this job:
 ========================================================
  
                  Total CPU time used (sec):      518.876
                            User time (sec):      417.796
                          System time (sec):      101.080
                         Elapsed time (sec):      520.999
  
                   Maximum memory used (kb):    10309192.
                   Average memory used (kb):          N/A
  
                          Minor page faults:      3685546
                          Major page faults:           12
                 Voluntary context switches:        11121
