<?xml version="1.0" encoding="ISO-8859-1"?>
<modeling>
 <generator>
  <i name="program" type="string">vasp </i>
  <i name="version" type="string">6.2.1  </i>
  <i name="subversion" type="string">16May21 (build Nov 15 2021 14:57:28) complex                          parallel </i>
  <i name="platform" type="string">LinuxPGI </i>
  <i name="date" type="string">2023 07 30 </i>
  <i name="time" type="string">17:17:24 </i>
 </generator>
 <incar>
  <i type="string" name="SYSTEM">PSC</i>
  <i type="int" name="ISTART">     1</i>
  <i type="string" name="PREC">Normal</i>
  <i name="BMIX">      0.01000000</i>
  <i name="AMIN">      0.01000000</i>
  <i type="int" name="ICHARG">     1</i>
  <i type="int" name="NELM">   600</i>
  <i type="int" name="ISYM">     0</i>
  <i name="ENCUT">    500.00000000</i>
  <i type="string" name="LREAL">Auto</i>
  <i type="int" name="ISMEAR">     0</i>
  <i name="SIGMA">      0.05000000</i>
  <i type="logical" name="LWAVE"> F  </i>
  <i type="logical" name="LVTOT"> T  </i>
  <i type="logical" name="GGA_COMPAT"> F  </i>
  <i type="logical" name="LDIPOL"> T  </i>
  <i type="int" name="IDIPOL">     3</i>
  <i type="int" name="IVDW">    12</i>
 </incar>
 <primitive_cell>
  <structure name="primitive_cell" >
   <crystal>
    <varray name="basis" >
     <v>      18.06080055       0.00000000       0.00000000 </v>
     <v>      -0.00491865      18.06279945       0.00000000 </v>
     <v>       0.00000000       0.00000000      62.48749924 </v>
    </varray>
    <i name="volume">  20385.21054034 </i>
    <varray name="rec_basis" >
     <v>       0.05536853       0.00001508      -0.00000000 </v>
     <v>       0.00000000       0.05536240       0.00000000 </v>
     <v>       0.00000000      -0.00000000       0.01600320 </v>
    </varray>
   </crystal>
   <varray name="positions" >
    <v>       0.44616371       0.30048345       0.58272465 </v>
    <v>       0.44350106       0.83258075       0.57906650 </v>
    <v>       0.95550160       0.26792838       0.58614959 </v>
    <v>       0.96932546       0.80654800       0.58626838 </v>
    <v>       0.29976620       0.04417244       0.58346936 </v>
    <v>       0.30273888       0.55013432       0.58276683 </v>
    <v>       0.77606899       0.06636412       0.58159173 </v>
    <v>       0.10249227       0.19137265       0.55384698 </v>
    <v>       0.08104300       0.67786733       0.55661566 </v>
    <v>       0.58245293       0.17752866       0.55740006 </v>
    <v>       0.53942133       0.65787506       0.56633593 </v>
    <v>       0.35323711       0.05041514       0.55974929 </v>
    <v>       0.31362689       0.59695137       0.55833915 </v>
    <v>       0.83307236       0.07813473       0.55895158 </v>
    <v>       0.07466892       0.20148370       0.58067675 </v>
    <v>       0.04679371       0.69199045       0.58211142 </v>
    <v>       0.56284284       0.22227051       0.58131616 </v>
    <v>       0.50896972       0.71091695       0.58732493 </v>
    <v>       0.22061944       0.43686939       0.58240732 </v>
    <v>       0.18126957       0.97106504       0.58110530 </v>
    <v>       0.68937717       0.95925697       0.58122868 </v>
    <v>       0.39077081       0.29680535       0.55963885 </v>
    <v>       0.43873792       0.85394640       0.55186648 </v>
    <v>       0.90728405       0.29354963       0.56367799 </v>
    <v>       0.95477903       0.86083587       0.56422754 </v>
    <v>       0.18210427       0.41271228       0.55745390 </v>
    <v>       0.15846293       0.93485002       0.55574446 </v>
    <v>       0.69221717       0.89999039       0.55814093 </v>
    <v>       0.47367162       0.21848448       0.54111494 </v>
    <v>       0.50055317       0.74588703       0.54023867 </v>
    <v>       0.99564661       0.25031465       0.54022145 </v>
    <v>       0.02603809       0.78419742       0.54190923 </v>
    <v>       0.23891264       0.51326685       0.53997598 </v>
    <v>       0.26817273       0.98212365       0.54015320 </v>
    <v>       0.78128359       0.97128031       0.54197303 </v>
    <v>       0.45247431       0.30668169       0.67579642 </v>
    <v>       0.43943843       0.81113839       0.67505018 </v>
    <v>       0.95081852       0.29032462       0.67757595 </v>
    <v>       0.94480744       0.80613713       0.67532141 </v>
    <v>       0.30122360       0.04794945       0.67511867 </v>
    <v>       0.29476610       0.55314501       0.67662172 </v>
    <v>       0.81064418       0.04972441       0.67500189 </v>
    <v>       0.83196525       0.53851930       0.67420815 </v>
    <v>       0.08531686       0.17179026       0.64851252 </v>
    <v>       0.08711522       0.68347445       0.65359527 </v>
    <v>       0.57151698       0.16504136       0.65072665 </v>
    <v>       0.57004791       0.66734058       0.65534635 </v>
    <v>       0.18647965       0.41122425       0.64747612 </v>
    <v>       0.16943642       0.91939863       0.64919070 </v>
    <v>       0.65942941       0.44275919       0.65345144 </v>
    <v>       0.66467973       0.93268030       0.65098079 </v>
    <v>       0.06172480       0.19222743       0.67449141 </v>
    <v>       0.04430057       0.70361043       0.67762430 </v>
    <v>       0.55424071       0.20089630       0.67548618 </v>
    <v>       0.53904714       0.70334771       0.67966090 </v>
    <v>       0.20470529       0.43833344       0.67372002 </v>
    <v>       0.19775836       0.94542057       0.67499774 </v>
    <v>       0.71561958       0.44495327       0.67673484 </v>
    <v>       0.69751840       0.95707750       0.67624799 </v>
    <v>       0.41650871       0.32396103       0.65067262 </v>
    <v>       0.42183934       0.83339790       0.64859524 </v>
    <v>       0.91881821       0.31921034       0.65276771 </v>
    <v>       0.92827595       0.83995971       0.64986259 </v>
    <v>       0.32854936       0.07549385       0.64979965 </v>
    <v>       0.32575315       0.58631189       0.65175750 </v>
    <v>       0.83720794       0.07445849       0.64911152 </v>
    <v>       0.83996967       0.57820903       0.64854610 </v>
    <v>       0.99640249       0.25116701       0.63312236 </v>
    <v>       0.02027218       0.76720189       0.63455154 </v>
    <v>       0.48606674       0.23677763       0.63310197 </v>
    <v>       0.50304838       0.74424893       0.63444690 </v>
    <v>       0.24856131       0.99611308       0.63152945 </v>
    <v>       0.25953605       0.50137153       0.63173066 </v>
    <v>       0.74832961       0.00126519       0.63213394 </v>
    <v>       0.73389759       0.52274451       0.63446113 </v>
    <v>       0.44874502       0.30128397       0.76888902 </v>
    <v>       0.44874501       0.80128391       0.76888902 </v>
    <v>       0.94874497       0.30128397       0.76888902 </v>
    <v>       0.94874501       0.80128391       0.76888902 </v>
    <v>       0.30127600       0.05129450       0.76887296 </v>
    <v>       0.30127601       0.55129450       0.76887296 </v>
    <v>       0.80127594       0.05129450       0.76887296 </v>
    <v>       0.80127598       0.55129450       0.76887296 </v>
    <v>       0.07877100       0.17118050       0.74344197 </v>
    <v>       0.07877101       0.67118045       0.74344197 </v>
    <v>       0.57877100       0.17118050       0.74344197 </v>
    <v>       0.57877099       0.67118045       0.74344197 </v>
    <v>       0.17119950       0.42117448       0.74342103 </v>
    <v>       0.17119950       0.92117451       0.74342103 </v>
    <v>       0.67119951       0.42117448       0.74342103 </v>
    <v>       0.67119950       0.92117451       0.74342103 </v>
    <v>       0.05125600       0.19871499       0.76888902 </v>
    <v>       0.05125600       0.69871493       0.76888902 </v>
    <v>       0.55125603       0.19871499       0.76888902 </v>
    <v>       0.55125602       0.69871493       0.76888902 </v>
    <v>       0.19872349       0.44870397       0.76887205 </v>
    <v>       0.19872349       0.94870397       0.76887205 </v>
    <v>       0.69872352       0.44870397       0.76887205 </v>
    <v>       0.69872351       0.94870397       0.76887205 </v>
    <v>       0.42123152       0.32881747       0.74344197 </v>
    <v>       0.42123151       0.82881744       0.74344197 </v>
    <v>       0.92123147       0.32881747       0.74344197 </v>
    <v>       0.92123151       0.82881744       0.74344197 </v>
    <v>       0.32880050       0.07882500       0.74342103 </v>
    <v>       0.32880049       0.57882496       0.74342103 </v>
    <v>       0.82880048       0.07882500       0.74342103 </v>
    <v>       0.82880052       0.57882496       0.74342103 </v>
    <v>       0.00000350       0.25000148       0.72582199 </v>
    <v>       0.00000350       0.75000145       0.72582199 </v>
    <v>       0.50000351       0.25000148       0.72582199 </v>
    <v>       0.50000350       0.75000145       0.72582199 </v>
    <v>       0.25000050       0.00000000       0.72580398 </v>
    <v>       0.25000052       0.50000000       0.72580398 </v>
    <v>       0.75000050       0.00000000       0.72580398 </v>
    <v>       0.75000049       0.50000000       0.72580398 </v>
    <v>       0.71852276       0.44958094       0.54595417 </v>
    <v>       0.74039500       0.51008547       0.52456213 </v>
    <v>       0.65017314       0.54274671       0.56083990 </v>
    <v>       0.68457760       0.63618096       0.56337532 </v>
    <v>       0.83633007       0.51146196       0.57886938 </v>
    <v>       0.77332911       0.57682874       0.58754562 </v>
    <v>       0.87081882       0.55959256       0.54210702 </v>
    <v>       0.80851828       0.62001303       0.52850060 </v>
    <v>       0.86887753       0.48038418       0.52572154 </v>
    <v>       0.86407514       0.44817040       0.55179781 </v>
    <v>       0.88792248       0.35214621       0.52738203 </v>
    <v>       0.79720956       0.33755601       0.53771039 </v>
    <v>       0.61810764       0.55218726       0.52690611 </v>
    <v>       0.69071804       0.61180996       0.51895969 </v>
    <v>       0.61437630       0.64822622       0.53238847 </v>
    <v>       0.72936139       0.45485121       0.60198802 </v>
    <v>       0.74199594       0.41309163       0.57758629 </v>
    <v>       0.66889487       0.47381266       0.58170180 </v>
    <v>       0.83723534       0.67647511       0.57229263 </v>
    <v>       0.87533191       0.70838688       0.54813679 </v>
    <v>       0.91978140       0.63603360       0.56307167 </v>
    <v>       0.83959001       0.39961892       0.49363328 </v>
    <v>       0.80384077       0.30896358       0.50002030 </v>
    <v>       0.67066981       0.31753011       0.52304443 </v>
    <v>       0.75287273       0.48774829       0.48062506 </v>
    <v>       0.54163318       0.36610764       0.51918905 </v>
    <v>       0.62354050       0.53803805       0.47661922 </v>
    <v>       0.51769083       0.48105460       0.49676012 </v>
    <v>       0.00328770       0.24408563       0.55777807 </v>
    <v>       0.01826626       0.77024789       0.55910872 </v>
    <v>       0.48529467       0.23724017       0.55739280 </v>
    <v>       0.49095036       0.75710549       0.55782513 </v>
    <v>       0.24659041       0.50425967       0.55719470 </v>
    <v>       0.25720218       0.99305423       0.55712645 </v>
    <v>       0.76179449       0.98836627       0.55787812 </v>
    <v>       0.00139411       0.24618204       0.65007711 </v>
    <v>       0.00842303       0.76214276       0.65105380 </v>
    <v>       0.49297774       0.24478570       0.64989769 </v>
    <v>       0.49558116       0.75181463       0.65130324 </v>
    <v>       0.25615344       0.49821438       0.64892911 </v>
    <v>       0.24978364       0.99846900       0.64876294 </v>
    <v>       0.75096880       0.51103699       0.65111247 </v>
    <v>       0.75176244       0.00384642       0.64933605 </v>
    <v>       0.49998898       0.24999498       0.74327702 </v>
    <v>       0.49998903       0.74999496       0.74327702 </v>
    <v>       0.99998898       0.24999498       0.74327702 </v>
    <v>       0.99998903       0.74999496       0.74327702 </v>
    <v>       0.25000050       0.00000100       0.74325596 </v>
    <v>       0.25000052       0.50000100       0.74325596 </v>
    <v>       0.75000050       0.00000100       0.74325596 </v>
    <v>       0.75000049       0.50000100       0.74325596 </v>
    <v>       0.72003530       0.39735799       0.50219291 </v>
    <v>       0.65823394       0.36425386       0.51279562 </v>
    <v>       0.70556888       0.46021096       0.48860810 </v>
    <v>       0.58737251       0.39267927       0.51081735 </v>
    <v>       0.63243249       0.48757617       0.48701156 </v>
    <v>       0.57517295       0.45535078       0.49766738 </v>
    <v>       0.76070270       0.48500989       0.53889709 </v>
    <v>       0.68492671       0.58662519       0.55355084 </v>
    <v>       0.77744199       0.52743448       0.57759630 </v>
    <v>       0.82715888       0.60062265       0.54490037 </v>
    <v>       0.83292763       0.45003843       0.53661026 </v>
    <v>       0.83044352       0.37454709       0.52777426 </v>
    <v>       0.65154276       0.59974236       0.53147233 </v>
    <v>       0.72725558       0.46533276       0.58480129 </v>
    <v>       0.86714231       0.65957731       0.55806804 </v>
    <v>       0.80068252       0.36883612       0.50475412 </v>
    <v>       0.06312686       0.21060829       0.56464559 </v>
    <v>       0.05008798       0.71007197       0.56603552 </v>
    <v>       0.54557027       0.20890010       0.56615535 </v>
    <v>       0.51722294       0.70735163       0.57116923 </v>
    <v>       0.43905243       0.28133831       0.56686955 </v>
    <v>       0.45663921       0.81668110       0.56282577 </v>
    <v>       0.95304699       0.27031283       0.56994224 </v>
    <v>       0.97921855       0.81555170       0.57058586 </v>
    <v>       0.21568359       0.44821512       0.56665014 </v>
    <v>       0.19496608       0.96482873       0.56565885 </v>
    <v>       0.71078680       0.94883422       0.56665472 </v>
    <v>       0.30478075       0.03152183       0.56783202 </v>
    <v>       0.28993496       0.55320810       0.56722716 </v>
    <v>       0.79238405       0.04784024       0.56727087 </v>
    <v>       0.05345119       0.20000501       0.65852142 </v>
    <v>       0.05023816       0.71185099       0.66191785 </v>
    <v>       0.54391274       0.20045988       0.65959311 </v>
    <v>       0.53601947       0.70598232       0.66306115 </v>
    <v>       0.21469205       0.44634882       0.65704334 </v>
    <v>       0.20157611       0.95093053       0.65812950 </v>
    <v>       0.70592993       0.46360697       0.66130445 </v>
    <v>       0.70060997       0.96104847       0.65935545 </v>
    <v>       0.45273119       0.29326627       0.65921657 </v>
    <v>       0.45077056       0.80014084       0.65856684 </v>
    <v>       0.95579491       0.28633881       0.66106118 </v>
    <v>       0.95656641       0.80473007       0.65974158 </v>
    <v>       0.29472227       0.04193618       0.65825074 </v>
    <v>       0.29326616       0.54925793       0.65966484 </v>
    <v>       0.80161966       0.04360057       0.65817278 </v>
    <v>       0.80929654       0.54262564       0.65850305 </v>
    <v>       0.04586250       0.20411950       0.75272599 </v>
    <v>       0.04586250       0.70411946       0.75272599 </v>
    <v>       0.54586251       0.20411950       0.75272599 </v>
    <v>       0.54586250       0.70411946       0.75272599 </v>
    <v>       0.20411900       0.45410100       0.75270499 </v>
    <v>       0.20411899       0.95410095       0.75270499 </v>
    <v>       0.70411898       0.45410100       0.75270499 </v>
    <v>       0.70411896       0.95410095       0.75270499 </v>
    <v>       0.45414002       0.29588849       0.75272697 </v>
    <v>       0.45414001       0.79588852       0.75272697 </v>
    <v>       0.95414002       0.29588849       0.75272697 </v>
    <v>       0.95414006       0.79588852       0.75272697 </v>
    <v>       0.29588249       0.04590050       0.75270499 </v>
    <v>       0.29588248       0.54590053       0.75270499 </v>
    <v>       0.79588244       0.04590050       0.75270499 </v>
    <v>       0.79588248       0.54590053       0.75270499 </v>
    <v>       0.76238002       0.55409193       0.55448676 </v>
    <v>       0.49155460       0.01474066       0.55160398 </v>
    <v>       0.48337880       0.51783253       0.55603272 </v>
    <v>       0.99032136       0.00306944       0.55293591 </v>
    <v>       0.02615322       0.51013066       0.55620726 </v>
    <v>       0.25053338       0.24658225       0.55141376 </v>
    <v>       0.24845525       0.75341725       0.55198192 </v>
    <v>       0.73266190       0.22247614       0.55884371 </v>
    <v>       0.72390736       0.77728942       0.54610666 </v>
    <v>       0.00515556       0.00166477       0.65517255 </v>
    <v>       0.01860463       0.50193567       0.65612635 </v>
    <v>       0.50169746       0.99956846       0.65449742 </v>
    <v>       0.50224405       0.49424626       0.65548529 </v>
    <v>       0.24996408       0.24542590       0.65376736 </v>
    <v>       0.25282717       0.75565155       0.65500406 </v>
    <v>       0.73968828       0.25687529       0.65642371 </v>
    <v>       0.75302755       0.75571221       0.65377157 </v>
    <v>       0.14225428       0.10600421       0.60706197 </v>
    <v>       0.14625146       0.60824268       0.60911597 </v>
    <v>       0.64297367       0.10311480       0.60933525 </v>
    <v>       0.62074323       0.63150757       0.61452037 </v>
    <v>       0.35638195       0.39433440       0.60744920 </v>
    <v>       0.36170522       0.89181392       0.60820038 </v>
    <v>       0.87767607       0.37412212       0.61309473 </v>
    <v>       0.85670542       0.89670151       0.60916792 </v>
    <v>       0.11534642       0.35410590       0.60791639 </v>
    <v>       0.11493973       0.86487357       0.61020249 </v>
    <v>       0.58920969       0.34299428       0.60837589 </v>
    <v>       0.60692769       0.86097694       0.61053251 </v>
    <v>       0.39231753       0.14111094       0.60883308 </v>
    <v>       0.38606609       0.64027310       0.61177690 </v>
    <v>       0.88862427       0.13666197       0.61047214 </v>
    <v>       0.91399145       0.64906196       0.61504495 </v>
    <v>       0.00000000       0.00000000       0.75492797 </v>
    <v>       0.00000000       0.50000000       0.75492797 </v>
    <v>       0.50000000       0.00000000       0.75492797 </v>
    <v>       0.49999999       0.50000000       0.75492797 </v>
    <v>       0.25000050       0.25000000       0.75493902 </v>
    <v>       0.25000051       0.74999997       0.75493902 </v>
    <v>       0.75000047       0.25000000       0.75493902 </v>
    <v>       0.75000046       0.74999997       0.75493902 </v>
    <v>       0.13579050       0.11421000       0.70478299 </v>
    <v>       0.13579050       0.61420998       0.70478299 </v>
    <v>       0.63579045       0.11421000       0.70478299 </v>
    <v>       0.63579049       0.61420998       0.70478299 </v>
    <v>       0.36420952       0.38578999       0.70478299 </v>
    <v>       0.36420950       0.88578996       0.70478299 </v>
    <v>       0.86420954       0.38578999       0.70478299 </v>
    <v>       0.86420953       0.88578996       0.70478299 </v>
    <v>       0.11421799       0.36421899       0.70478098 </v>
    <v>       0.11421799       0.86421899       0.70478098 </v>
    <v>       0.61421800       0.36421899       0.70478098 </v>
    <v>       0.61421799       0.86421899       0.70478098 </v>
    <v>       0.38578201       0.13578149       0.70478202 </v>
    <v>       0.38578200       0.63578149       0.70478202 </v>
    <v>       0.88578199       0.13578149       0.70478202 </v>
    <v>       0.88578203       0.63578149       0.70478202 </v>
    <v>       0.13466700       0.11533200       0.80125603 </v>
    <v>       0.13466699       0.61533199       0.80125603 </v>
    <v>       0.63466699       0.11533200       0.80125603 </v>
    <v>       0.63466698       0.61533199       0.80125603 </v>
    <v>       0.36533300       0.38466799       0.80125603 </v>
    <v>       0.36533299       0.88466796       0.80125603 </v>
    <v>       0.86533295       0.38466799       0.80125603 </v>
    <v>       0.86533294       0.88466796       0.80125603 </v>
    <v>       0.11532850       0.36533700       0.80126500 </v>
    <v>       0.11532850       0.86533698       0.80126500 </v>
    <v>       0.61532850       0.36533700       0.80126500 </v>
    <v>       0.61532849       0.86533698       0.80126500 </v>
    <v>       0.38467151       0.13466300       0.80126500 </v>
    <v>       0.38467150       0.63466297       0.80126500 </v>
    <v>       0.88467149       0.13466300       0.80126500 </v>
    <v>       0.88467153       0.63466297       0.80126500 </v>
    <v>       0.99817956       0.00480674       0.60370144 </v>
    <v>       0.00708568       0.50195256       0.60664319 </v>
    <v>       0.49671373       0.00702792       0.60287119 </v>
    <v>       0.49664672       0.49776254       0.60491219 </v>
    <v>       0.24829006       0.24941608       0.60265582 </v>
    <v>       0.25251116       0.75094669       0.60350328 </v>
    <v>       0.74297964       0.25224615       0.60782018 </v>
    <v>       0.74347243       0.76229144       0.60481445 </v>
    <v>       0.00000050       0.00000050       0.70482896 </v>
    <v>       0.00000050       0.50000048       0.70482896 </v>
    <v>       0.50000048       0.00000050       0.70482896 </v>
    <v>       0.50000046       0.50000048       0.70482896 </v>
    <v>       0.24999999       0.24999947       0.70482499 </v>
    <v>       0.25000001       0.74999950       0.70482499 </v>
    <v>       0.74999999       0.24999947       0.70482499 </v>
    <v>       0.74999998       0.74999950       0.70482499 </v>
    <v>       0.00000000       0.00000000       0.80731797 </v>
    <v>       0.00000000       0.50000000       0.80731797 </v>
    <v>       0.50000000       0.00000000       0.80731797 </v>
    <v>       0.49999999       0.50000000       0.80731797 </v>
    <v>       0.24999999       0.25000000       0.80731797 </v>
    <v>       0.25000001       0.74999997       0.80731797 </v>
    <v>       0.74999999       0.25000000       0.80731797 </v>
    <v>       0.74999998       0.74999997       0.80731797 </v>
   </varray>
  </structure>
  <varray name="primitive_index" >
   <v type="int" >        1 </v>
   <v type="int" >        2 </v>
   <v type="int" >        3 </v>
   <v type="int" >        4 </v>
   <v type="int" >        5 </v>
   <v type="int" >        6 </v>
   <v type="int" >        7 </v>
   <v type="int" >        8 </v>
   <v type="int" >        9 </v>
   <v type="int" >       10 </v>
   <v type="int" >       11 </v>
   <v type="int" >       12 </v>
   <v type="int" >       13 </v>
   <v type="int" >       14 </v>
   <v type="int" >       15 </v>
   <v type="int" >       16 </v>
   <v type="int" >       17 </v>
   <v type="int" >       18 </v>
   <v type="int" >       19 </v>
   <v type="int" >       20 </v>
   <v type="int" >       21 </v>
   <v type="int" >       22 </v>
   <v type="int" >       23 </v>
   <v type="int" >       24 </v>
   <v type="int" >       25 </v>
   <v type="int" >       26 </v>
   <v type="int" >       27 </v>
   <v type="int" >       28 </v>
   <v type="int" >       29 </v>
   <v type="int" >       30 </v>
   <v type="int" >       31 </v>
   <v type="int" >       32 </v>
   <v type="int" >       33 </v>
   <v type="int" >       34 </v>
   <v type="int" >       35 </v>
   <v type="int" >       36 </v>
   <v type="int" >       37 </v>
   <v type="int" >       38 </v>
   <v type="int" >       39 </v>
   <v type="int" >       40 </v>
   <v type="int" >       41 </v>
   <v type="int" >       42 </v>
   <v type="int" >       43 </v>
   <v type="int" >       44 </v>
   <v type="int" >       45 </v>
   <v type="int" >       46 </v>
   <v type="int" >       47 </v>
   <v type="int" >       48 </v>
   <v type="int" >       49 </v>
   <v type="int" >       50 </v>
   <v type="int" >       51 </v>
   <v type="int" >       52 </v>
   <v type="int" >       53 </v>
   <v type="int" >       54 </v>
   <v type="int" >       55 </v>
   <v type="int" >       56 </v>
   <v type="int" >       57 </v>
   <v type="int" >       58 </v>
   <v type="int" >       59 </v>
   <v type="int" >       60 </v>
   <v type="int" >       61 </v>
   <v type="int" >       62 </v>
   <v type="int" >       63 </v>
   <v type="int" >       64 </v>
   <v type="int" >       65 </v>
   <v type="int" >       66 </v>
   <v type="int" >       67 </v>
   <v type="int" >       68 </v>
   <v type="int" >       69 </v>
   <v type="int" >       70 </v>
   <v type="int" >       71 </v>
   <v type="int" >       72 </v>
   <v type="int" >       73 </v>
   <v type="int" >       74 </v>
   <v type="int" >       75 </v>
   <v type="int" >       76 </v>
   <v type="int" >       77 </v>
   <v type="int" >       78 </v>
   <v type="int" >       79 </v>
   <v type="int" >       80 </v>
   <v type="int" >       81 </v>
   <v type="int" >       82 </v>
   <v type="int" >       83 </v>
   <v type="int" >       84 </v>
   <v type="int" >       85 </v>
   <v type="int" >       86 </v>
   <v type="int" >       87 </v>
   <v type="int" >       88 </v>
   <v type="int" >       89 </v>
   <v type="int" >       90 </v>
   <v type="int" >       91 </v>
   <v type="int" >       92 </v>
   <v type="int" >       93 </v>
   <v type="int" >       94 </v>
   <v type="int" >       95 </v>
   <v type="int" >       96 </v>
   <v type="int" >       97 </v>
   <v type="int" >       98 </v>
   <v type="int" >       99 </v>
   <v type="int" >      100 </v>
   <v type="int" >      101 </v>
   <v type="int" >      102 </v>
   <v type="int" >      103 </v>
   <v type="int" >      104 </v>
   <v type="int" >      105 </v>
   <v type="int" >      106 </v>
   <v type="int" >      107 </v>
   <v type="int" >      108 </v>
   <v type="int" >      109 </v>
   <v type="int" >      110 </v>
   <v type="int" >      111 </v>
   <v type="int" >      112 </v>
   <v type="int" >      113 </v>
   <v type="int" >      114 </v>
   <v type="int" >      115 </v>
   <v type="int" >      116 </v>
   <v type="int" >      117 </v>
   <v type="int" >      118 </v>
   <v type="int" >      119 </v>
   <v type="int" >      120 </v>
   <v type="int" >      121 </v>
   <v type="int" >      122 </v>
   <v type="int" >      123 </v>
   <v type="int" >      124 </v>
   <v type="int" >      125 </v>
   <v type="int" >      126 </v>
   <v type="int" >      127 </v>
   <v type="int" >      128 </v>
   <v type="int" >      129 </v>
   <v type="int" >      130 </v>
   <v type="int" >      131 </v>
   <v type="int" >      132 </v>
   <v type="int" >      133 </v>
   <v type="int" >      134 </v>
   <v type="int" >      135 </v>
   <v type="int" >      136 </v>
   <v type="int" >      137 </v>
   <v type="int" >      138 </v>
   <v type="int" >      139 </v>
   <v type="int" >      140 </v>
   <v type="int" >      141 </v>
   <v type="int" >      142 </v>
   <v type="int" >      143 </v>
   <v type="int" >      144 </v>
   <v type="int" >      145 </v>
   <v type="int" >      146 </v>
   <v type="int" >      147 </v>
   <v type="int" >      148 </v>
   <v type="int" >      149 </v>
   <v type="int" >      150 </v>
   <v type="int" >      151 </v>
   <v type="int" >      152 </v>
   <v type="int" >      153 </v>
   <v type="int" >      154 </v>
   <v type="int" >      155 </v>
   <v type="int" >      156 </v>
   <v type="int" >      157 </v>
   <v type="int" >      158 </v>
   <v type="int" >      159 </v>
   <v type="int" >      160 </v>
   <v type="int" >      161 </v>
   <v type="int" >      162 </v>
   <v type="int" >      163 </v>
   <v type="int" >      164 </v>
   <v type="int" >      165 </v>
   <v type="int" >      166 </v>
   <v type="int" >      167 </v>
   <v type="int" >      168 </v>
   <v type="int" >      169 </v>
   <v type="int" >      170 </v>
   <v type="int" >      171 </v>
   <v type="int" >      172 </v>
   <v type="int" >      173 </v>
   <v type="int" >      174 </v>
   <v type="int" >      175 </v>
   <v type="int" >      176 </v>
   <v type="int" >      177 </v>
   <v type="int" >      178 </v>
   <v type="int" >      179 </v>
   <v type="int" >      180 </v>
   <v type="int" >      181 </v>
   <v type="int" >      182 </v>
   <v type="int" >      183 </v>
   <v type="int" >      184 </v>
   <v type="int" >      185 </v>
   <v type="int" >      186 </v>
   <v type="int" >      187 </v>
   <v type="int" >      188 </v>
   <v type="int" >      189 </v>
   <v type="int" >      190 </v>
   <v type="int" >      191 </v>
   <v type="int" >      192 </v>
   <v type="int" >      193 </v>
   <v type="int" >      194 </v>
   <v type="int" >      195 </v>
   <v type="int" >      196 </v>
   <v type="int" >      197 </v>
   <v type="int" >      198 </v>
   <v type="int" >      199 </v>
   <v type="int" >      200 </v>
   <v type="int" >      201 </v>
   <v type="int" >      202 </v>
   <v type="int" >      203 </v>
   <v type="int" >      204 </v>
   <v type="int" >      205 </v>
   <v type="int" >      206 </v>
   <v type="int" >      207 </v>
   <v type="int" >      208 </v>
   <v type="int" >      209 </v>
   <v type="int" >      210 </v>
   <v type="int" >      211 </v>
   <v type="int" >      212 </v>
   <v type="int" >      213 </v>
   <v type="int" >      214 </v>
   <v type="int" >      215 </v>
   <v type="int" >      216 </v>
   <v type="int" >      217 </v>
   <v type="int" >      218 </v>
   <v type="int" >      219 </v>
   <v type="int" >      220 </v>
   <v type="int" >      221 </v>
   <v type="int" >      222 </v>
   <v type="int" >      223 </v>
   <v type="int" >      224 </v>
   <v type="int" >      225 </v>
   <v type="int" >      226 </v>
   <v type="int" >      227 </v>
   <v type="int" >      228 </v>
   <v type="int" >      229 </v>
   <v type="int" >      230 </v>
   <v type="int" >      231 </v>
   <v type="int" >      232 </v>
   <v type="int" >      233 </v>
   <v type="int" >      234 </v>
   <v type="int" >      235 </v>
   <v type="int" >      236 </v>
   <v type="int" >      237 </v>
   <v type="int" >      238 </v>
   <v type="int" >      239 </v>
   <v type="int" >      240 </v>
   <v type="int" >      241 </v>
   <v type="int" >      242 </v>
   <v type="int" >      243 </v>
   <v type="int" >      244 </v>
   <v type="int" >      245 </v>
   <v type="int" >      246 </v>
   <v type="int" >      247 </v>
   <v type="int" >      248 </v>
   <v type="int" >      249 </v>
   <v type="int" >      250 </v>
   <v type="int" >      251 </v>
   <v type="int" >      252 </v>
   <v type="int" >      253 </v>
   <v type="int" >      254 </v>
   <v type="int" >      255 </v>
   <v type="int" >      256 </v>
   <v type="int" >      257 </v>
   <v type="int" >      258 </v>
   <v type="int" >      259 </v>
   <v type="int" >      260 </v>
   <v type="int" >      261 </v>
   <v type="int" >      262 </v>
   <v type="int" >      263 </v>
   <v type="int" >      264 </v>
   <v type="int" >      265 </v>
   <v type="int" >      266 </v>
   <v type="int" >      267 </v>
   <v type="int" >      268 </v>
   <v type="int" >      269 </v>
   <v type="int" >      270 </v>
   <v type="int" >      271 </v>
   <v type="int" >      272 </v>
   <v type="int" >      273 </v>
   <v type="int" >      274 </v>
   <v type="int" >      275 </v>
   <v type="int" >      276 </v>
   <v type="int" >      277 </v>
   <v type="int" >      278 </v>
   <v type="int" >      279 </v>
   <v type="int" >      280 </v>
   <v type="int" >      281 </v>
   <v type="int" >      282 </v>
   <v type="int" >      283 </v>
   <v type="int" >      284 </v>
   <v type="int" >      285 </v>
   <v type="int" >      286 </v>
   <v type="int" >      287 </v>
   <v type="int" >      288 </v>
   <v type="int" >      289 </v>
   <v type="int" >      290 </v>
   <v type="int" >      291 </v>
   <v type="int" >      292 </v>
   <v type="int" >      293 </v>
   <v type="int" >      294 </v>
   <v type="int" >      295 </v>
   <v type="int" >      296 </v>
   <v type="int" >      297 </v>
   <v type="int" >      298 </v>
   <v type="int" >      299 </v>
   <v type="int" >      300 </v>
   <v type="int" >      301 </v>
   <v type="int" >      302 </v>
   <v type="int" >      303 </v>
   <v type="int" >      304 </v>
   <v type="int" >      305 </v>
   <v type="int" >      306 </v>
   <v type="int" >      307 </v>
   <v type="int" >      308 </v>
   <v type="int" >      309 </v>
   <v type="int" >      310 </v>
   <v type="int" >      311 </v>
   <v type="int" >      312 </v>
   <v type="int" >      313 </v>
   <v type="int" >      314 </v>
   <v type="int" >      315 </v>
   <v type="int" >      316 </v>
   <v type="int" >      317 </v>
   <v type="int" >      318 </v>
   <v type="int" >      319 </v>
   <v type="int" >      320 </v>
   <v type="int" >      321 </v>
   <v type="int" >      322 </v>
   <v type="int" >      323 </v>
   <v type="int" >      324 </v>
   <v type="int" >      325 </v>
  </varray>
 </primitive_cell>
 <kpoints>
  <generation param="Gamma">
   <v type="int" name="divisions">       3        3        1 </v>
   <v name="usershift">      0.00000000       0.00000000       0.00000000 </v>
   <v name="genvec1">      0.33333333       0.00000000       0.00000000 </v>
   <v name="genvec2">      0.00000000       0.33333333       0.00000000 </v>
   <v name="genvec3">      0.00000000       0.00000000       1.00000000 </v>
   <v name="shift">      0.00000000       0.00000000       0.00000000 </v>
  </generation>
  <varray name="kpointlist" >
   <v>       0.00000000       0.00000000       0.00000000 </v>
   <v>       0.33333333       0.00000000       0.00000000 </v>
   <v>       0.00000000       0.33333333       0.00000000 </v>
   <v>       0.33333333       0.33333333       0.00000000 </v>
   <v>      -0.33333333       0.33333333       0.00000000 </v>
  </varray>
  <varray name="weights" >
   <v>       0.11111111 </v>
   <v>       0.22222222 </v>
   <v>       0.22222222 </v>
   <v>       0.22222222 </v>
   <v>       0.22222222 </v>
  </varray>
 </kpoints>
 <parameters>
  <separator name="general" >
   <i type="string" name="SYSTEM">PSC</i>
   <i type="logical" name="LCOMPAT"> F  </i>
  </separator>
  <separator name="electronic" >
   <i type="string" name="PREC">normal</i>
   <i name="ENMAX">    500.00000000</i>
   <i name="ENAUG">    644.87300000</i>
   <i name="EDIFF">      0.00010000</i>
   <i type="int" name="IALGO">    38</i>
   <i type="int" name="IWAVPR">    10</i>
   <i type="int" name="NBANDS">   732</i>
   <i type="int" name="NBANDSLOW">    -1</i>
   <i type="int" name="NBANDSHIGH">    -1</i>
   <i name="NELECT">   1134.00000000</i>
   <i type="int" name="TURBO">     0</i>
   <i type="int" name="IRESTART">     0</i>
   <i type="int" name="NREBOOT">     0</i>
   <i type="int" name="NMIN">     0</i>
   <i name="EREF">      0.00000000</i>
   <separator name="electronic smearing" >
    <i type="int" name="ISMEAR">     0</i>
    <i name="SIGMA">      0.05000000</i>
    <i name="KSPACING">      0.50000000</i>
    <i type="logical" name="KGAMMA"> T  </i>
    <i type="logical" name="KBLOWUP"> T  </i>
   </separator>
   <separator name="electronic projectors" >
    <i type="logical" name="LREAL"> T  </i>
    <v name="ROPT">     -0.00050000     -0.00050000     -0.00050000     -0.00050000     -0.00050000</v>
    <i type="int" name="LMAXPAW">  -100</i>
    <i type="int" name="LMAXMIX">     2</i>
    <i type="logical" name="NLSPLINE"> F  </i>
   </separator>
   <separator name="electronic startup" >
    <i type="int" name="ISTART">     0</i>
    <i type="int" name="ICHARG">     1</i>
    <i type="int" name="INIWAV">     1</i>
   </separator>
   <separator name="electronic spin" >
    <i type="int" name="ISPIN">     1</i>
    <i type="logical" name="LNONCOLLINEAR"> F  </i>
    <v name="MAGMOM">      1.00000000      1.00000000      1.00000000      1.00000000      1.00000000      1.00000000      1.00000000      1.00000000      1.00000000      1.00000000      1.00000000      1.00000000      1.00000000      1.00000000      1.00000000      1.00000000      1.00000000      1.00000000      1.00000000      1.00000000
      1.00000000      1.00000000      1.00000000      1.00000000      1.00000000      1.00000000      1.00000000      1.00000000      1.00000000      1.00000000      1.00000000      1.00000000      1.00000000      1.00000000      1.00000000      1.00000000      1.00000000      1.00000000      1.00000000      1.00000000
      1.00000000      1.00000000      1.00000000      1.00000000      1.00000000      1.00000000      1.00000000      1.00000000      1.00000000      1.00000000      1.00000000      1.00000000      1.00000000      1.00000000      1.00000000      1.00000000      1.00000000      1.00000000      1.00000000      1.00000000
      1.00000000      1.00000000      1.00000000      1.00000000      1.00000000      1.00000000      1.00000000      1.00000000      1.00000000      1.00000000      1.00000000      1.00000000      1.00000000      1.00000000      1.00000000      1.00000000      1.00000000      1.00000000      1.00000000      1.00000000
      1.00000000      1.00000000      1.00000000      1.00000000      1.00000000      1.00000000      1.00000000      1.00000000      1.00000000      1.00000000      1.00000000      1.00000000      1.00000000      1.00000000      1.00000000      1.00000000      1.00000000      1.00000000      1.00000000      1.00000000
      1.00000000      1.00000000      1.00000000      1.00000000      1.00000000      1.00000000      1.00000000      1.00000000      1.00000000      1.00000000      1.00000000      1.00000000      1.00000000      1.00000000      1.00000000      1.00000000      1.00000000      1.00000000      1.00000000      1.00000000
      1.00000000      1.00000000      1.00000000      1.00000000      1.00000000      1.00000000      1.00000000      1.00000000      1.00000000      1.00000000      1.00000000      1.00000000      1.00000000      1.00000000      1.00000000      1.00000000      1.00000000      1.00000000      1.00000000      1.00000000
      1.00000000      1.00000000      1.00000000      1.00000000      1.00000000      1.00000000      1.00000000      1.00000000      1.00000000      1.00000000      1.00000000      1.00000000      1.00000000      1.00000000      1.00000000      1.00000000      1.00000000      1.00000000      1.00000000      1.00000000
      1.00000000      1.00000000      1.00000000      1.00000000      1.00000000      1.00000000      1.00000000      1.00000000      1.00000000      1.00000000      1.00000000      1.00000000      1.00000000      1.00000000      1.00000000      1.00000000      1.00000000      1.00000000      1.00000000      1.00000000
      1.00000000      1.00000000      1.00000000      1.00000000      1.00000000      1.00000000      1.00000000      1.00000000      1.00000000      1.00000000      1.00000000      1.00000000      1.00000000      1.00000000      1.00000000      1.00000000      1.00000000      1.00000000      1.00000000      1.00000000
      1.00000000      1.00000000      1.00000000      1.00000000      1.00000000      1.00000000      1.00000000      1.00000000      1.00000000      1.00000000      1.00000000      1.00000000      1.00000000      1.00000000      1.00000000      1.00000000      1.00000000      1.00000000      1.00000000      1.00000000
      1.00000000      1.00000000      1.00000000      1.00000000      1.00000000      1.00000000      1.00000000      1.00000000      1.00000000      1.00000000      1.00000000      1.00000000      1.00000000      1.00000000      1.00000000      1.00000000      1.00000000      1.00000000      1.00000000      1.00000000
      1.00000000      1.00000000      1.00000000      1.00000000      1.00000000      1.00000000      1.00000000      1.00000000      1.00000000      1.00000000      1.00000000      1.00000000      1.00000000      1.00000000      1.00000000      1.00000000      1.00000000      1.00000000      1.00000000      1.00000000
      1.00000000      1.00000000      1.00000000      1.00000000      1.00000000      1.00000000      1.00000000      1.00000000      1.00000000      1.00000000      1.00000000      1.00000000      1.00000000      1.00000000      1.00000000      1.00000000      1.00000000      1.00000000      1.00000000      1.00000000
      1.00000000      1.00000000      1.00000000      1.00000000      1.00000000      1.00000000      1.00000000      1.00000000      1.00000000      1.00000000      1.00000000      1.00000000      1.00000000      1.00000000      1.00000000      1.00000000      1.00000000      1.00000000      1.00000000      1.00000000
      1.00000000      1.00000000      1.00000000      1.00000000      1.00000000      1.00000000      1.00000000      1.00000000      1.00000000      1.00000000      1.00000000      1.00000000      1.00000000      1.00000000      1.00000000      1.00000000      1.00000000      1.00000000      1.00000000      1.00000000
      1.00000000      1.00000000      1.00000000      1.00000000      1.00000000</v>
    <i name="NUPDOWN">     -1.00000000</i>
    <i type="logical" name="LSORBIT"> F  </i>
    <v name="SAXIS">      0.00000000      0.00000000      1.00000000</v>
    <i type="logical" name="LSPIRAL"> F  </i>
    <v name="QSPIRAL">      0.00000000      0.00000000      0.00000000</v>
    <i type="logical" name="LZEROZ"> F  </i>
   </separator>
   <separator name="electronic exchange-correlation" >
    <i type="logical" name="LASPH"> F  </i>
    <i type="logical" name="LMETAGGA"> F  </i>
   </separator>
   <separator name="electronic convergence" >
    <i type="int" name="NELM">   600</i>
    <i type="int" name="NELMDL">     0</i>
    <i type="int" name="NELMIN">     2</i>
    <i name="ENINI">    500.00000000</i>
    <separator name="electronic convergence detail" >
     <i type="logical" name="LDIAG"> T  </i>
     <i type="logical" name="LSUBROT"> F  </i>
     <i name="WEIMIN">      0.00000000</i>
     <i name="EBREAK">      0.00000003</i>
     <i name="DEPER">      0.30000000</i>
     <i type="int" name="NRMM">     4</i>
     <i name="TIME">      0.40000000</i>
    </separator>
   </separator>
   <separator name="electronic mixer" >
    <i name="AMIX">      0.40000000</i>
    <i name="BMIX">      0.01000000</i>
    <i name="AMIN">      0.01000000</i>
    <i name="AMIX_MAG">      1.60000000</i>
    <i name="BMIX_MAG">      0.01000000</i>
    <separator name="electronic mixer details" >
     <i type="int" name="IMIX">     4</i>
     <i type="logical" name="MIXFIRST"> F  </i>
     <i type="int" name="MAXMIX">   -45</i>
     <i name="WC">    100.00000000</i>
     <i type="int" name="INIMIX">     1</i>
     <i type="int" name="MIXPRE">     1</i>
     <i type="int" name="MREMOVE">     5</i>
    </separator>
   </separator>
   <separator name="electronic dipolcorrection" >
    <i type="logical" name="LDIPOL"> T  </i>
    <i type="logical" name="LMONO"> F  </i>
    <i type="int" name="IDIPOL">     3</i>
    <i name="EPSILON">      1.00000000</i>
    <v name="DIPOL">   -100.00000000   -100.00000000   -100.00000000</v>
    <i name="EFIELD">      0.00000000</i>
   </separator>
  </separator>
  <separator name="grids" >
   <i type="int" name="NGX">   100</i>
   <i type="int" name="NGY">   100</i>
   <i type="int" name="NGZ">   350</i>
   <i type="int" name="NGXF">   200</i>
   <i type="int" name="NGYF">   200</i>
   <i type="int" name="NGZF">   700</i>
   <i type="logical" name="ADDGRID"> F  </i>
  </separator>
  <separator name="ionic" >
   <i type="int" name="NSW">     0</i>
   <i type="int" name="IBRION">    -1</i>
   <i type="int" name="MDALGO">     0</i>
   <i type="int" name="ISIF">     2</i>
   <i name="PSTRESS">      0.00000000</i>
   <i name="EDIFFG">      0.00100000</i>
   <i type="int" name="NFREE">     0</i>
   <i name="POTIM">      0.50000000</i>
   <i name="SMASS">     -3.00000000</i>
   <i name="SCALEE">      1.00000000</i>
  </separator>
  <separator name="ionic md" >
   <i name="TEBEG">      0.00010000</i>
   <i name="TEEND">      0.00010000</i>
   <i type="int" name="NBLOCK">     1</i>
   <i type="int" name="KBLOCK">     1</i>
   <i type="int" name="NPACO">   256</i>
   <i name="APACO">     16.00000000</i>
  </separator>
  <separator name="symmetry" >
   <i type="int" name="ISYM">     0</i>
   <i name="SYMPREC">      0.00001000</i>
  </separator>
  <separator name="dos" >
   <i type="int" name="LORBIT">     0</i>
   <v name="RWIGS">     -1.00000000     -1.00000000     -1.00000000     -1.00000000     -1.00000000</v>
   <i type="int" name="NEDOS">   301</i>
   <i name="EMIN">     10.00000000</i>
   <i name="EMAX">    -10.00000000</i>
   <i name="EFERMI">      0.00000000</i>
  </separator>
  <separator name="writing" >
   <i type="int" name="NWRITE">     2</i>
   <i type="logical" name="LWAVE"> F  </i>
   <i type="logical" name="LDOWNSAMPLE"> F  </i>
   <i type="logical" name="LCHARG"> T  </i>
   <i type="logical" name="LPARD"> F  </i>
   <i type="logical" name="LVTOT"> T  </i>
   <i type="logical" name="LVHAR"> F  </i>
   <i type="logical" name="LELF"> F  </i>
   <i type="logical" name="LOPTICS"> F  </i>
   <v name="STM">      0.00000000      0.00000000      0.00000000      0.00000000      0.00000000      0.00000000      0.00000000</v>
  </separator>
  <separator name="performance" >
   <i type="int" name="NPAR">     4</i>
   <i type="int" name="NSIM">     4</i>
   <i type="int" name="NBLK">    -1</i>
   <i type="logical" name="LPLANE"> T  </i>
   <i type="logical" name="LSCALAPACK"> T  </i>
   <i type="logical" name="LSCAAWARE"> F  </i>
   <i type="logical" name="LSCALU"> F  </i>
   <i type="logical" name="LASYNC"> F  </i>
   <i type="logical" name="LORBITALREAL"> F  </i>
  </separator>
  <separator name="miscellaneous" >
   <i type="int" name="IDIOT">     3</i>
   <i type="int" name="PHON_NSTRUCT">    -1</i>
   <i type="logical" name="LMUSIC"> F  </i>
   <v name="POMASS">      1.00000000     12.01100000     14.00100000    126.90400000    207.20000000</v>
   <v name="DARWINR">      0.00000000      0.00000000      0.00000000      0.00000000      0.00000000</v>
   <v name="DARWINV">      1.00000000      1.00000000      1.00000000      1.00000000      1.00000000</v>
   <i type="logical" name="LCORR"> T  </i>
  </separator>
  <i type="logical" name="GGA_COMPAT"> F  </i>
  <i type="logical" name="LBERRY"> F  </i>
  <i type="int" name="ICORELEVEL">     0</i>
  <i type="logical" name="LDAU"> F  </i>
  <i type="int" name="I_CONSTRAINED_M">     0</i>
  <separator name="electronic exchange-correlation" >
   <i type="string" name="GGA">--</i>
   <i type="int" name="VOSKOWN">     0</i>
   <i type="logical" name="LHFCALC"> F  </i>
   <i type="string" name="PRECFOCK"></i>
   <i type="logical" name="LSYMGRAD"> F  </i>
   <i type="logical" name="LHFONE"> F  </i>
   <i type="logical" name="LRHFCALC"> F  </i>
   <i type="logical" name="LTHOMAS"> F  </i>
   <i type="logical" name="LMODELHF"> F  </i>
   <i type="logical" name="LFOCKACE"> F  </i>
   <i name="ENCUT4O">     -1.00000000</i>
   <i type="int" name="EXXOEP">     0</i>
   <i type="int" name="FOURORBIT">     0</i>
   <i name="AEXX">      0.00000000</i>
   <i name="HFALPHA">      0.00000000</i>
   <i name="MCALPHA">      0.00000000</i>
   <i name="ALDAX">      1.00000000</i>
   <i name="AGGAX">      1.00000000</i>
   <i name="ALDAC">      1.00000000</i>
   <i name="AGGAC">      1.00000000</i>
   <i type="int" name="NKREDX">     1</i>
   <i type="int" name="NKREDY">     1</i>
   <i type="int" name="NKREDZ">     1</i>
   <i type="logical" name="SHIFTRED"> F  </i>
   <i type="logical" name="ODDONLY"> F  </i>
   <i type="logical" name="EVENONLY"> F  </i>
   <i type="int" name="LMAXFOCK">     0</i>
   <i type="int" name="NMAXFOCKAE">     0</i>
   <i type="logical" name="LFOCKAEDFT"> F  </i>
   <i name="HFSCREEN">      0.00000000</i>
   <i name="HFSCREENC">      0.00000000</i>
   <i type="int" name="NBANDSGWLOW">     0</i>
  </separator>
  <separator name="vdW DFT" >
   <i type="logical" name="LUSE_VDW"> F  </i>
   <i name="Zab_VDW">     -0.84910000</i>
   <i name="PARAM1">      0.12340000</i>
   <i name="PARAM2">      1.00000000</i>
   <i name="PARAM3">      0.00000000</i>
  </separator>
  <separator name="model GW" >
   <i type="int" name="MODEL_GW">     0</i>
   <i name="MODEL_EPS0">     37.63423484</i>
   <i name="MODEL_ALPHA">      1.00000000</i>
  </separator>
  <separator name="linear response parameters" >
   <i type="logical" name="LEPSILON"> F  </i>
   <i type="logical" name="LRPA"> F  </i>
   <i type="logical" name="LNABLA"> F  </i>
   <i type="logical" name="LVEL"> F  </i>
   <i type="int" name="KINTER">     0</i>
   <i name="CSHIFT">      0.10000000</i>
   <i name="OMEGAMAX">     -1.00000000</i>
   <i name="DEG_THRESHOLD">      0.00200000</i>
   <i name="RTIME">     -0.10000000</i>
   <i name="WPLASMAI">      0.00000000</i>
   <v name="DFIELD">      0.00000000      0.00000000      0.00000000</v>
   <v name="WPLASMA">      0.00000000      0.00000000      0.00000000      0.00000000      0.00000000      0.00000000      0.00000000      0.00000000      0.00000000</v>
  </separator>
  <separator name="orbital magnetization" >
   <i type="logical" name="NUCIND"> F  </i>
   <v name="MAGPOS">      0.00000000      0.00000000      0.00000000</v>
   <i type="logical" name="LNICSALL"> T  </i>
   <i type="logical" name="ORBITALMAG"> F  </i>
   <i type="logical" name="LMAGBLOCH"> F  </i>
   <i type="logical" name="LCHIMAG"> F  </i>
   <i type="logical" name="LGAUGE"> T  </i>
   <i type="int" name="MAGATOM">     0</i>
   <v name="MAGDIPOL">      0.00000000      0.00000000      0.00000000</v>
   <v name="AVECCONST">      0.00000000      0.00000000      0.00000000</v>
  </separator>
  <separator name="response functions" >
   <i type="logical" name="LFINITE_TEMPERATURE"> F  </i>
   <i type="logical" name="LADDER"> F  </i>
   <i type="logical" name="LRPAFORCE"> F  </i>
   <i type="logical" name="LFXC"> F  </i>
   <i type="logical" name="LHARTREE"> T  </i>
   <i type="int" name="IBSE">     0</i>
   <v type="int" name="KPOINT">    -1     0     0     0</v>
   <i type="logical" name="LTCTC"> F  </i>
   <i type="logical" name="LTCTE"> F  </i>
   <i type="logical" name="LTETE"> F  </i>
   <i type="logical" name="LTRIPLET"> F  </i>
   <i type="logical" name="LFXCEPS"> F  </i>
   <i type="logical" name="LFXHEG"> F  </i>
   <i type="int" name="NATURALO">     2</i>
   <i type="logical" name="LHOLEGF"> F  </i>
   <i type="logical" name="L2ORDER"> F  </i>
   <i type="logical" name="LDMP1"> F  </i>
   <i type="logical" name="LMP2LT"> F  </i>
   <i type="logical" name="LSMP2LT"> F  </i>
   <i type="logical" name="LGWLF"> F  </i>
   <i name="ENCUTGW">     -2.00000000</i>
   <i name="ENCUTGWSOFT">     -2.00000000</i>
   <i name="ENCUTLF">     -1.00000000</i>
   <i type="logical" name="LESF_SPLINES"> F  </i>
   <i type="int" name="LMAXMP2">    -1</i>
   <i name="SCISSOR">      0.00000000</i>
   <i type="int" name="NOMEGA">     0</i>
   <i type="int" name="NOMEGAR">     0</i>
   <i type="int" name="NBANDSGW">    -1</i>
   <i type="int" name="NBANDSO">    -1</i>
   <i type="int" name="NBANDSV">    -1</i>
   <i type="int" name="NELM">   600</i>
   <i type="int" name="NELMHF">     1</i>
   <i type="int" name="DIM">     3</i>
   <i type="int" name="IESPILON">     4</i>
   <i type="int" name="ANTIRES">     0</i>
   <i name="OMEGAMAX">    -30.00000000</i>
   <i name="OMEGAMIN">    -30.00000000</i>
   <i name="OMEGATL">   -200.00000000</i>
   <i type="int" name="OMEGAGRID">     0</i>
   <i name="CSHIFT">     -0.10000000</i>
   <i type="logical" name="LSELFENERGY"> F  </i>
   <i type="logical" name="LSPECTRAL"> F  </i>
   <i type="logical" name="LSPECTRALGW"> F  </i>
   <i type="logical" name="LSINGLES"> F  </i>
   <i type="logical" name="LFERMIGW"> F  </i>
   <i type="logical" name="ODDONLYGW"> F  </i>
   <i type="logical" name="EVENONLYGW"> F  </i>
   <i type="int" name="NKREDLFX">     1</i>
   <i type="int" name="NKREDLFY">     1</i>
   <i type="int" name="NKREDLFZ">     1</i>
   <i type="int" name="MAXMEM">  2800</i>
   <i type="int" name="TELESCOPE">     0</i>
   <i type="int" name="NTAUPAR">    -1</i>
   <i type="int" name="NOMEGAPAR">    -1</i>
   <i name="DAMP_NEWTON">      0.80000001</i>
   <i name="LAMBDA">      1.00000000</i>
  </separator>
  <separator name="External order field" >
   <i name="OFIELD_KAPPA">      0.00000000</i>
   <v name="OFIELD_K">      0.00000000      0.00000000      0.00000000</v>
   <i name="OFIELD_Q6_NEAR">      0.00000000</i>
   <i name="OFIELD_Q6_FAR">      0.00000000</i>
   <i name="OFIELD_A">      0.00000000</i>
  </separator>
 </parameters>
 <atominfo>
  <atoms>     325 </atoms>
  <types>       5 </types>
  <array name="atoms" >
   <dimension dim="1">ion</dimension>
   <field type="string">element</field>
   <field type="int">atomtype</field>
   <set>
    <rc><c>H </c><c>   1</c></rc>
    <rc><c>H </c><c>   1</c></rc>
    <rc><c>H </c><c>   1</c></rc>
    <rc><c>H </c><c>   1</c></rc>
    <rc><c>H </c><c>   1</c></rc>
    <rc><c>H </c><c>   1</c></rc>
    <rc><c>H </c><c>   1</c></rc>
    <rc><c>H </c><c>   1</c></rc>
    <rc><c>H </c><c>   1</c></rc>
    <rc><c>H </c><c>   1</c></rc>
    <rc><c>H </c><c>   1</c></rc>
    <rc><c>H </c><c>   1</c></rc>
    <rc><c>H </c><c>   1</c></rc>
    <rc><c>H </c><c>   1</c></rc>
    <rc><c>H </c><c>   1</c></rc>
    <rc><c>H </c><c>   1</c></rc>
    <rc><c>H </c><c>   1</c></rc>
    <rc><c>H </c><c>   1</c></rc>
    <rc><c>H </c><c>   1</c></rc>
    <rc><c>H </c><c>   1</c></rc>
    <rc><c>H </c><c>   1</c></rc>
    <rc><c>H </c><c>   1</c></rc>
    <rc><c>H </c><c>   1</c></rc>
    <rc><c>H </c><c>   1</c></rc>
    <rc><c>H </c><c>   1</c></rc>
    <rc><c>H </c><c>   1</c></rc>
    <rc><c>H </c><c>   1</c></rc>
    <rc><c>H </c><c>   1</c></rc>
    <rc><c>H </c><c>   1</c></rc>
    <rc><c>H </c><c>   1</c></rc>
    <rc><c>H </c><c>   1</c></rc>
    <rc><c>H </c><c>   1</c></rc>
    <rc><c>H </c><c>   1</c></rc>
    <rc><c>H </c><c>   1</c></rc>
    <rc><c>H </c><c>   1</c></rc>
    <rc><c>H </c><c>   1</c></rc>
    <rc><c>H </c><c>   1</c></rc>
    <rc><c>H </c><c>   1</c></rc>
    <rc><c>H </c><c>   1</c></rc>
    <rc><c>H </c><c>   1</c></rc>
    <rc><c>H </c><c>   1</c></rc>
    <rc><c>H </c><c>   1</c></rc>
    <rc><c>H </c><c>   1</c></rc>
    <rc><c>H </c><c>   1</c></rc>
    <rc><c>H </c><c>   1</c></rc>
    <rc><c>H </c><c>   1</c></rc>
    <rc><c>H </c><c>   1</c></rc>
    <rc><c>H </c><c>   1</c></rc>
    <rc><c>H </c><c>   1</c></rc>
    <rc><c>H </c><c>   1</c></rc>
    <rc><c>H </c><c>   1</c></rc>
    <rc><c>H </c><c>   1</c></rc>
    <rc><c>H </c><c>   1</c></rc>
    <rc><c>H </c><c>   1</c></rc>
    <rc><c>H </c><c>   1</c></rc>
    <rc><c>H </c><c>   1</c></rc>
    <rc><c>H </c><c>   1</c></rc>
    <rc><c>H </c><c>   1</c></rc>
    <rc><c>H </c><c>   1</c></rc>
    <rc><c>H </c><c>   1</c></rc>
    <rc><c>H </c><c>   1</c></rc>
    <rc><c>H </c><c>   1</c></rc>
    <rc><c>H </c><c>   1</c></rc>
    <rc><c>H </c><c>   1</c></rc>
    <rc><c>H </c><c>   1</c></rc>
    <rc><c>H </c><c>   1</c></rc>
    <rc><c>H </c><c>   1</c></rc>
    <rc><c>H </c><c>   1</c></rc>
    <rc><c>H </c><c>   1</c></rc>
    <rc><c>H </c><c>   1</c></rc>
    <rc><c>H </c><c>   1</c></rc>
    <rc><c>H </c><c>   1</c></rc>
    <rc><c>H </c><c>   1</c></rc>
    <rc><c>H </c><c>   1</c></rc>
    <rc><c>H </c><c>   1</c></rc>
    <rc><c>H </c><c>   1</c></rc>
    <rc><c>H </c><c>   1</c></rc>
    <rc><c>H </c><c>   1</c></rc>
    <rc><c>H </c><c>   1</c></rc>
    <rc><c>H </c><c>   1</c></rc>
    <rc><c>H </c><c>   1</c></rc>
    <rc><c>H </c><c>   1</c></rc>
    <rc><c>H </c><c>   1</c></rc>
    <rc><c>H </c><c>   1</c></rc>
    <rc><c>H </c><c>   1</c></rc>
    <rc><c>H </c><c>   1</c></rc>
    <rc><c>H </c><c>   1</c></rc>
    <rc><c>H </c><c>   1</c></rc>
    <rc><c>H </c><c>   1</c></rc>
    <rc><c>H </c><c>   1</c></rc>
    <rc><c>H </c><c>   1</c></rc>
    <rc><c>H </c><c>   1</c></rc>
    <rc><c>H </c><c>   1</c></rc>
    <rc><c>H </c><c>   1</c></rc>
    <rc><c>H </c><c>   1</c></rc>
    <rc><c>H </c><c>   1</c></rc>
    <rc><c>H </c><c>   1</c></rc>
    <rc><c>H </c><c>   1</c></rc>
    <rc><c>H </c><c>   1</c></rc>
    <rc><c>H </c><c>   1</c></rc>
    <rc><c>H </c><c>   1</c></rc>
    <rc><c>H </c><c>   1</c></rc>
    <rc><c>H </c><c>   1</c></rc>
    <rc><c>H </c><c>   1</c></rc>
    <rc><c>H </c><c>   1</c></rc>
    <rc><c>H </c><c>   1</c></rc>
    <rc><c>H </c><c>   1</c></rc>
    <rc><c>H </c><c>   1</c></rc>
    <rc><c>H </c><c>   1</c></rc>
    <rc><c>H </c><c>   1</c></rc>
    <rc><c>H </c><c>   1</c></rc>
    <rc><c>H </c><c>   1</c></rc>
    <rc><c>H </c><c>   1</c></rc>
    <rc><c>H </c><c>   1</c></rc>
    <rc><c>H </c><c>   1</c></rc>
    <rc><c>H </c><c>   1</c></rc>
    <rc><c>H </c><c>   1</c></rc>
    <rc><c>H </c><c>   1</c></rc>
    <rc><c>H </c><c>   1</c></rc>
    <rc><c>H </c><c>   1</c></rc>
    <rc><c>H </c><c>   1</c></rc>
    <rc><c>H </c><c>   1</c></rc>
    <rc><c>H </c><c>   1</c></rc>
    <rc><c>H </c><c>   1</c></rc>
    <rc><c>H </c><c>   1</c></rc>
    <rc><c>H </c><c>   1</c></rc>
    <rc><c>H </c><c>   1</c></rc>
    <rc><c>H </c><c>   1</c></rc>
    <rc><c>H </c><c>   1</c></rc>
    <rc><c>H </c><c>   1</c></rc>
    <rc><c>H </c><c>   1</c></rc>
    <rc><c>H </c><c>   1</c></rc>
    <rc><c>H </c><c>   1</c></rc>
    <rc><c>H </c><c>   1</c></rc>
    <rc><c>H </c><c>   1</c></rc>
    <rc><c>H </c><c>   1</c></rc>
    <rc><c>H </c><c>   1</c></rc>
    <rc><c>H </c><c>   1</c></rc>
    <rc><c>H </c><c>   1</c></rc>
    <rc><c>H </c><c>   1</c></rc>
    <rc><c>H </c><c>   1</c></rc>
    <rc><c>H </c><c>   1</c></rc>
    <rc><c>H </c><c>   1</c></rc>
    <rc><c>C </c><c>   2</c></rc>
    <rc><c>C </c><c>   2</c></rc>
    <rc><c>C </c><c>   2</c></rc>
    <rc><c>C </c><c>   2</c></rc>
    <rc><c>C </c><c>   2</c></rc>
    <rc><c>C </c><c>   2</c></rc>
    <rc><c>C </c><c>   2</c></rc>
    <rc><c>C </c><c>   2</c></rc>
    <rc><c>C </c><c>   2</c></rc>
    <rc><c>C </c><c>   2</c></rc>
    <rc><c>C </c><c>   2</c></rc>
    <rc><c>C </c><c>   2</c></rc>
    <rc><c>C </c><c>   2</c></rc>
    <rc><c>C </c><c>   2</c></rc>
    <rc><c>C </c><c>   2</c></rc>
    <rc><c>C </c><c>   2</c></rc>
    <rc><c>C </c><c>   2</c></rc>
    <rc><c>C </c><c>   2</c></rc>
    <rc><c>C </c><c>   2</c></rc>
    <rc><c>C </c><c>   2</c></rc>
    <rc><c>C </c><c>   2</c></rc>
    <rc><c>C </c><c>   2</c></rc>
    <rc><c>C </c><c>   2</c></rc>
    <rc><c>C </c><c>   2</c></rc>
    <rc><c>C </c><c>   2</c></rc>
    <rc><c>C </c><c>   2</c></rc>
    <rc><c>C </c><c>   2</c></rc>
    <rc><c>C </c><c>   2</c></rc>
    <rc><c>C </c><c>   2</c></rc>
    <rc><c>C </c><c>   2</c></rc>
    <rc><c>C </c><c>   2</c></rc>
    <rc><c>C </c><c>   2</c></rc>
    <rc><c>C </c><c>   2</c></rc>
    <rc><c>C </c><c>   2</c></rc>
    <rc><c>C </c><c>   2</c></rc>
    <rc><c>C </c><c>   2</c></rc>
    <rc><c>C </c><c>   2</c></rc>
    <rc><c>C </c><c>   2</c></rc>
    <rc><c>C </c><c>   2</c></rc>
    <rc><c>N </c><c>   3</c></rc>
    <rc><c>N </c><c>   3</c></rc>
    <rc><c>N </c><c>   3</c></rc>
    <rc><c>N </c><c>   3</c></rc>
    <rc><c>N </c><c>   3</c></rc>
    <rc><c>N </c><c>   3</c></rc>
    <rc><c>N </c><c>   3</c></rc>
    <rc><c>N </c><c>   3</c></rc>
    <rc><c>N </c><c>   3</c></rc>
    <rc><c>N </c><c>   3</c></rc>
    <rc><c>N </c><c>   3</c></rc>
    <rc><c>N </c><c>   3</c></rc>
    <rc><c>N </c><c>   3</c></rc>
    <rc><c>N </c><c>   3</c></rc>
    <rc><c>N </c><c>   3</c></rc>
    <rc><c>N </c><c>   3</c></rc>
    <rc><c>N </c><c>   3</c></rc>
    <rc><c>N </c><c>   3</c></rc>
    <rc><c>N </c><c>   3</c></rc>
    <rc><c>N </c><c>   3</c></rc>
    <rc><c>N </c><c>   3</c></rc>
    <rc><c>N </c><c>   3</c></rc>
    <rc><c>N </c><c>   3</c></rc>
    <rc><c>N </c><c>   3</c></rc>
    <rc><c>N </c><c>   3</c></rc>
    <rc><c>N </c><c>   3</c></rc>
    <rc><c>N </c><c>   3</c></rc>
    <rc><c>N </c><c>   3</c></rc>
    <rc><c>N </c><c>   3</c></rc>
    <rc><c>N </c><c>   3</c></rc>
    <rc><c>N </c><c>   3</c></rc>
    <rc><c>N </c><c>   3</c></rc>
    <rc><c>N </c><c>   3</c></rc>
    <rc><c>N </c><c>   3</c></rc>
    <rc><c>N </c><c>   3</c></rc>
    <rc><c>N </c><c>   3</c></rc>
    <rc><c>N </c><c>   3</c></rc>
    <rc><c>N </c><c>   3</c></rc>
    <rc><c>N </c><c>   3</c></rc>
    <rc><c>N </c><c>   3</c></rc>
    <rc><c>N </c><c>   3</c></rc>
    <rc><c>N </c><c>   3</c></rc>
    <rc><c>N </c><c>   3</c></rc>
    <rc><c>N </c><c>   3</c></rc>
    <rc><c>N </c><c>   3</c></rc>
    <rc><c>N </c><c>   3</c></rc>
    <rc><c>N </c><c>   3</c></rc>
    <rc><c>I </c><c>   4</c></rc>
    <rc><c>I </c><c>   4</c></rc>
    <rc><c>I </c><c>   4</c></rc>
    <rc><c>I </c><c>   4</c></rc>
    <rc><c>I </c><c>   4</c></rc>
    <rc><c>I </c><c>   4</c></rc>
    <rc><c>I </c><c>   4</c></rc>
    <rc><c>I </c><c>   4</c></rc>
    <rc><c>I </c><c>   4</c></rc>
    <rc><c>I </c><c>   4</c></rc>
    <rc><c>I </c><c>   4</c></rc>
    <rc><c>I </c><c>   4</c></rc>
    <rc><c>I </c><c>   4</c></rc>
    <rc><c>I </c><c>   4</c></rc>
    <rc><c>I </c><c>   4</c></rc>
    <rc><c>I </c><c>   4</c></rc>
    <rc><c>I </c><c>   4</c></rc>
    <rc><c>I </c><c>   4</c></rc>
    <rc><c>I </c><c>   4</c></rc>
    <rc><c>I </c><c>   4</c></rc>
    <rc><c>I </c><c>   4</c></rc>
    <rc><c>I </c><c>   4</c></rc>
    <rc><c>I </c><c>   4</c></rc>
    <rc><c>I </c><c>   4</c></rc>
    <rc><c>I </c><c>   4</c></rc>
    <rc><c>I </c><c>   4</c></rc>
    <rc><c>I </c><c>   4</c></rc>
    <rc><c>I </c><c>   4</c></rc>
    <rc><c>I </c><c>   4</c></rc>
    <rc><c>I </c><c>   4</c></rc>
    <rc><c>I </c><c>   4</c></rc>
    <rc><c>I </c><c>   4</c></rc>
    <rc><c>I </c><c>   4</c></rc>
    <rc><c>I </c><c>   4</c></rc>
    <rc><c>I </c><c>   4</c></rc>
    <rc><c>I </c><c>   4</c></rc>
    <rc><c>I </c><c>   4</c></rc>
    <rc><c>I </c><c>   4</c></rc>
    <rc><c>I </c><c>   4</c></rc>
    <rc><c>I </c><c>   4</c></rc>
    <rc><c>I </c><c>   4</c></rc>
    <rc><c>I </c><c>   4</c></rc>
    <rc><c>I </c><c>   4</c></rc>
    <rc><c>I </c><c>   4</c></rc>
    <rc><c>I </c><c>   4</c></rc>
    <rc><c>I </c><c>   4</c></rc>
    <rc><c>I </c><c>   4</c></rc>
    <rc><c>I </c><c>   4</c></rc>
    <rc><c>I </c><c>   4</c></rc>
    <rc><c>I </c><c>   4</c></rc>
    <rc><c>I </c><c>   4</c></rc>
    <rc><c>I </c><c>   4</c></rc>
    <rc><c>I </c><c>   4</c></rc>
    <rc><c>I </c><c>   4</c></rc>
    <rc><c>I </c><c>   4</c></rc>
    <rc><c>I </c><c>   4</c></rc>
    <rc><c>I </c><c>   4</c></rc>
    <rc><c>I </c><c>   4</c></rc>
    <rc><c>I </c><c>   4</c></rc>
    <rc><c>I </c><c>   4</c></rc>
    <rc><c>I </c><c>   4</c></rc>
    <rc><c>I </c><c>   4</c></rc>
    <rc><c>I </c><c>   4</c></rc>
    <rc><c>I </c><c>   4</c></rc>
    <rc><c>I </c><c>   4</c></rc>
    <rc><c>I </c><c>   4</c></rc>
    <rc><c>I </c><c>   4</c></rc>
    <rc><c>I </c><c>   4</c></rc>
    <rc><c>I </c><c>   4</c></rc>
    <rc><c>I </c><c>   4</c></rc>
    <rc><c>I </c><c>   4</c></rc>
    <rc><c>I </c><c>   4</c></rc>
    <rc><c>Pb</c><c>   5</c></rc>
    <rc><c>Pb</c><c>   5</c></rc>
    <rc><c>Pb</c><c>   5</c></rc>
    <rc><c>Pb</c><c>   5</c></rc>
    <rc><c>Pb</c><c>   5</c></rc>
    <rc><c>Pb</c><c>   5</c></rc>
    <rc><c>Pb</c><c>   5</c></rc>
    <rc><c>Pb</c><c>   5</c></rc>
    <rc><c>Pb</c><c>   5</c></rc>
    <rc><c>Pb</c><c>   5</c></rc>
    <rc><c>Pb</c><c>   5</c></rc>
    <rc><c>Pb</c><c>   5</c></rc>
    <rc><c>Pb</c><c>   5</c></rc>
    <rc><c>Pb</c><c>   5</c></rc>
    <rc><c>Pb</c><c>   5</c></rc>
    <rc><c>Pb</c><c>   5</c></rc>
    <rc><c>Pb</c><c>   5</c></rc>
    <rc><c>Pb</c><c>   5</c></rc>
    <rc><c>Pb</c><c>   5</c></rc>
    <rc><c>Pb</c><c>   5</c></rc>
    <rc><c>Pb</c><c>   5</c></rc>
    <rc><c>Pb</c><c>   5</c></rc>
    <rc><c>Pb</c><c>   5</c></rc>
    <rc><c>Pb</c><c>   5</c></rc>
   </set>
  </array>
  <array name="atomtypes" >
   <dimension dim="1">type</dimension>
   <field type="int">atomspertype</field>
   <field type="string">element</field>
   <field>mass</field>
   <field>valence</field>
   <field type="string">pseudopotential</field>
   <set>
    <rc><c> 143</c><c>H </c><c>      1.00000000</c><c>      1.00000000</c><c>  PAW_PBE H 15Jun2001                   </c></rc>
    <rc><c>  39</c><c>C </c><c>     12.01100000</c><c>      4.00000000</c><c>  PAW_PBE C 08Apr2002                   </c></rc>
    <rc><c>  47</c><c>N </c><c>     14.00100000</c><c>      5.00000000</c><c>  PAW_PBE N 08Apr2002                   </c></rc>
    <rc><c>  72</c><c>I </c><c>    126.90400000</c><c>      7.00000000</c><c>  PAW_PBE I 08Apr2002                   </c></rc>
    <rc><c>  24</c><c>Pb</c><c>    207.20000000</c><c>      4.00000000</c><c>  PAW_PBE Pb 08Apr2002                  </c></rc>
   </set>
  </array>
 </atominfo>
 <structure name="initialpos" >
  <crystal>
   <varray name="basis" >
    <v>      18.06080055       0.00000000       0.00000000 </v>
    <v>      -0.00491865      18.06279945       0.00000000 </v>
    <v>       0.00000000       0.00000000      62.48749924 </v>
   </varray>
   <i name="volume">  20385.21054034 </i>
   <varray name="rec_basis" >
    <v>       0.05536853       0.00001508      -0.00000000 </v>
    <v>       0.00000000       0.05536240       0.00000000 </v>
    <v>       0.00000000      -0.00000000       0.01600320 </v>
   </varray>
  </crystal>
  <varray name="positions" >
   <v>       0.44616371       0.30048345       0.58272465 </v>
   <v>       0.44350106       0.83258075       0.57906650 </v>
   <v>       0.95550160       0.26792838       0.58614959 </v>
   <v>       0.96932546       0.80654800       0.58626838 </v>
   <v>       0.29976620       0.04417244       0.58346936 </v>
   <v>       0.30273888       0.55013432       0.58276683 </v>
   <v>       0.77606899       0.06636412       0.58159173 </v>
   <v>       0.10249227       0.19137265       0.55384698 </v>
   <v>       0.08104300       0.67786733       0.55661566 </v>
   <v>       0.58245293       0.17752866       0.55740006 </v>
   <v>       0.53942133       0.65787506       0.56633593 </v>
   <v>       0.35323711       0.05041514       0.55974929 </v>
   <v>       0.31362689       0.59695137       0.55833915 </v>
   <v>       0.83307236       0.07813473       0.55895158 </v>
   <v>       0.07466892       0.20148370       0.58067675 </v>
   <v>       0.04679371       0.69199045       0.58211142 </v>
   <v>       0.56284284       0.22227051       0.58131616 </v>
   <v>       0.50896972       0.71091695       0.58732493 </v>
   <v>       0.22061944       0.43686939       0.58240732 </v>
   <v>       0.18126957       0.97106504       0.58110530 </v>
   <v>       0.68937717       0.95925697       0.58122868 </v>
   <v>       0.39077081       0.29680535       0.55963885 </v>
   <v>       0.43873792       0.85394640       0.55186648 </v>
   <v>       0.90728405       0.29354963       0.56367799 </v>
   <v>       0.95477903       0.86083587       0.56422754 </v>
   <v>       0.18210427       0.41271228       0.55745390 </v>
   <v>       0.15846293       0.93485002       0.55574446 </v>
   <v>       0.69221717       0.89999039       0.55814093 </v>
   <v>       0.47367162       0.21848448       0.54111494 </v>
   <v>       0.50055317       0.74588703       0.54023867 </v>
   <v>       0.99564661       0.25031465       0.54022145 </v>
   <v>       0.02603809       0.78419742       0.54190923 </v>
   <v>       0.23891264       0.51326685       0.53997598 </v>
   <v>       0.26817273       0.98212365       0.54015320 </v>
   <v>       0.78128359       0.97128031       0.54197303 </v>
   <v>       0.45247431       0.30668169       0.67579642 </v>
   <v>       0.43943843       0.81113839       0.67505018 </v>
   <v>       0.95081852       0.29032462       0.67757595 </v>
   <v>       0.94480744       0.80613713       0.67532141 </v>
   <v>       0.30122360       0.04794945       0.67511867 </v>
   <v>       0.29476610       0.55314501       0.67662172 </v>
   <v>       0.81064418       0.04972441       0.67500189 </v>
   <v>       0.83196525       0.53851930       0.67420815 </v>
   <v>       0.08531686       0.17179026       0.64851252 </v>
   <v>       0.08711522       0.68347445       0.65359527 </v>
   <v>       0.57151698       0.16504136       0.65072665 </v>
   <v>       0.57004791       0.66734058       0.65534635 </v>
   <v>       0.18647965       0.41122425       0.64747612 </v>
   <v>       0.16943642       0.91939863       0.64919070 </v>
   <v>       0.65942941       0.44275919       0.65345144 </v>
   <v>       0.66467973       0.93268030       0.65098079 </v>
   <v>       0.06172480       0.19222743       0.67449141 </v>
   <v>       0.04430057       0.70361043       0.67762430 </v>
   <v>       0.55424071       0.20089630       0.67548618 </v>
   <v>       0.53904714       0.70334771       0.67966090 </v>
   <v>       0.20470529       0.43833344       0.67372002 </v>
   <v>       0.19775836       0.94542057       0.67499774 </v>
   <v>       0.71561958       0.44495327       0.67673484 </v>
   <v>       0.69751840       0.95707750       0.67624799 </v>
   <v>       0.41650871       0.32396103       0.65067262 </v>
   <v>       0.42183934       0.83339790       0.64859524 </v>
   <v>       0.91881821       0.31921034       0.65276771 </v>
   <v>       0.92827595       0.83995971       0.64986259 </v>
   <v>       0.32854936       0.07549385       0.64979965 </v>
   <v>       0.32575315       0.58631189       0.65175750 </v>
   <v>       0.83720794       0.07445849       0.64911152 </v>
   <v>       0.83996967       0.57820903       0.64854610 </v>
   <v>       0.99640249       0.25116701       0.63312236 </v>
   <v>       0.02027218       0.76720189       0.63455154 </v>
   <v>       0.48606674       0.23677763       0.63310197 </v>
   <v>       0.50304838       0.74424893       0.63444690 </v>
   <v>       0.24856131       0.99611308       0.63152945 </v>
   <v>       0.25953605       0.50137153       0.63173066 </v>
   <v>       0.74832961       0.00126519       0.63213394 </v>
   <v>       0.73389759       0.52274451       0.63446113 </v>
   <v>       0.44874502       0.30128397       0.76888902 </v>
   <v>       0.44874501       0.80128391       0.76888902 </v>
   <v>       0.94874497       0.30128397       0.76888902 </v>
   <v>       0.94874501       0.80128391       0.76888902 </v>
   <v>       0.30127600       0.05129450       0.76887296 </v>
   <v>       0.30127601       0.55129450       0.76887296 </v>
   <v>       0.80127594       0.05129450       0.76887296 </v>
   <v>       0.80127598       0.55129450       0.76887296 </v>
   <v>       0.07877100       0.17118050       0.74344197 </v>
   <v>       0.07877101       0.67118045       0.74344197 </v>
   <v>       0.57877100       0.17118050       0.74344197 </v>
   <v>       0.57877099       0.67118045       0.74344197 </v>
   <v>       0.17119950       0.42117448       0.74342103 </v>
   <v>       0.17119950       0.92117451       0.74342103 </v>
   <v>       0.67119951       0.42117448       0.74342103 </v>
   <v>       0.67119950       0.92117451       0.74342103 </v>
   <v>       0.05125600       0.19871499       0.76888902 </v>
   <v>       0.05125600       0.69871493       0.76888902 </v>
   <v>       0.55125603       0.19871499       0.76888902 </v>
   <v>       0.55125602       0.69871493       0.76888902 </v>
   <v>       0.19872349       0.44870397       0.76887205 </v>
   <v>       0.19872349       0.94870397       0.76887205 </v>
   <v>       0.69872352       0.44870397       0.76887205 </v>
   <v>       0.69872351       0.94870397       0.76887205 </v>
   <v>       0.42123152       0.32881747       0.74344197 </v>
   <v>       0.42123151       0.82881744       0.74344197 </v>
   <v>       0.92123147       0.32881747       0.74344197 </v>
   <v>       0.92123151       0.82881744       0.74344197 </v>
   <v>       0.32880050       0.07882500       0.74342103 </v>
   <v>       0.32880049       0.57882496       0.74342103 </v>
   <v>       0.82880048       0.07882500       0.74342103 </v>
   <v>       0.82880052       0.57882496       0.74342103 </v>
   <v>       0.00000350       0.25000148       0.72582199 </v>
   <v>       0.00000350       0.75000145       0.72582199 </v>
   <v>       0.50000351       0.25000148       0.72582199 </v>
   <v>       0.50000350       0.75000145       0.72582199 </v>
   <v>       0.25000050       0.00000000       0.72580398 </v>
   <v>       0.25000052       0.50000000       0.72580398 </v>
   <v>       0.75000050       0.00000000       0.72580398 </v>
   <v>       0.75000049       0.50000000       0.72580398 </v>
   <v>       0.71852276       0.44958094       0.54595417 </v>
   <v>       0.74039500       0.51008547       0.52456213 </v>
   <v>       0.65017314       0.54274671       0.56083990 </v>
   <v>       0.68457760       0.63618096       0.56337532 </v>
   <v>       0.83633007       0.51146196       0.57886938 </v>
   <v>       0.77332911       0.57682874       0.58754562 </v>
   <v>       0.87081882       0.55959256       0.54210702 </v>
   <v>       0.80851828       0.62001303       0.52850060 </v>
   <v>       0.86887753       0.48038418       0.52572154 </v>
   <v>       0.86407514       0.44817040       0.55179781 </v>
   <v>       0.88792248       0.35214621       0.52738203 </v>
   <v>       0.79720956       0.33755601       0.53771039 </v>
   <v>       0.61810764       0.55218726       0.52690611 </v>
   <v>       0.69071804       0.61180996       0.51895969 </v>
   <v>       0.61437630       0.64822622       0.53238847 </v>
   <v>       0.72936139       0.45485121       0.60198802 </v>
   <v>       0.74199594       0.41309163       0.57758629 </v>
   <v>       0.66889487       0.47381266       0.58170180 </v>
   <v>       0.83723534       0.67647511       0.57229263 </v>
   <v>       0.87533191       0.70838688       0.54813679 </v>
   <v>       0.91978140       0.63603360       0.56307167 </v>
   <v>       0.83959001       0.39961892       0.49363328 </v>
   <v>       0.80384077       0.30896358       0.50002030 </v>
   <v>       0.67066981       0.31753011       0.52304443 </v>
   <v>       0.75287273       0.48774829       0.48062506 </v>
   <v>       0.54163318       0.36610764       0.51918905 </v>
   <v>       0.62354050       0.53803805       0.47661922 </v>
   <v>       0.51769083       0.48105460       0.49676012 </v>
   <v>       0.00328770       0.24408563       0.55777807 </v>
   <v>       0.01826626       0.77024789       0.55910872 </v>
   <v>       0.48529467       0.23724017       0.55739280 </v>
   <v>       0.49095036       0.75710549       0.55782513 </v>
   <v>       0.24659041       0.50425967       0.55719470 </v>
   <v>       0.25720218       0.99305423       0.55712645 </v>
   <v>       0.76179449       0.98836627       0.55787812 </v>
   <v>       0.00139411       0.24618204       0.65007711 </v>
   <v>       0.00842303       0.76214276       0.65105380 </v>
   <v>       0.49297774       0.24478570       0.64989769 </v>
   <v>       0.49558116       0.75181463       0.65130324 </v>
   <v>       0.25615344       0.49821438       0.64892911 </v>
   <v>       0.24978364       0.99846900       0.64876294 </v>
   <v>       0.75096880       0.51103699       0.65111247 </v>
   <v>       0.75176244       0.00384642       0.64933605 </v>
   <v>       0.49998898       0.24999498       0.74327702 </v>
   <v>       0.49998903       0.74999496       0.74327702 </v>
   <v>       0.99998898       0.24999498       0.74327702 </v>
   <v>       0.99998903       0.74999496       0.74327702 </v>
   <v>       0.25000050       0.00000100       0.74325596 </v>
   <v>       0.25000052       0.50000100       0.74325596 </v>
   <v>       0.75000050       0.00000100       0.74325596 </v>
   <v>       0.75000049       0.50000100       0.74325596 </v>
   <v>       0.72003530       0.39735799       0.50219291 </v>
   <v>       0.65823394       0.36425386       0.51279562 </v>
   <v>       0.70556888       0.46021096       0.48860810 </v>
   <v>       0.58737251       0.39267927       0.51081735 </v>
   <v>       0.63243249       0.48757617       0.48701156 </v>
   <v>       0.57517295       0.45535078       0.49766738 </v>
   <v>       0.76070270       0.48500989       0.53889709 </v>
   <v>       0.68492671       0.58662519       0.55355084 </v>
   <v>       0.77744199       0.52743448       0.57759630 </v>
   <v>       0.82715888       0.60062265       0.54490037 </v>
   <v>       0.83292763       0.45003843       0.53661026 </v>
   <v>       0.83044352       0.37454709       0.52777426 </v>
   <v>       0.65154276       0.59974236       0.53147233 </v>
   <v>       0.72725558       0.46533276       0.58480129 </v>
   <v>       0.86714231       0.65957731       0.55806804 </v>
   <v>       0.80068252       0.36883612       0.50475412 </v>
   <v>       0.06312686       0.21060829       0.56464559 </v>
   <v>       0.05008798       0.71007197       0.56603552 </v>
   <v>       0.54557027       0.20890010       0.56615535 </v>
   <v>       0.51722294       0.70735163       0.57116923 </v>
   <v>       0.43905243       0.28133831       0.56686955 </v>
   <v>       0.45663921       0.81668110       0.56282577 </v>
   <v>       0.95304699       0.27031283       0.56994224 </v>
   <v>       0.97921855       0.81555170       0.57058586 </v>
   <v>       0.21568359       0.44821512       0.56665014 </v>
   <v>       0.19496608       0.96482873       0.56565885 </v>
   <v>       0.71078680       0.94883422       0.56665472 </v>
   <v>       0.30478075       0.03152183       0.56783202 </v>
   <v>       0.28993496       0.55320810       0.56722716 </v>
   <v>       0.79238405       0.04784024       0.56727087 </v>
   <v>       0.05345119       0.20000501       0.65852142 </v>
   <v>       0.05023816       0.71185099       0.66191785 </v>
   <v>       0.54391274       0.20045988       0.65959311 </v>
   <v>       0.53601947       0.70598232       0.66306115 </v>
   <v>       0.21469205       0.44634882       0.65704334 </v>
   <v>       0.20157611       0.95093053       0.65812950 </v>
   <v>       0.70592993       0.46360697       0.66130445 </v>
   <v>       0.70060997       0.96104847       0.65935545 </v>
   <v>       0.45273119       0.29326627       0.65921657 </v>
   <v>       0.45077056       0.80014084       0.65856684 </v>
   <v>       0.95579491       0.28633881       0.66106118 </v>
   <v>       0.95656641       0.80473007       0.65974158 </v>
   <v>       0.29472227       0.04193618       0.65825074 </v>
   <v>       0.29326616       0.54925793       0.65966484 </v>
   <v>       0.80161966       0.04360057       0.65817278 </v>
   <v>       0.80929654       0.54262564       0.65850305 </v>
   <v>       0.04586250       0.20411950       0.75272599 </v>
   <v>       0.04586250       0.70411946       0.75272599 </v>
   <v>       0.54586251       0.20411950       0.75272599 </v>
   <v>       0.54586250       0.70411946       0.75272599 </v>
   <v>       0.20411900       0.45410100       0.75270499 </v>
   <v>       0.20411899       0.95410095       0.75270499 </v>
   <v>       0.70411898       0.45410100       0.75270499 </v>
   <v>       0.70411896       0.95410095       0.75270499 </v>
   <v>       0.45414002       0.29588849       0.75272697 </v>
   <v>       0.45414001       0.79588852       0.75272697 </v>
   <v>       0.95414002       0.29588849       0.75272697 </v>
[...]
   <v>       0.58245293       0.17752866       0.55740006 </v>
   <v>       0.53942133       0.65787506       0.56633593 </v>
   <v>       0.35323711       0.05041514       0.55974929 </v>
   <v>       0.31362689       0.59695137       0.55833915 </v>
   <v>       0.83307236       0.07813473       0.55895158 </v>
   <v>       0.07466892       0.20148370       0.58067675 </v>
   <v>       0.04679371       0.69199045       0.58211142 </v>
   <v>       0.56284284       0.22227051       0.58131616 </v>
   <v>       0.50896972       0.71091695       0.58732493 </v>
   <v>       0.22061944       0.43686939       0.58240732 </v>
   <v>       0.18126957       0.97106504       0.58110530 </v>
   <v>       0.68937717       0.95925697       0.58122868 </v>
   <v>       0.39077081       0.29680535       0.55963885 </v>
   <v>       0.43873792       0.85394640       0.55186648 </v>
   <v>       0.90728405       0.29354963       0.56367799 </v>
   <v>       0.95477903       0.86083587       0.56422754 </v>
   <v>       0.18210427       0.41271228       0.55745390 </v>
   <v>       0.15846293       0.93485002       0.55574446 </v>
   <v>       0.69221717       0.89999039       0.55814093 </v>
   <v>       0.47367162       0.21848448       0.54111494 </v>
   <v>       0.50055317       0.74588703       0.54023867 </v>
   <v>       0.99564661       0.25031465       0.54022145 </v>
   <v>       0.02603809       0.78419742       0.54190923 </v>
   <v>       0.23891264       0.51326685       0.53997598 </v>
   <v>       0.26817273       0.98212365       0.54015320 </v>
   <v>       0.78128359       0.97128031       0.54197303 </v>
   <v>       0.45247431       0.30668169       0.67579642 </v>
   <v>       0.43943843       0.81113839       0.67505018 </v>
   <v>       0.95081852       0.29032462       0.67757595 </v>
   <v>       0.94480744       0.80613713       0.67532141 </v>
   <v>       0.30122360       0.04794945       0.67511867 </v>
   <v>       0.29476610       0.55314501       0.67662172 </v>
   <v>       0.81064418       0.04972441       0.67500189 </v>
   <v>       0.83196525       0.53851930       0.67420815 </v>
   <v>       0.08531686       0.17179026       0.64851252 </v>
   <v>       0.08711522       0.68347445       0.65359527 </v>
   <v>       0.57151698       0.16504136       0.65072665 </v>
   <v>       0.57004791       0.66734058       0.65534635 </v>
   <v>       0.18647965       0.41122425       0.64747612 </v>
   <v>       0.16943642       0.91939863       0.64919070 </v>
   <v>       0.65942941       0.44275919       0.65345144 </v>
   <v>       0.66467973       0.93268030       0.65098079 </v>
   <v>       0.06172480       0.19222743       0.67449141 </v>
   <v>       0.04430057       0.70361043       0.67762430 </v>
   <v>       0.55424071       0.20089630       0.67548618 </v>
   <v>       0.53904714       0.70334771       0.67966090 </v>
   <v>       0.20470529       0.43833344       0.67372002 </v>
   <v>       0.19775836       0.94542057       0.67499774 </v>
   <v>       0.71561958       0.44495327       0.67673484 </v>
   <v>       0.69751840       0.95707750       0.67624799 </v>
   <v>       0.41650871       0.32396103       0.65067262 </v>
   <v>       0.42183934       0.83339790       0.64859524 </v>
   <v>       0.91881821       0.31921034       0.65276771 </v>
   <v>       0.92827595       0.83995971       0.64986259 </v>
   <v>       0.32854936       0.07549385       0.64979965 </v>
   <v>       0.32575315       0.58631189       0.65175750 </v>
   <v>       0.83720794       0.07445849       0.64911152 </v>
   <v>       0.83996967       0.57820903       0.64854610 </v>
   <v>       0.99640249       0.25116701       0.63312236 </v>
   <v>       0.02027218       0.76720189       0.63455154 </v>
   <v>       0.48606674       0.23677763       0.63310197 </v>
   <v>       0.50304838       0.74424893       0.63444690 </v>
   <v>       0.24856131       0.99611308       0.63152945 </v>
   <v>       0.25953605       0.50137153       0.63173066 </v>
   <v>       0.74832961       0.00126519       0.63213394 </v>
   <v>       0.73389759       0.52274451       0.63446113 </v>
   <v>       0.44874502       0.30128397       0.76888902 </v>
   <v>       0.44874501       0.80128391       0.76888902 </v>
   <v>       0.94874497       0.30128397       0.76888902 </v>
   <v>       0.94874501       0.80128391       0.76888902 </v>
   <v>       0.30127600       0.05129450       0.76887296 </v>
   <v>       0.30127601       0.55129450       0.76887296 </v>
   <v>       0.80127594       0.05129450       0.76887296 </v>
   <v>       0.80127598       0.55129450       0.76887296 </v>
   <v>       0.07877100       0.17118050       0.74344197 </v>
   <v>       0.07877101       0.67118045       0.74344197 </v>
   <v>       0.57877100       0.17118050       0.74344197 </v>
   <v>       0.57877099       0.67118045       0.74344197 </v>
   <v>       0.17119950       0.42117448       0.74342103 </v>
   <v>       0.17119950       0.92117451       0.74342103 </v>
   <v>       0.67119951       0.42117448       0.74342103 </v>
   <v>       0.67119950       0.92117451       0.74342103 </v>
   <v>       0.05125600       0.19871499       0.76888902 </v>
   <v>       0.05125600       0.69871493       0.76888902 </v>
   <v>       0.55125603       0.19871499       0.76888902 </v>
   <v>       0.55125602       0.69871493       0.76888902 </v>
   <v>       0.19872349       0.44870397       0.76887205 </v>
   <v>       0.19872349       0.94870397       0.76887205 </v>
   <v>       0.69872352       0.44870397       0.76887205 </v>
   <v>       0.69872351       0.94870397       0.76887205 </v>
   <v>       0.42123152       0.32881747       0.74344197 </v>
   <v>       0.42123151       0.82881744       0.74344197 </v>
   <v>       0.92123147       0.32881747       0.74344197 </v>
   <v>       0.92123151       0.82881744       0.74344197 </v>
   <v>       0.32880050       0.07882500       0.74342103 </v>
   <v>       0.32880049       0.57882496       0.74342103 </v>
   <v>       0.82880048       0.07882500       0.74342103 </v>
   <v>       0.82880052       0.57882496       0.74342103 </v>
   <v>       0.00000350       0.25000148       0.72582199 </v>
   <v>       0.00000350       0.75000145       0.72582199 </v>
   <v>       0.50000351       0.25000148       0.72582199 </v>
   <v>       0.50000350       0.75000145       0.72582199 </v>
   <v>       0.25000050       0.00000000       0.72580398 </v>
   <v>       0.25000052       0.50000000       0.72580398 </v>
   <v>       0.75000050       0.00000000       0.72580398 </v>
   <v>       0.75000049       0.50000000       0.72580398 </v>
   <v>       0.71852276       0.44958094       0.54595417 </v>
   <v>       0.74039500       0.51008547       0.52456213 </v>
   <v>       0.65017314       0.54274671       0.56083990 </v>
   <v>       0.68457760       0.63618096       0.56337532 </v>
   <v>       0.83633007       0.51146196       0.57886938 </v>
   <v>       0.77332911       0.57682874       0.58754562 </v>
   <v>       0.87081882       0.55959256       0.54210702 </v>
   <v>       0.80851828       0.62001303       0.52850060 </v>
   <v>       0.86887753       0.48038418       0.52572154 </v>
   <v>       0.86407514       0.44817040       0.55179781 </v>
   <v>       0.88792248       0.35214621       0.52738203 </v>
   <v>       0.79720956       0.33755601       0.53771039 </v>
   <v>       0.61810764       0.55218726       0.52690611 </v>
   <v>       0.69071804       0.61180996       0.51895969 </v>
   <v>       0.61437630       0.64822622       0.53238847 </v>
   <v>       0.72936139       0.45485121       0.60198802 </v>
   <v>       0.74199594       0.41309163       0.57758629 </v>
   <v>       0.66889487       0.47381266       0.58170180 </v>
   <v>       0.83723534       0.67647511       0.57229263 </v>
   <v>       0.87533191       0.70838688       0.54813679 </v>
   <v>       0.91978140       0.63603360       0.56307167 </v>
   <v>       0.83959001       0.39961892       0.49363328 </v>
   <v>       0.80384077       0.30896358       0.50002030 </v>
   <v>       0.67066981       0.31753011       0.52304443 </v>
   <v>       0.75287273       0.48774829       0.48062506 </v>
   <v>       0.54163318       0.36610764       0.51918905 </v>
   <v>       0.62354050       0.53803805       0.47661922 </v>
   <v>       0.51769083       0.48105460       0.49676012 </v>
   <v>       0.00328770       0.24408563       0.55777807 </v>
   <v>       0.01826626       0.77024789       0.55910872 </v>
   <v>       0.48529467       0.23724017       0.55739280 </v>
   <v>       0.49095036       0.75710549       0.55782513 </v>
   <v>       0.24659041       0.50425967       0.55719470 </v>
   <v>       0.25720218       0.99305423       0.55712645 </v>
   <v>       0.76179449       0.98836627       0.55787812 </v>
   <v>       0.00139411       0.24618204       0.65007711 </v>
   <v>       0.00842303       0.76214276       0.65105380 </v>
   <v>       0.49297774       0.24478570       0.64989769 </v>
   <v>       0.49558116       0.75181463       0.65130324 </v>
   <v>       0.25615344       0.49821438       0.64892911 </v>
   <v>       0.24978364       0.99846900       0.64876294 </v>
   <v>       0.75096880       0.51103699       0.65111247 </v>
   <v>       0.75176244       0.00384642       0.64933605 </v>
   <v>       0.49998898       0.24999498       0.74327702 </v>
   <v>       0.49998903       0.74999496       0.74327702 </v>
   <v>       0.99998898       0.24999498       0.74327702 </v>
   <v>       0.99998903       0.74999496       0.74327702 </v>
   <v>       0.25000050       0.00000100       0.74325596 </v>
   <v>       0.25000052       0.50000100       0.74325596 </v>
   <v>       0.75000050       0.00000100       0.74325596 </v>
   <v>       0.75000049       0.50000100       0.74325596 </v>
   <v>       0.72003530       0.39735799       0.50219291 </v>
   <v>       0.65823394       0.36425386       0.51279562 </v>
   <v>       0.70556888       0.46021096       0.48860810 </v>
   <v>       0.58737251       0.39267927       0.51081735 </v>
   <v>       0.63243249       0.48757617       0.48701156 </v>
   <v>       0.57517295       0.45535078       0.49766738 </v>
   <v>       0.76070270       0.48500989       0.53889709 </v>
   <v>       0.68492671       0.58662519       0.55355084 </v>
   <v>       0.77744199       0.52743448       0.57759630 </v>
   <v>       0.82715888       0.60062265       0.54490037 </v>
   <v>       0.83292763       0.45003843       0.53661026 </v>
   <v>       0.83044352       0.37454709       0.52777426 </v>
   <v>       0.65154276       0.59974236       0.53147233 </v>
   <v>       0.72725558       0.46533276       0.58480129 </v>
   <v>       0.86714231       0.65957731       0.55806804 </v>
   <v>       0.80068252       0.36883612       0.50475412 </v>
   <v>       0.06312686       0.21060829       0.56464559 </v>
   <v>       0.05008798       0.71007197       0.56603552 </v>
   <v>       0.54557027       0.20890010       0.56615535 </v>
   <v>       0.51722294       0.70735163       0.57116923 </v>
   <v>       0.43905243       0.28133831       0.56686955 </v>
   <v>       0.45663921       0.81668110       0.56282577 </v>
   <v>       0.95304699       0.27031283       0.56994224 </v>
   <v>       0.97921855       0.81555170       0.57058586 </v>
   <v>       0.21568359       0.44821512       0.56665014 </v>
   <v>       0.19496608       0.96482873       0.56565885 </v>
   <v>       0.71078680       0.94883422       0.56665472 </v>
   <v>       0.30478075       0.03152183       0.56783202 </v>
   <v>       0.28993496       0.55320810       0.56722716 </v>
   <v>       0.79238405       0.04784024       0.56727087 </v>
   <v>       0.05345119       0.20000501       0.65852142 </v>
   <v>       0.05023816       0.71185099       0.66191785 </v>
   <v>       0.54391274       0.20045988       0.65959311 </v>
   <v>       0.53601947       0.70598232       0.66306115 </v>
   <v>       0.21469205       0.44634882       0.65704334 </v>
   <v>       0.20157611       0.95093053       0.65812950 </v>
   <v>       0.70592993       0.46360697       0.66130445 </v>
   <v>       0.70060997       0.96104847       0.65935545 </v>
   <v>       0.45273119       0.29326627       0.65921657 </v>
   <v>       0.45077056       0.80014084       0.65856684 </v>
   <v>       0.95579491       0.28633881       0.66106118 </v>
   <v>       0.95656641       0.80473007       0.65974158 </v>
   <v>       0.29472227       0.04193618       0.65825074 </v>
   <v>       0.29326616       0.54925793       0.65966484 </v>
   <v>       0.80161966       0.04360057       0.65817278 </v>
   <v>       0.80929654       0.54262564       0.65850305 </v>
   <v>       0.04586250       0.20411950       0.75272599 </v>
   <v>       0.04586250       0.70411946       0.75272599 </v>
   <v>       0.54586251       0.20411950       0.75272599 </v>
   <v>       0.54586250       0.70411946       0.75272599 </v>
   <v>       0.20411900       0.45410100       0.75270499 </v>
   <v>       0.20411899       0.95410095       0.75270499 </v>
   <v>       0.70411898       0.45410100       0.75270499 </v>
   <v>       0.70411896       0.95410095       0.75270499 </v>
   <v>       0.45414002       0.29588849       0.75272697 </v>
   <v>       0.45414001       0.79588852       0.75272697 </v>
   <v>       0.95414002       0.29588849       0.75272697 </v>
   <v>       0.95414006       0.79588852       0.75272697 </v>
   <v>       0.29588249       0.04590050       0.75270499 </v>
   <v>       0.29588248       0.54590053       0.75270499 </v>
   <v>       0.79588244       0.04590050       0.75270499 </v>
   <v>       0.79588248       0.54590053       0.75270499 </v>
   <v>       0.76238002       0.55409193       0.55448676 </v>
   <v>       0.49155460       0.01474066       0.55160398 </v>
   <v>       0.48337880       0.51783253       0.55603272 </v>
   <v>       0.99032136       0.00306944       0.55293591 </v>
   <v>       0.02615322       0.51013066       0.55620726 </v>
   <v>       0.25053338       0.24658225       0.55141376 </v>
   <v>       0.24845525       0.75341725       0.55198192 </v>
   <v>       0.73266190       0.22247614       0.55884371 </v>
   <v>       0.72390736       0.77728942       0.54610666 </v>
   <v>       0.00515556       0.00166477       0.65517255 </v>
   <v>       0.01860463       0.50193567       0.65612635 </v>
   <v>       0.50169746       0.99956846       0.65449742 </v>
   <v>       0.50224405       0.49424626       0.65548529 </v>
   <v>       0.24996408       0.24542590       0.65376736 </v>
   <v>       0.25282717       0.75565155       0.65500406 </v>
   <v>       0.73968828       0.25687529       0.65642371 </v>
   <v>       0.75302755       0.75571221       0.65377157 </v>
   <v>       0.14225428       0.10600421       0.60706197 </v>
   <v>       0.14625146       0.60824268       0.60911597 </v>
   <v>       0.64297367       0.10311480       0.60933525 </v>
   <v>       0.62074323       0.63150757       0.61452037 </v>
   <v>       0.35638195       0.39433440       0.60744920 </v>
   <v>       0.36170522       0.89181392       0.60820038 </v>
   <v>       0.87767607       0.37412212       0.61309473 </v>
   <v>       0.85670542       0.89670151       0.60916792 </v>
   <v>       0.11534642       0.35410590       0.60791639 </v>
   <v>       0.11493973       0.86487357       0.61020249 </v>
   <v>       0.58920969       0.34299428       0.60837589 </v>
   <v>       0.60692769       0.86097694       0.61053251 </v>
   <v>       0.39231753       0.14111094       0.60883308 </v>
   <v>       0.38606609       0.64027310       0.61177690 </v>
   <v>       0.88862427       0.13666197       0.61047214 </v>
   <v>       0.91399145       0.64906196       0.61504495 </v>
   <v>       0.00000000       0.00000000       0.75492797 </v>
   <v>       0.00000000       0.50000000       0.75492797 </v>
   <v>       0.50000000       0.00000000       0.75492797 </v>
   <v>       0.49999999       0.50000000       0.75492797 </v>
   <v>       0.25000050       0.25000000       0.75493902 </v>
   <v>       0.25000051       0.74999997       0.75493902 </v>
   <v>       0.75000047       0.25000000       0.75493902 </v>
   <v>       0.75000046       0.74999997       0.75493902 </v>
   <v>       0.13579050       0.11421000       0.70478299 </v>
   <v>       0.13579050       0.61420998       0.70478299 </v>
   <v>       0.63579045       0.11421000       0.70478299 </v>
   <v>       0.63579049       0.61420998       0.70478299 </v>
   <v>       0.36420952       0.38578999       0.70478299 </v>
   <v>       0.36420950       0.88578996       0.70478299 </v>
   <v>       0.86420954       0.38578999       0.70478299 </v>
   <v>       0.86420953       0.88578996       0.70478299 </v>
   <v>       0.11421799       0.36421899       0.70478098 </v>
   <v>       0.11421799       0.86421899       0.70478098 </v>
   <v>       0.61421800       0.36421899       0.70478098 </v>
   <v>       0.61421799       0.86421899       0.70478098 </v>
   <v>       0.38578201       0.13578149       0.70478202 </v>
   <v>       0.38578200       0.63578149       0.70478202 </v>
   <v>       0.88578199       0.13578149       0.70478202 </v>
   <v>       0.88578203       0.63578149       0.70478202 </v>
   <v>       0.13466700       0.11533200       0.80125603 </v>
   <v>       0.13466699       0.61533199       0.80125603 </v>
   <v>       0.63466699       0.11533200       0.80125603 </v>
   <v>       0.63466698       0.61533199       0.80125603 </v>
   <v>       0.36533300       0.38466799       0.80125603 </v>
   <v>       0.36533299       0.88466796       0.80125603 </v>
   <v>       0.86533295       0.38466799       0.80125603 </v>
   <v>       0.86533294       0.88466796       0.80125603 </v>
   <v>       0.11532850       0.36533700       0.80126500 </v>
   <v>       0.11532850       0.86533698       0.80126500 </v>
   <v>       0.61532850       0.36533700       0.80126500 </v>
   <v>       0.61532849       0.86533698       0.80126500 </v>
   <v>       0.38467151       0.13466300       0.80126500 </v>
   <v>       0.38467150       0.63466297       0.80126500 </v>
   <v>       0.88467149       0.13466300       0.80126500 </v>
   <v>       0.88467153       0.63466297       0.80126500 </v>
   <v>       0.99817956       0.00480674       0.60370144 </v>
   <v>       0.00708568       0.50195256       0.60664319 </v>
   <v>       0.49671373       0.00702792       0.60287119 </v>
   <v>       0.49664672       0.49776254       0.60491219 </v>
   <v>       0.24829006       0.24941608       0.60265582 </v>
   <v>       0.25251116       0.75094669       0.60350328 </v>
   <v>       0.74297964       0.25224615       0.60782018 </v>
   <v>       0.74347243       0.76229144       0.60481445 </v>
   <v>       0.00000050       0.00000050       0.70482896 </v>
   <v>       0.00000050       0.50000048       0.70482896 </v>
   <v>       0.50000048       0.00000050       0.70482896 </v>
   <v>       0.50000046       0.50000048       0.70482896 </v>
   <v>       0.24999999       0.24999947       0.70482499 </v>
   <v>       0.25000001       0.74999950       0.70482499 </v>
   <v>       0.74999999       0.24999947       0.70482499 </v>
   <v>       0.74999998       0.74999950       0.70482499 </v>
   <v>       0.00000000       0.00000000       0.80731797 </v>
   <v>       0.00000000       0.50000000       0.80731797 </v>
   <v>       0.50000000       0.00000000       0.80731797 </v>
   <v>       0.49999999       0.50000000       0.80731797 </v>
   <v>       0.24999999       0.25000000       0.80731797 </v>
   <v>       0.25000001       0.74999997       0.80731797 </v>
   <v>       0.74999999       0.25000000       0.80731797 </v>
   <v>       0.74999998       0.74999997       0.80731797 </v>
  </varray>
 </structure>
</modeling>
