 vasp.6.2.1 16May21 (build Nov 15 2021 14:57:28) complex                         
 executed on             LinuxPGI date 2023.07.30  16:59:03
 running on    4 total cores
 distrk:  each k-point on    4 cores,    1 groups
 distr:  one band on NCORE=   1 cores,    4 groups


--------------------------------------------------------------------------------------------------------


 INCAR:
   SYSTEM = PSC
   ISTART = 1
   ICHARG = 1
   PREC = Normal
   ENCUT = 500
   GGA_COMPAT = F
   NELM = 600
   ISYM = 0
   LREAL = Auto
   ISMEAR = 0
   SIGMA = 0.05
   AMIN = 0.01
   BMIX = 0.01
   LVTOT = T
   LWAVE = F
   LDIPOL = T
   IDIPOL = 3
   LVDW = T
   IVDW = 12

 POTCAR:    PAW_PBE H 15Jun2001                   
 POTCAR:    PAW_PBE C 08Apr2002                   
 POTCAR:    PAW_PBE N 08Apr2002                   
 POTCAR:    PAW_PBE I 08Apr2002                   
 POTCAR:    PAW_PBE Pb 08Apr2002                  
 WARNING: For LVTOT=.TRUE., VASP.5.x writes the TOTAL local potential to the
     file LOCPOT. If you want only the Hartree contributions, use LVHAR=.TRUE.
     instead. 

 POTCAR:    PAW_PBE H 15Jun2001                   
   SHA256 =  030f79b5d3ab3cf0e668861823c8fb652ff669f3e15e46930bd03bfd63a607b6 H/POTCAR              
   COPYR  = (c) Copyright 15Jun2001 Georg Kresse                                                    
   COPYR  = This file is part of the software VASP. Any use, copying, and all other rights are regul
   COPYR  = If you do not have a valid VASP license, you may not use, copy or distribute this file. 
   VRHFIN =H: ultrasoft test                                                                        
   LEXCH  = PE                                                                                      
   EATOM  =    12.4884 eV,    0.9179 Ry                                                             
                                                                                                    
   TITEL  = PAW_PBE H 15Jun2001                                                                     
   LULTRA =        F    use ultrasoft PP ?                                                          
   IUNSCR =        0    unscreen: 0-lin 1-nonlin 2-no                                               
   RPACOR =    0.000    partial core radius                                                         
   POMASS =    1.000; ZVAL   =    1.000    mass and valenz                                          
   RCORE  =    1.100    outmost cutoff radius                                                       
   RWIGS  =    0.700; RWIGS  =    0.370    wigner-seitz radius (au A)                               
   ENMAX  =  250.000; ENMIN  =  200.000 eV                                                          
   RCLOC  =    0.701    cutoff for local pot                                                        
   LCOR   =        T    correct aug charges                                                         
   LPAW   =        T    paw PP                                                                      
   EAUG   =  400.000                                                                                
   RMAX   =    1.123    core radius for proj-oper                                                   
   RAUG   =    1.200    factor for augmentation sphere                                              
   RDEP   =    1.112    radius for radial grids                                                     
   RDEPT  =    0.926    core radius for aug-charge                                                  
                                                                                                    
   Atomic configuration                                                                             
    2 entries                                                                                       
     n  l   j            E        occ.                                                              
     1  0  0.50        -6.4927   1.0000                                                             
     2  1  0.50        -3.4015   0.0000                                                             
   Description                                                                                      
     l       E           TYP  RCUT    TYP  RCUT                                                     
     0     -6.4927494     23  1.100                                                                 
     0      6.8029130     23  1.100                                                                 
     1     -4.0817478     23  1.100                                                                 
  local pseudopotential read in
  atomic valenz-charges read in
  non local Contribution for L=            0  read in
    real space projection operators read in
  non local Contribution for L=            0  read in
    real space projection operators read in
  non local Contribution for L=            1  read in
    real space projection operators read in
    PAW grid and wavefunctions read in
 
   number of l-projection  operators is LMAX  =            3
   number of lm-projection operators is LMMAX =            5
 
 POTCAR:    PAW_PBE C 08Apr2002                   
   SHA256 =  253f7b50bb8d59471dbedb8285d89021f4a42ed1a2c5d38a03a736e69125dd95 C/POTCAR              
   COPYR  = (c) Copyright 08Apr2002 Georg Kresse                                                    
   COPYR  = This file is part of the software VASP. Any use, copying, and all other rights are regul
   COPYR  = If you do not have a valid VASP license, you may not use, copy or distribute this file. 
   VRHFIN =C: s2p2                                                                                  
   LEXCH  = PE                                                                                      
   EATOM  =   147.1560 eV,   10.8157 Ry                                                             
                                                                                                    
   TITEL  = PAW_PBE C 08Apr2002                                                                     
   LULTRA =        F    use ultrasoft PP ?                                                          
   IUNSCR =        1    unscreen: 0-lin 1-nonlin 2-no                                               
   RPACOR =    1.200    partial core radius                                                         
   POMASS =   12.011; ZVAL   =    4.000    mass and valenz                                          
   RCORE  =    1.500    outmost cutoff radius                                                       
   RWIGS  =    1.630; RWIGS  =    0.863    wigner-seitz radius (au A)                               
   ENMAX  =  400.000; ENMIN  =  300.000 eV                                                          
   ICORE  =        2    local potential                                                             
   LCOR   =        T    correct aug charges                                                         
   LPAW   =        T    paw PP                                                                      
   EAUG   =  644.873                                                                                
   DEXC   =    0.000                                                                                
   RMAX   =    1.529    core radius for proj-oper                                                   
   RAUG   =    1.300    factor for augmentation sphere                                              
   RDEP   =    1.501    radius for radial grids                                                     
   RDEPT  =    1.300    core radius for aug-charge                                                  
                                                                                                    
   Atomic configuration                                                                             
    4 entries                                                                                       
     n  l   j            E        occ.                                                              
     1  0  0.50      -273.3789   2.0000                                                             
     2  0  0.50       -13.7508   2.0000                                                             
     2  1  0.50        -5.2854   2.0000                                                             
     3  2  1.50        -5.4423   0.0000                                                             
   Description                                                                                      
     l       E           TYP  RCUT    TYP  RCUT                                                     
     0    -13.7508458     23  1.200                                                                 
     0     -8.2022199     23  1.200                                                                 
     1     -5.2854383     23  1.500                                                                 
     1     34.0145650     23  1.500                                                                 
     2     -5.4423304      7  1.500                                                                 
  local pseudopotential read in
  partial core-charges read in
  partial kinetic energy density read in
  atomic valenz-charges read in
  non local Contribution for L=            0  read in
    real space projection operators read in
  non local Contribution for L=            0  read in
    real space projection operators read in
  non local Contribution for L=            1  read in
    real space projection operators read in
  non local Contribution for L=            1  read in
    real space projection operators read in
    PAW grid and wavefunctions read in
 
   number of l-projection  operators is LMAX  =            4
   number of lm-projection operators is LMMAX =            8
 
 POTCAR:    PAW_PBE N 08Apr2002                   
   SHA256 =  e053789ff3a61a86a1b75d8a110fcc91f86041011e7b0817c7c99e4e8a6349d7 N/POTCAR              
   COPYR  = (c) Copyright 08Apr2002 Georg Kresse                                                    
   COPYR  = This file is part of the software VASP. Any use, copying, and all other rights are regul
   COPYR  = If you do not have a valid VASP license, you may not use, copy or distribute this file. 
   VRHFIN =N: s2p3                                                                                  
   LEXCH  = PE                                                                                      
   EATOM  =   264.5486 eV,   19.4438 Ry                                                             
                                                                                                    
   TITEL  = PAW_PBE N 08Apr2002                                                                     
   LULTRA =        F    use ultrasoft PP ?                                                          
   IUNSCR =        1    unscreen: 0-lin 1-nonlin 2-no                                               
   RPACOR =    1.200    partial core radius                                                         
   POMASS =   14.001; ZVAL   =    5.000    mass and valenz                                          
   RCORE  =    1.500    outmost cutoff radius                                                       
   RWIGS  =    1.400; RWIGS  =    0.741    wigner-seitz radius (au A)                               
   ENMAX  =  400.000; ENMIN  =  300.000 eV                                                          
   ICORE  =        2    local potential                                                             
   LCOR   =        T    correct aug charges                                                         
   LPAW   =        T    paw PP                                                                      
   EAUG   =  627.112                                                                                
   DEXC   =    0.000                                                                                
   RMAX   =    1.529    core radius for proj-oper                                                   
   RAUG   =    1.300    factor for augmentation sphere                                              
   RDEP   =    1.514    radius for radial grids                                                     
   RDEPT  =    1.338    core radius for aug-charge                                                  
                                                                                                    
   Atomic configuration                                                                             
    4 entries                                                                                       
     n  l   j            E        occ.                                                              
     1  0  0.50      -384.7179   2.0000                                                             
     2  0  0.50       -18.5828   2.0000                                                             
     2  1  0.50        -7.0898   3.0000                                                             
     3  2  1.50        -6.8029   0.0000                                                             
   Description                                                                                      
     l       E           TYP  RCUT    TYP  RCUT                                                     
     0    -18.5828119     23  1.200                                                                 
     0    -13.5018863     23  1.200                                                                 
     1     -7.0897853     23  1.500                                                                 
     1      9.5240782     23  1.500                                                                 
     2     -6.8029130      7  1.500                                                                 
  local pseudopotential read in
  partial core-charges read in
  partial kinetic energy density read in
  atomic valenz-charges read in
  non local Contribution for L=            0  read in
    real space projection operators read in
  non local Contribution for L=            0  read in
    real space projection operators read in
  non local Contribution for L=            1  read in
    real space projection operators read in
  non local Contribution for L=            1  read in
    real space projection operators read in
    PAW grid and wavefunctions read in
 
   number of l-projection  operators is LMAX  =            4
   number of lm-projection operators is LMMAX =            8
 
 POTCAR:    PAW_PBE I 08Apr2002                   
   SHA256 =  e40f3f59b681c1fc3e3091736183c4589116986673d2b852a5012aec72758799 I/POTCAR              
   COPYR  = (c) Copyright 08Apr2002 Georg Kresse                                                    
   COPYR  = This file is part of the software VASP. Any use, copying, and all other rights are regul
   COPYR  = If you do not have a valid VASP license, you may not use, copy or distribute this file. 
   VRHFIN =I : s2p5                                                                                 
   LEXCH  = PE                                                                                      
   EATOM  =   315.8678 eV,   23.2156 Ry                                                             
                                                                                                    
   TITEL  = PAW_PBE I 08Apr2002                                                                     
   LULTRA =        F    use ultrasoft PP ?                                                          
   IUNSCR =        1    unscreen: 0-lin 1-nonlin 2-no                                               
   RPACOR =    2.200    partial core radius                                                         
   POMASS =  126.904; ZVAL   =    7.000    mass and valenz                                          
   RCORE  =    2.300    outmost cutoff radius                                                       
   RWIGS  =    2.810; RWIGS  =    1.487    wigner-seitz radius (au A)                               
   ENMAX  =  175.647; ENMIN  =  131.735 eV                                                          
   ICORE  =        3    local potential                                                             
   LCOR   =        T    correct aug charges                                                         
   LPAW   =        T    paw PP                                                                      
   EAUG   =  370.139                                                                                
   DEXC   =    0.000                                                                                
   RMAX   =    2.359    core radius for proj-oper                                                   
   RAUG   =    1.300    factor for augmentation sphere                                              
   RDEP   =    2.392    radius for radial grids                                                     
   RDEPT  =    2.170    core radius for aug-charge                                                  
                                                                                                    
   Atomic configuration                                                                             
   13 entries                                                                                       
     n  l   j            E        occ.                                                              
     1  0  0.50    -32976.3739   2.0000                                                             
     2  0  0.50     -5094.5933   2.0000                                                             
     2  1  1.50     -4572.0131   6.0000                                                             
     3  0  0.50     -1028.2813   2.0000                                                             
     3  1  1.50      -859.0250   6.0000                                                             
     3  2  2.50      -605.7620  10.0000                                                             
     4  0  0.50      -180.5540   2.0000                                                             
     4  1  1.50      -127.5306   6.0000                                                             
     4  2  2.50       -50.2720  10.0000                                                             
     5  0  0.50       -17.4058   2.0000                                                             
     5  1  0.50        -7.0851   5.0000                                                             
     5  2  1.50        -7.0750   0.0000                                                             
     4  3  2.50        -7.0750   0.0000                                                             
   Description                                                                                      
     l       E           TYP  RCUT    TYP  RCUT                                                     
     0    -17.4058016     23  2.300                                                                 
     0    -18.7663842     23  2.300                                                                 
     1     -7.0850686     23  2.300                                                                 
     1     -4.2150896     23  2.300                                                                 
     2     -7.0750295     23  2.300                                                                 
     3     -1.3605826     23  2.300                                                                 
  local pseudopotential read in
  partial core-charges read in
  partial kinetic energy density read in
  atomic valenz-charges read in
  non local Contribution for L=            0  read in
    real space projection operators read in
  non local Contribution for L=            0  read in
    real space projection operators read in
  non local Contribution for L=            1  read in
    real space projection operators read in
  non local Contribution for L=            1  read in
    real space projection operators read in
  non local Contribution for L=            2  read in
    real space projection operators read in
    PAW grid and wavefunctions read in
 
   number of l-projection  operators is LMAX  =            5
   number of lm-projection operators is LMMAX =           13
 
 POTCAR:    PAW_PBE Pb 08Apr2002                  
   SHA256 =  797118a27cf1bcd06b9881c67a26cdde129e3cd1a551dd4a281f9681ce847303 Pb/POTCAR             
   COPYR  = (c) Copyright 08Apr2002 Georg Kresse                                                    
   COPYR  = This file is part of the software VASP. Any use, copying, and all other rights are regul
   COPYR  = If you do not have a valid VASP license, you may not use, copy or distribute this file. 
   VRHFIN =Pb:                                                                                      
   LEXCH  = PE                                                                                      
   EATOM  =    96.9868 eV,    7.1283 Ry                                                             
                                                                                                    
   TITEL  = PAW_PBE Pb 08Apr2002                                                                    
   LULTRA =        F    use ultrasoft PP ?                                                          
   IUNSCR =        1    unscreen: 0-lin 1-nonlin 2-no                                               
   RPACOR =    2.200    partial core radius                                                         
   POMASS =  207.200; ZVAL   =    4.000    mass and valenz                                          
   RCORE  =    3.100    outmost cutoff radius                                                       
   RWIGS  =    3.260; RWIGS  =    1.725    wigner-seitz radius (au A)                               
   ENMAX  =   97.973; ENMIN  =   73.480 eV                                                          
   ICORE  =        3    local potential                                                             
   LCOR   =        T    correct aug charges                                                         
   LPAW   =        T    paw PP                                                                      
   EAUG   =  234.873                                                                                
   DEXC   =    0.000                                                                                
   RMAX   =    3.158    core radius for proj-oper                                                   
   RAUG   =    1.300    factor for augmentation sphere                                              
   RDEP   =    3.202    radius for radial grids                                                     
   RDEPT  =    2.659    core radius for aug-charge                                                  
                                                                                                    
   Atomic configuration                                                                             
   17 entries                                                                                       
     n  l   j            E        occ.                                                              
     1  0  0.50    -88091.8466   2.0000                                                             
     2  0  0.50    -15753.4197   2.0000                                                             
     2  1  1.50    -13508.1797   6.0000                                                             
     3  0  0.50     -3781.7194   2.0000                                                             
     3  1  1.50     -3138.2529   6.0000                                                             
     3  2  2.50     -2483.2977  10.0000                                                             
     4  0  0.50      -856.2895   2.0000                                                             
     4  1  1.50      -645.4943   6.0000                                                             
     4  2  2.50      -401.8768  10.0000                                                             
     4  3  3.50      -132.9059  14.0000                                                             
     5  0  0.50      -144.0950   2.0000                                                             
     5  1  1.50       -85.7879   6.0000                                                             
     5  2  2.50       -21.1769  10.0000                                                             
     6  0  0.50       -12.0372   2.0000                                                             
     6  1  1.50        -3.4971   2.0000                                                             
     6  2  2.50        -1.3606   0.0000                                                             
     5  3  2.50        -2.7212   0.0000                                                             
   Description                                                                                      
     l       E           TYP  RCUT    TYP  RCUT                                                     
     0    -12.0371566     23  3.100                                                                 
     0    -13.3977392     23  3.100                                                                 
     1     -3.4971341     23  3.100                                                                 
     1     -5.4423304     23  3.100                                                                 
     2     -1.3605826     23  3.100                                                                 
     3     -1.3605826     23  3.100                                                                 
  local pseudopotential read in
  partial core-charges read in
  partial kinetic energy density read in
  atomic valenz-charges read in
  non local Contribution for L=            0  read in
    real space projection operators read in
  non local Contribution for L=            0  read in
    real space projection operators read in
  non local Contribution for L=            1  read in
    real space projection operators read in
  non local Contribution for L=            1  read in
    real space projection operators read in
  non local Contribution for L=            2  read in
    real space projection operators read in
    PAW grid and wavefunctions read in
 
   number of l-projection  operators is LMAX  =            5
   number of lm-projection operators is LMMAX =           13
 
 Optimization of the real space projectors (new method)

 maximal supplied QI-value         = 34.20
 optimisation between [QCUT,QGAM] = [ 11.29, 22.57] = [ 35.68,142.71] Ry 
 Optimized for a Real-space Cutoff    1.16 Angstroem

   l    n(q)    QCUT    max X(q) W(low)/X(q) W(high)/X(q)  e(spline) 
   0      8    11.287    19.460    0.40E-03    0.73E-03    0.16E-06
   0      8    11.287    12.209    0.38E-03    0.70E-03    0.15E-06
   1      7    11.287     4.655    0.22E-03    0.25E-04    0.22E-06
 Optimization of the real space projectors (new method)

 maximal supplied QI-value         = 25.13
 optimisation between [QCUT,QGAM] = [ 11.31, 22.87] = [ 35.82,146.48] Ry 
 Optimized for a Real-space Cutoff    1.00 Angstroem

   l    n(q)    QCUT    max X(q) W(low)/X(q) W(high)/X(q)  e(spline) 
   0      7    11.310   115.676    0.43E-03    0.13E-02    0.19E-06
   0      7    11.310    87.132    0.43E-03    0.13E-02    0.18E-06
   1      6    11.310     4.429    0.42E-03    0.74E-03    0.11E-06
   1      6    11.310     2.733    0.34E-03    0.55E-03    0.92E-07
 Optimization of the real space projectors (new method)

 maximal supplied QI-value         = 25.13
 optimisation between [QCUT,QGAM] = [ 11.31, 22.87] = [ 35.82,146.48] Ry 
 Optimized for a Real-space Cutoff    1.27 Angstroem

   l    n(q)    QCUT    max X(q) W(low)/X(q) W(high)/X(q)  e(spline) 
   0      9    11.310    79.467    0.75E-04    0.16E-03    0.36E-06
   0      9    11.310    66.151    0.74E-04    0.16E-03    0.36E-06
   1      8    11.310    17.416    0.35E-03    0.12E-03    0.95E-06
   1      8    11.310    12.382    0.37E-03    0.13E-03    0.98E-06
 Optimization of the real space projectors (new method)

 maximal supplied QI-value         = 16.25
 optimisation between [QCUT,QGAM] = [ 11.38, 22.75] = [ 36.24,144.96] Ry 
 Optimized for a Real-space Cutoff    1.31 Angstroem

   l    n(q)    QCUT    max X(q) W(low)/X(q) W(high)/X(q)  e(spline) 
   0      9    11.376   194.483    0.24E-03    0.23E-03    0.67E-07
   0      9    11.376   190.334    0.23E-03    0.22E-03    0.65E-07
   1      8    11.376   116.687    0.25E-03    0.63E-04    0.16E-06
   1      8    11.376    88.696    0.25E-03    0.61E-04    0.16E-06
   2      8    11.376     4.877    0.17E-03    0.14E-03    0.29E-07
 Optimization of the real space projectors (new method)

 maximal supplied QI-value         = 12.09
 optimisation between [QCUT,QGAM] = [ 11.37, 22.86] = [ 36.19,146.31] Ry 
 Optimized for a Real-space Cutoff    1.66 Angstroem

   l    n(q)    QCUT    max X(q) W(low)/X(q) W(high)/X(q)  e(spline) 
   0     11    11.369   135.111    0.12E-03    0.69E-04    0.19E-05
   0     11    11.369   146.850    0.11E-03    0.65E-04    0.18E-05
   1     11    11.369   148.016    0.17E-03    0.32E-03    0.89E-06
   1     11    11.369   122.989    0.17E-03    0.32E-03    0.91E-06
   2     10    11.369     8.916    0.12E-03    0.45E-04    0.33E-06
  PAW_PBE H 15Jun2001                   :
 energy of atom  1       EATOM=  -12.4884
 kinetic energy error for atom=    0.0020 (will be added to EATOM!!)
  PAW_PBE C 08Apr2002                   :
 energy of atom  2       EATOM= -147.1560
 kinetic energy error for atom=    0.0076 (will be added to EATOM!!)
  PAW_PBE N 08Apr2002                   :
 energy of atom  3       EATOM= -264.5486
 kinetic energy error for atom=    0.0138 (will be added to EATOM!!)
  PAW_PBE I 08Apr2002                   :
 energy of atom  4       EATOM= -315.8678
 kinetic energy error for atom=    0.0009 (will be added to EATOM!!)
  PAW_PBE Pb 08Apr2002                  :
 energy of atom  5       EATOM=  -96.9868
 kinetic energy error for atom=    0.0000 (will be added to EATOM!!)
 
 
 POSCAR:  H  C  N  I Pb
  positions in cartesian coordinates
  No initial velocities read in
 exchange correlation table for  LEXCH =        8
   RHO(1)=    0.500       N(1)  =     2000
   RHO(2)=  100.500       N(2)  =     4000
 


--------------------------------------------------------------------------------------------------------


 ion  position               nearest neighbor table
   1  0.445  0.299  0.583- 187 1.08
   2  0.443  0.828  0.579- 188 1.06
   3  0.959  0.270  0.586- 189 1.01
   4  0.970  0.807  0.586- 190 1.04
   5  0.299  0.045  0.584- 194 1.01
   6  0.301  0.548  0.583- 195 1.01
   7  0.780  0.066  0.581- 196 1.01
   8  0.098  0.186  0.554- 183 0.99
   9  0.079  0.675  0.556- 184 1.02
  10  0.587  0.179  0.556- 185 1.03
  11  0.547  0.660  0.566- 186 1.01
  12  0.347  0.059  0.559- 194 1.07
  13  0.319  0.593  0.558- 195 1.06
  14  0.830  0.082  0.558- 196 1.06
  15  0.073  0.198  0.580- 183 1.02
  16  0.049  0.693  0.582- 184 1.06
  17  0.564  0.218  0.582- 185 1.06
  18  0.515  0.711  0.587- 186 1.01
  19  0.212  0.437  0.582- 191 1.01
  20  0.182  0.964  0.581- 192 1.01
  21  0.693  0.954  0.581- 193 1.01
  22  0.395  0.301  0.558- 187 1.02
  23  0.434  0.850  0.552- 188 1.04
  24  0.910  0.301  0.565- 189 1.02
  25  0.950  0.858  0.564- 190 1.02
  26  0.177  0.415  0.556- 191 1.07
  27  0.159  0.932  0.556- 192 1.06
  28  0.692  0.901  0.557- 193 1.08
  29  0.481  0.225  0.540- 146 1.09
  30  0.503  0.742  0.540- 147 1.12
  31  0.994  0.252  0.541- 144 1.11
  32  0.017  0.780  0.541- 145 1.12
  33  0.244  0.513  0.539- 148 1.10
  34  0.262  0.989  0.540- 149 1.10
  35  0.777  0.979  0.540- 150 1.10
  36  0.452  0.306  0.675- 205 1.06
  37  0.441  0.803  0.676- 206 1.06
  38  0.945  0.296  0.675- 207 1.03
  39  0.947  0.806  0.675- 208 1.02
  40  0.298  0.045  0.676- 209 1.06
  41  0.295  0.554  0.676- 210 1.05
  42  0.810  0.053  0.674- 211 1.06
  43  0.829  0.538  0.675- 212 1.06
  44  0.085  0.172  0.650- 197 1.00
  45  0.085  0.680  0.652- 198 1.01
  46  0.573  0.166  0.650- 199 1.00
  47  0.572  0.669  0.652- 200 1.06
  48  0.185  0.412  0.648- 201 1.02
  49  0.169  0.920  0.647- 202 1.03
  50  0.659  0.444  0.652- 203 1.03
  51  0.666  0.927  0.652- 204 1.02
  52  0.057  0.196  0.675- 197 1.04
  53  0.045  0.704  0.677- 198 1.00
  54  0.552  0.202  0.675- 199 1.03
  55  0.544  0.700  0.677- 200 1.00
  56  0.206  0.442  0.674- 201 1.05
  57  0.194  0.943  0.673- 202 1.04
  58  0.708  0.446  0.676- 203 1.02
  59  0.701  0.956  0.676- 204 1.04
  60  0.418  0.326  0.650- 205 1.01
  61  0.417  0.830  0.650- 206 1.01
  62  0.918  0.320  0.650- 207 1.05
  63  0.926  0.837  0.650- 208 1.03
  64  0.329  0.076  0.651- 209 1.01
  65  0.324  0.586  0.651- 210 0.98
  66  0.833  0.077  0.647- 211 1.01
  67  0.842  0.576  0.650- 212 1.05
  68  1.000  0.248  0.632- 151 1.08
  69  0.014  0.760  0.633- 152 1.08
  70  0.490  0.238  0.632- 153 1.08
  71  0.499  0.746  0.633- 154 1.09
  72  0.250  0.998  0.631- 156 1.08
  73  0.259  0.501  0.631- 155 1.09
  74  0.744  0.998  0.632- 158 1.08
  75  0.736  0.522  0.634- 157 1.13
  76  0.449  0.301  0.769- 221 1.02
  77  0.449  0.801  0.769- 222 1.02
  78  0.949  0.301  0.769- 223 1.02
  79  0.949  0.801  0.769- 224 1.02
  80  0.301  0.051  0.769- 225 1.02
  81  0.301  0.551  0.769- 226 1.02
  82  0.801  0.051  0.769- 227 1.02
  83  0.801  0.551  0.769- 228 1.02
  84  0.079  0.171  0.743- 213 1.02
  85  0.079  0.671  0.743- 214 1.02
  86  0.579  0.171  0.743- 215 1.02
  87  0.579  0.671  0.743- 216 1.02
  88  0.171  0.421  0.743- 217 1.02
  89  0.171  0.921  0.743- 218 1.02
  90  0.671  0.421  0.743- 219 1.02
  91  0.671  0.921  0.743- 220 1.02
  92  0.051  0.199  0.769- 213 1.02
  93  0.051  0.699  0.769- 214 1.02
  94  0.551  0.199  0.769- 215 1.02
  95  0.551  0.699  0.769- 216 1.02
  96  0.199  0.449  0.769- 217 1.02
  97  0.199  0.949  0.769- 218 1.02
  98  0.699  0.449  0.769- 219 1.02
  99  0.699  0.949  0.769- 220 1.02
 100  0.421  0.329  0.743- 221 1.02
 101  0.421  0.829  0.743- 222 1.02
 102  0.921  0.329  0.743- 223 1.02
 103  0.921  0.829  0.743- 224 1.02
 104  0.329  0.079  0.743- 225 1.02
 105  0.329  0.579  0.743- 226 1.02
 106  0.829  0.079  0.743- 227 1.02
 107  0.829  0.579  0.743- 228 1.02
 108  0.000  0.250  0.726- 161 1.09
 109  0.000  0.750  0.726- 162 1.09
 110  0.500  0.250  0.726- 159 1.09
 111  0.500  0.750  0.726- 160 1.09
 112  0.250  0.000  0.726- 163 1.09
 113  0.250  0.500  0.726- 164 1.09
 114  0.750  0.000  0.726- 165 1.09
 115  0.750  0.500  0.726- 166 1.09
 116  0.719  0.452  0.547- 173 1.09
 117  0.740  0.515  0.526- 173 1.09
 118  0.654  0.548  0.562- 174 1.08
 119  0.687  0.640  0.563- 174 1.09
 120  0.839  0.515  0.581- 175 1.11
 121  0.775  0.582  0.588- 175 1.09
 122  0.875  0.559  0.544- 176 1.10
 123  0.814  0.620  0.529- 176 1.13
 124  0.871  0.481  0.527- 177 1.10
 125  0.864  0.452  0.554- 177 1.11
 126  0.888  0.353  0.530- 178 1.11
 127  0.795  0.340  0.540- 178 1.12
 128  0.620  0.558  0.527- 179 1.09
 129  0.696  0.612  0.519- 179 1.09
 130  0.623  0.654  0.532- 179 1.08
 131  0.724  0.462  0.603- 180 1.10
 132  0.743  0.417  0.579- 180 1.10
 133  0.669  0.479  0.581- 180 1.10
 134  0.840  0.677  0.573- 181 1.09
 135  0.876  0.712  0.550- 181 1.10
 136  0.923  0.637  0.564- 181 1.10
 137  0.842  0.399  0.495- 182 1.13
 138  0.804  0.310  0.502- 182 1.11
 139  0.673  0.319  0.524- 168 1.09
 140  0.754  0.490  0.481- 169 1.11
 141  0.544  0.367  0.521- 170 1.10
 142  0.624  0.540  0.478- 171 1.12
 143  0.521  0.483  0.498- 172 1.12
 144  0.004  0.244  0.558-  31 1.11 189 1.28 183 1.32
 145  0.015  0.767  0.558-  32 1.12 184 1.29 190 1.29
 146  0.490  0.240  0.556-  29 1.09 187 1.32 185 1.33
 147  0.493  0.754  0.558-  30 1.12 188 1.30 186 1.33
 148  0.247  0.504  0.556-  33 1.10 191 1.31 195 1.33
 149  0.253  0.996  0.557-  34 1.10 194 1.31 192 1.33
 150  0.760  0.991  0.557-  35 1.10 193 1.30 196 1.33
 151  0.001  0.247  0.649-  68 1.08 207 1.28 197 1.36
 152  0.005  0.759  0.651-  69 1.08 208 1.30 198 1.36
 153  0.495  0.246  0.649-  70 1.08 205 1.30 199 1.35
 154  0.495  0.750  0.651-  71 1.09 206 1.30 200 1.32
 155  0.255  0.498  0.649-  73 1.09 201 1.30 210 1.35
 156  0.250  0.999  0.648-  72 1.08 209 1.30 202 1.34
 157  0.750  0.510  0.651-  75 1.13 212 1.31 203 1.32
 158  0.751  0.002  0.649-  74 1.08 211 1.30 204 1.34
 159  0.500  0.250  0.743- 110 1.09 221 1.31 215 1.31
 160  0.500  0.750  0.743- 111 1.09 222 1.31 216 1.31
 161  1.000  0.250  0.743- 108 1.09 223 1.31 213 1.31
 162  1.000  0.750  0.743- 109 1.09 224 1.31 214 1.31
 163  0.250  0.000  0.743- 112 1.09 225 1.31 218 1.31
 164  0.250  0.500  0.743- 113 1.09 226 1.31 217 1.31
 165  0.750  0.000  0.743- 114 1.09 227 1.31 220 1.31
 166  0.750  0.500  0.743- 115 1.09 228 1.31 219 1.31
 167  0.722  0.400  0.502- 169 1.41 168 1.43 182 1.58
 168  0.662  0.366  0.513- 139 1.09 170 1.40 167 1.43
 169  0.707  0.461  0.489- 140 1.11 171 1.40 167 1.41
 170  0.590  0.394  0.512- 141 1.10 168 1.40 172 1.43
 171  0.635  0.490  0.488- 142 1.12 172 1.38 169 1.40
 172  0.577  0.458  0.499- 143 1.12 171 1.38 170 1.43
 173  0.761  0.488  0.540- 117 1.09 116 1.09 177 1.49 229 1.56
 174  0.687  0.589  0.554- 118 1.08 119 1.09 229 1.49 179 1.51
 175  0.780  0.531  0.579- 121 1.09 120 1.11 180 1.51 229 1.58
 176  0.832  0.602  0.546- 122 1.10 123 1.13 181 1.52 229 1.58
 177  0.835  0.451  0.539- 124 1.10 125 1.11 178 1.47 173 1.49
 178  0.830  0.376  0.530- 126 1.11 127 1.12 177 1.47 182 1.53
 179  0.655  0.603  0.532- 130 1.08 128 1.09 129 1.09 174 1.51
 180  0.727  0.470  0.585- 131 1.10 132 1.10 133 1.10 175 1.51
 181  0.870  0.661  0.559- 134 1.09 136 1.10 135 1.10 176 1.52
 182  0.803  0.369  0.507- 138 1.11 137 1.13 178 1.53 167 1.58
 183  0.062  0.207  0.565-   8 0.99  15 1.02 144 1.32
 184  0.048  0.709  0.565-   9 1.02  16 1.06 145 1.29
 185  0.549  0.208  0.565-  10 1.03  17 1.06 146 1.33
 186  0.522  0.706  0.571-  11 1.01  18 1.01 147 1.33
 187  0.441  0.282  0.566-  22 1.02   1 1.08 146 1.32
 188  0.455  0.813  0.563-  23 1.04   2 1.06 147 1.30
 189  0.955  0.274  0.570-   3 1.01  24 1.02 144 1.28
 190  0.978  0.814  0.570-  25 1.02   4 1.04 145 1.29
 191  0.211  0.450  0.566-  19 1.01  26 1.07 148 1.31
 192  0.195  0.962  0.566-  20 1.01  27 1.06 149 1.33
 193  0.712  0.948  0.566-  21 1.01  28 1.08 150 1.30
 194  0.301  0.035  0.568-   5 1.01  12 1.07 149 1.31
 195  0.291  0.550  0.567-   6 1.01  13 1.06 148 1.33
 196  0.792  0.049  0.566-   7 1.01  14 1.06 150 1.33
 197  0.051  0.202  0.659-  44 1.00  52 1.04 151 1.36
 198  0.049  0.710  0.661-  53 1.00  45 1.01 152 1.36
 199  0.544  0.201  0.659-  46 1.00  54 1.03 153 1.35
 200  0.538  0.705  0.661-  55 1.00  47 1.06 154 1.32
 201  0.214  0.447  0.657-  48 1.02  56 1.05 155 1.30
 202  0.202  0.951  0.657-  49 1.03  57 1.04 156 1.34
 203  0.704  0.465  0.661-  58 1.02  50 1.03 157 1.32
 204  0.703  0.960  0.660-  51 1.02  59 1.04 158 1.34
 205  0.453  0.295  0.659-  60 1.01  36 1.06 153 1.30
 206  0.448  0.797  0.659-  61 1.01  37 1.06 154 1.30
 207  0.954  0.288  0.659-  38 1.03  62 1.05 151 1.28
 208  0.957  0.803  0.659-  39 1.02  63 1.03 152 1.30
 209  0.295  0.042  0.659-  64 1.01  40 1.06 156 1.30
 210  0.293  0.551  0.659-  65 0.98  41 1.05 155 1.35
 211  0.800  0.046  0.657-  66 1.01  42 1.06 158 1.30
 212  0.809  0.542  0.659-  67 1.05  43 1.06 157 1.31
 213  0.046  0.204  0.753-  92 1.02  84 1.02 161 1.31
 214  0.046  0.704  0.753-  93 1.02  85 1.02 162 1.31
 215  0.546  0.204  0.753-  94 1.02  86 1.02 159 1.31
 216  0.546  0.704  0.753-  95 1.02  87 1.02 160 1.31
 217  0.204  0.454  0.753-  96 1.02  88 1.02 164 1.31
 218  0.204  0.954  0.753-  97 1.02  89 1.02 163 1.31
 219  0.704  0.454  0.753-  98 1.02  90 1.02 166 1.31
 220  0.704  0.954  0.753-  99 1.02  91 1.02 165 1.31
 221  0.454  0.296  0.753-  76 1.02 100 1.02 159 1.31
 222  0.454  0.796  0.753-  77 1.02 101 1.02 160 1.31
 223  0.954  0.296  0.753-  78 1.02 102 1.02 161 1.31
 224  0.954  0.796  0.753-  79 1.02 103 1.02 162 1.31
 225  0.296  0.046  0.753-  80 1.02 104 1.02 163 1.31
 226  0.296  0.546  0.753-  81 1.02 105 1.02 164 1.31
 227  0.796  0.046  0.753-  82 1.02 106 1.02 165 1.31
 228  0.796  0.546  0.753-  83 1.02 107 1.02 166 1.31
 229  0.764  0.558  0.555- 174 1.49 173 1.56 175 1.58 176 1.58
 230  0.496  0.013  0.552- 304 3.15
 231  0.485  0.516  0.556- 305 3.13
 232  0.995  0.002  0.552- 302 3.18
 233  0.022  0.512  0.556- 303 3.15
 234  0.251  0.245  0.551- 306 3.26
 235  0.249  0.754  0.552- 307 3.20
 236  0.731  0.227  0.558- 308 3.09
 237  0.728  0.773  0.546- 309 3.69
 238  0.006  0.001  0.655- 310 3.14 302 3.21
 239  0.015  0.503  0.656- 311 3.04 303 3.11
 240  0.501  0.002  0.655- 312 3.13 304 3.29
 241  0.503  0.497  0.656- 313 3.07 305 3.16
 242  0.249  0.245  0.655- 314 3.14 306 3.21
 243  0.249  0.754  0.655- 315 3.14 307 3.22
 244  0.742  0.254  0.656- 316 3.03 308 3.09
 245  0.751  0.756  0.654- 309 3.04 317 3.19
 246  0.142  0.106  0.607- 302 3.20 306 3.27
 247  0.148  0.608  0.609- 307 3.17 303 3.22
 248  0.643  0.103  0.610- 304 3.21 308 3.24
 249  0.623  0.629  0.614- 309 3.30 305 3.33
 250  0.356  0.394  0.608- 305 3.17 306 3.23
 251  0.359  0.894  0.609- 304 3.22 307 3.30
 252  0.875  0.376  0.613- 303 3.30 308 3.30
 253  0.854  0.896  0.609- 309 3.14 302 3.26
 254  0.112  0.355  0.608- 306 3.15 303 3.31
 255  0.115  0.865  0.611- 307 3.23 302 3.29
 256  0.592  0.345  0.608- 308 3.20 305 3.24
 257  0.604  0.861  0.611- 309 3.11 304 3.32
 258  0.395  0.140  0.609- 304 3.06 306 3.30
 259  0.390  0.641  0.611- 307 3.24 305 3.27
 260  0.890  0.138  0.609- 302 3.16 308 3.36
 261  0.912  0.648  0.614- 303 3.13 309 3.71
 262  0.000  0.000  0.755- 310 3.13 318 3.27
 263  0.000  0.500  0.755- 311 3.13 319 3.27
 264  0.500  0.000  0.755- 312 3.13 320 3.27
 265  0.500  0.500  0.755- 313 3.13 321 3.27
 266  0.250  0.250  0.755- 314 3.13 322 3.27
 267  0.250  0.750  0.755- 315 3.13 323 3.27
 268  0.750  0.250  0.755- 316 3.13 324 3.27
 269  0.750  0.750  0.755- 317 3.13 325 3.27
 270  0.136  0.114  0.705- 310 3.20 314 3.20
 271  0.136  0.614  0.705- 311 3.20 315 3.20
 272  0.636  0.114  0.705- 312 3.20 316 3.20
 273  0.636  0.614  0.705- 313 3.20 317 3.20
 274  0.364  0.386  0.705- 313 3.20 314 3.20
 275  0.364  0.886  0.705- 312 3.20 315 3.20
 276  0.864  0.386  0.705- 311 3.20 316 3.20
 277  0.864  0.886  0.705- 310 3.20 317 3.20
 278  0.114  0.364  0.705- 314 3.21 311 3.21
 279  0.114  0.864  0.705- 315 3.21 310 3.21
 280  0.614  0.364  0.705- 316 3.21 313 3.21
 281  0.614  0.864  0.705- 317 3.21 312 3.21
 282  0.386  0.136  0.705- 314 3.21 312 3.21
 283  0.386  0.636  0.705- 315 3.21 313 3.21
 284  0.886  0.136  0.705- 316 3.21 310 3.21
 285  0.886  0.636  0.705- 317 3.21 311 3.21
 286  0.135  0.115  0.801- 318 3.22 322 3.22
 287  0.135  0.615  0.801- 319 3.22 323 3.22
 288  0.635  0.115  0.801- 320 3.22 324 3.22
 289  0.635  0.615  0.801- 321 3.22 325 3.22
 290  0.365  0.385  0.801- 321 3.22 322 3.22
 291  0.365  0.885  0.801- 320 3.22 323 3.22
 292  0.865  0.385  0.801- 319 3.22 324 3.22
 293  0.865  0.885  0.801- 318 3.22 325 3.22
 294  0.115  0.365  0.801- 319 3.23 322 3.23
 295  0.115  0.865  0.801- 318 3.23 323 3.23
 296  0.615  0.365  0.801- 321 3.23 324 3.23
 297  0.615  0.865  0.801- 320 3.23 325 3.23
 298  0.385  0.135  0.801- 320 3.23 322 3.23
 299  0.385  0.635  0.801- 321 3.23 323 3.23
 300  0.885  0.135  0.801- 318 3.23 324 3.23
 301  0.885  0.635  0.801- 319 3.23 325 3.23
 302  0.999  0.003  0.603- 260 3.16 232 3.18 246 3.20 238 3.21 253 3.26 255 3.29
 303  0.005  0.503  0.607- 239 3.11 261 3.13 233 3.15 247 3.22 252 3.30 254 3.31
 304  0.496  0.006  0.602- 258 3.06 230 3.15 248 3.21 251 3.22 240 3.29 257 3.32
 305  0.497  0.497  0.605- 231 3.13 241 3.16 250 3.17 256 3.24 259 3.27 249 3.33
 306  0.251  0.251  0.603- 254 3.15 242 3.21 250 3.23 234 3.26 246 3.27 258 3.30
 307  0.250  0.749  0.603- 247 3.17 235 3.20 243 3.22 255 3.23 259 3.24 251 3.30
 308  0.743  0.252  0.607- 244 3.09 236 3.09 256 3.20 248 3.24 252 3.30 260 3.36
 309  0.744  0.763  0.605- 245 3.04 257 3.11 253 3.14 249 3.30 237 3.69 261 3.71
 310  0.000  0.000  0.705- 262 3.13 238 3.14 270 3.20 277 3.20 279 3.21 284 3.21
 311  0.000  0.500  0.705- 239 3.04 263 3.13 271 3.20 276 3.20 278 3.21 285 3.21
 312  0.500  0.000  0.705- 240 3.13 264 3.13 272 3.20 275 3.20 281 3.21 282 3.21
 313  0.500  0.500  0.705- 241 3.07 265 3.13 273 3.20 274 3.20 280 3.21 283 3.21
 314  0.250  0.250  0.705- 266 3.13 242 3.14 270 3.20 274 3.20 282 3.21 278 3.21
 315  0.250  0.750  0.705- 267 3.13 243 3.14 271 3.20 275 3.20 283 3.21 279 3.21
 316  0.750  0.250  0.705- 244 3.03 268 3.13 272 3.20 276 3.20 284 3.21 280 3.21
 317  0.750  0.750  0.705- 269 3.13 245 3.19 273 3.20 277 3.20 285 3.21 281 3.21
 318  0.000  0.000  0.807- 286 3.22 293 3.22 300 3.23 295 3.23 262 3.27
 319  0.000  0.500  0.807- 287 3.22 292 3.22 301 3.23 294 3.23 263 3.27
 320  0.500  0.000  0.807- 288 3.22 291 3.22 298 3.23 297 3.23 264 3.27
 321  0.500  0.500  0.807- 289 3.22 290 3.22 299 3.23 296 3.23 265 3.27
 322  0.250  0.250  0.807- 290 3.22 286 3.22 294 3.23 298 3.23 266 3.27
 323  0.250  0.750  0.807- 291 3.22 287 3.22 299 3.23 295 3.23 267 3.27
 324  0.750  0.250  0.807- 292 3.22 288 3.22 296 3.23 300 3.23 268 3.27
 325  0.750  0.750  0.807- 293 3.22 289 3.22 297 3.23 301 3.23 269 3.27
 

IMPORTANT INFORMATION: All symmetrisations will be switched off!
NOSYMM: (Re-)initialisation of all symmetry stuff for point group C_1.


----------------------------------------------------------------------------------------

                                     Primitive cell                                     

  volume of cell :   20385.2105

  direct lattice vectors                    reciprocal lattice vectors
    18.060800552  0.000000000  0.000000000     0.055368531  0.000015077 -0.000000000
    -0.004918649 18.062799454  0.000000000     0.000000000  0.055362404  0.000000000
     0.000000000  0.000000000 62.487499237     0.000000000 -0.000000000  0.016003201

  length of vectors
    18.060800552 18.062800123 62.487499237     0.055368533  0.055362404  0.016003201

  position of ions in fractional coordinates (direct lattice)
     0.445088345  0.298856486  0.582842039
     0.442992718  0.827839099  0.579347993
     0.959064778  0.269851171  0.586465994
     0.969840681  0.806799056  0.586069614
     0.299156010  0.045177658  0.583666728
     0.300712786  0.548403772  0.582824946
     0.780128123  0.065838953  0.581401505
     0.098032370  0.185938475  0.554153196
     0.078919192  0.675371213  0.555659479
     0.586776260  0.179038224  0.556433620
     0.547015583  0.659776989  0.565930454
     0.346508284  0.059262979  0.559281114
     0.318872191  0.592613295  0.558250085
     0.829879530  0.081973984  0.557642602
     0.073396577  0.198413133  0.580319928
     0.049473729  0.693256118  0.581690015
     0.564094646  0.218364303  0.581582754
     0.514859453  0.711019218  0.587246607
     0.211511168  0.437280395  0.581526957
     0.182123161  0.963867569  0.581448084
     0.693413848  0.954251685  0.581139978
     0.395000110  0.300581308  0.558477303
     0.433888055  0.849510127  0.551986320
     0.909689632  0.300767631  0.564955588
     0.949744102  0.857702535  0.563555467
     0.177451374  0.415217634  0.555953361
     0.158881676  0.931569016  0.555723395
     0.691872751  0.901227859  0.557093603
     0.481392814  0.225074680  0.539610553
     0.502727441  0.741941143  0.540363634
     0.993675024  0.251830972  0.540503554
     0.016604717  0.780241917  0.540838948
     0.244143020  0.512896367  0.538980850
     0.262162704  0.989291433  0.539510985
     0.776682886  0.978528014  0.540099054
     0.451681581  0.305934282  0.675191016
     0.440586951  0.803463719  0.675991286
     0.945117324  0.295607764  0.675434900
     0.947221683  0.805668076  0.675401568
     0.298129031  0.045362641  0.675626589
     0.294630391  0.553996897  0.675647589
     0.810096826  0.053226196  0.673713975
     0.828911089  0.538302410  0.675294247
     0.085064757  0.171687675  0.649590619
     0.084745947  0.679503267  0.652423095
     0.572867518  0.165957198  0.650085347
     0.572221919  0.668825354  0.652413999
     0.184986784  0.411633937  0.648033057
     0.169330003  0.919586868  0.646746362
     0.659495032  0.444271602  0.652174510
     0.666344106  0.927480369  0.651555795
     0.057281238  0.196376488  0.675179783
     0.044956136  0.703922310  0.677094656
     0.551909005  0.201853247  0.675481906
     0.543579042  0.699593373  0.677276760
     0.205500685  0.441689531  0.674076657
     0.194347830  0.942641500  0.673197819
     0.708288568  0.446394176  0.676175710
     0.700792272  0.955898633  0.676480275
     0.417914928  0.326099995  0.649755508
     0.416860182  0.830328088  0.650081990
     0.917931934  0.320248294  0.650080341
     0.925710501  0.836784561  0.649607774
     0.329182948  0.076262229  0.650785561
     0.324400876  0.585810206  0.650639169
     0.832655571  0.076738775  0.647358972
     0.841573740  0.576269713  0.649717171
     0.999628086  0.248356144  0.632027414
     0.014121523  0.760010048  0.633491940
     0.489509129  0.238407208  0.632254816
     0.498576368  0.746295106  0.633425033
     0.250079030  0.998291588  0.630882349
     0.258918555  0.501434989  0.631266703
     0.744459404  0.997676260  0.631695622
     0.735916049  0.521547112  0.633866649
     0.448745018  0.301283966  0.768889017
     0.448745007  0.801283913  0.768889017
     0.948744965  0.301283966  0.768889017
     0.948745007  0.801283913  0.768889017
     0.301275995  0.051294496  0.768872961
     0.301276011  0.551294499  0.768872961
     0.801275943  0.051294496  0.768872961
     0.801275984  0.551294499  0.768872961
     0.078771004  0.171180501  0.743441971
     0.078771006  0.671180448  0.743441971
     0.578771004  0.171180501  0.743441971
     0.578770992  0.671180448  0.743441971
     0.171199499  0.421174482  0.743421032
     0.171199501  0.921174508  0.743421032
     0.671199512  0.421174482  0.743421032
     0.671199501  0.921174508  0.743421032
     0.051256000  0.198714991  0.768889017
     0.051256002  0.698714925  0.768889017
     0.551256027  0.198714991  0.768889017
     0.551256016  0.698714925  0.768889017
     0.198723491  0.448703970  0.768872046
     0.198723493  0.948703970  0.768872046
     0.698723518  0.448703970  0.768872046
     0.698723507  0.948703970  0.768872046
     0.421231519  0.328817467  0.743441971
     0.421231508  0.828817440  0.743441971
     0.921231466  0.328817467  0.743441971
     0.921231508  0.828817440  0.743441971
     0.328800503  0.078824997  0.743421032
     0.328800492  0.578824964  0.743421032
     0.828800477  0.078824997  0.743421032
     0.828800519  0.578824964  0.743421032
     0.000003500  0.250001478  0.725821992
     0.000003500  0.750001452  0.725821992
     0.500003506  0.250001478  0.725821992
     0.500003495  0.750001452  0.725821992
     0.250000502  0.000000000  0.725803983
     0.250000517  0.500000000  0.725803983
     0.750000502  0.000000000  0.725803983
     0.750000490  0.500000000  0.725803983
     0.718870295  0.452219557  0.547062056
     0.740481433  0.514529611  0.525716478
     0.654233568  0.547568460  0.561741567
     0.686796963  0.639773101  0.563400285
     0.838897345  0.514634414  0.580529931
     0.775060624  0.581795891  0.587993338
     0.875333445  0.559287596  0.543819708
     0.813761945  0.620249830  0.529385669
     0.870820268  0.480937284  0.527422202
     0.864339335  0.451914545  0.554078535
     0.887504206  0.353058238  0.529603303
     0.794884314  0.339716470  0.539889112
     0.619635651  0.557540204  0.527284602
     0.695905212  0.612265762  0.519366392
     0.623035435  0.654005566  0.532480282
     0.724403843  0.462494307  0.602842744
     0.743034870  0.416672554  0.578590762
     0.668552549  0.479438568  0.581050177
     0.840063686  0.677172670  0.573468094
     0.875876636  0.711687690  0.549629342
     0.923085616  0.636735543  0.563930298
     0.841704106  0.399034663  0.495486219
     0.803838854  0.309504648  0.502190532
     0.673446831  0.319190307  0.523765038
     0.753913742  0.489652020  0.481145796
     0.544119484  0.366871332  0.520592101
     0.624105013  0.539569872  0.477611947
     0.520526759  0.483226011  0.497836817
     0.003547760  0.244282695  0.557970915
     0.014978902  0.767080717  0.558298800
     0.490084668  0.239693519  0.556373183
     0.492781663  0.754473365  0.557674164
     0.247251823  0.503760886  0.556438077
     0.253423836  0.995643718  0.556903013
     0.760491538  0.991182424  0.556739834
     0.000669683  0.246769177  0.649380189
     0.004987452  0.759063966  0.650597352
     0.494808645  0.246140013  0.649310107
     0.494565298  0.750342261  0.650751862
     0.254622405  0.498038196  0.648698290
     0.250128586  0.998967730  0.648171818
     0.750252267  0.509729349  0.651157827
     0.750657138  0.002417313  0.648828382
     0.499988984  0.249994984  0.743277021
     0.499989025  0.749994958  0.743277021
     0.999988984  0.249994984  0.743277021
     0.999989025  0.749994958  0.743277021
     0.250000502  0.000001000  0.743255960
     0.250000517  0.500001003  0.743255960
     0.750000502  0.000001000  0.743255960
     0.750000491  0.500001003  0.743255960
     0.721980160  0.399675099  0.502354688
     0.661664922  0.365873983  0.513360369
     0.707189494  0.461439409  0.489286340
     0.589737070  0.394094170  0.511963422
     0.635177647  0.489526097  0.487815037
     0.576990930  0.457700698  0.498812812
     0.761316517  0.488423681  0.540281586
     0.687495266  0.589274949  0.553907236
     0.780031548  0.530797058  0.578657365
     0.832298094  0.601802049  0.545729270
     0.834695624  0.451093752  0.538546620
     0.830320793  0.376045302  0.529672652
     0.655065809  0.603231177  0.532006798
     0.726910989  0.470374470  0.585459750
     0.869952280  0.660857230  0.559152182
     0.802719309  0.368817244  0.506653186
     0.062283662  0.206993169  0.564530393
     0.048341099  0.709175470  0.565372969
     0.549263582  0.208377076  0.565407583
     0.522277666  0.706369694  0.571246031
     0.441270328  0.282364226  0.566211088
     0.455143804  0.812955532  0.563250596
     0.955432118  0.273775386  0.570304498
     0.978473558  0.814261166  0.569717466
     0.211312676  0.449823017  0.565763184
     0.195133401  0.962124264  0.565739498
     0.712228838  0.948352320  0.566082340
     0.300821576  0.035231227  0.567798747
     0.290994306  0.550483685  0.566965512
     0.791605062  0.049294146  0.566374024
     0.051257665  0.201760033  0.658712805
     0.048968957  0.709966485  0.661177287
     0.544034905  0.201141415  0.659135009
     0.538200728  0.705183594  0.661431794
     0.214097473  0.447120514  0.657467500
     0.201691844  0.951380028  0.656805869
     0.703531112  0.464757058  0.660740249
     0.703361694  0.959586187  0.659820021
     0.452830314  0.294853285  0.658601333
     0.448357257  0.796776890  0.659362471
     0.954240367  0.287913080  0.659300325
     0.956553389  0.802563413  0.659382739
     0.294634450  0.042103660  0.658790335
     0.293448618  0.551464508  0.658928547
     0.800471041  0.045802027  0.657132655
     0.808613563  0.541591285  0.659394521
     0.045862501  0.204119496  0.752725994
     0.045862500  0.704119456  0.752725994
     0.545862507  0.204119496  0.752725994
     0.545862496  0.704119456  0.752725994
     0.204119002  0.454101003  0.752704994
     0.204118991  0.954100951  0.752704994
     0.704118976  0.454101003  0.752704994
     0.704118964  0.954100951  0.752704994
     0.454140018  0.295888490  0.752726971
     0.454140007  0.795888516  0.752726971
     0.954140018  0.295888490  0.752726971
     0.954140060  0.795888516  0.752726971
     0.295882492  0.045900498  0.752704994
     0.295882481  0.545900528  0.752704994
     0.795882439  0.045900498  0.752704994
     0.795882481  0.545900528  0.752704994
     0.763825267  0.557645165  0.555106389
     0.496044682  0.013320348  0.551897496
     0.484616739  0.516313117  0.555544526
     0.994862633  0.002252189  0.552437643
     0.022452275  0.511779273  0.556475560
     0.251248838  0.245298338  0.550948087
     0.249265554  0.754322733  0.551960619
     0.731463016  0.226623659  0.558144351
     0.727798991  0.773053985  0.546486868
     0.006361372  0.000994543  0.654634170
     0.015023917  0.503280796  0.656345816
     0.501408482  0.002134603  0.654767558
     0.502826629  0.497140740  0.655679667
     0.248935927  0.244678335  0.654582707
     0.248729973  0.753564452  0.654608591
     0.741684068  0.254454595  0.656355400
     0.751375150  0.756220441  0.653833045
     0.142499877  0.105778805  0.607069847
     0.148093332  0.608056306  0.609148326
     0.642931983  0.102825150  0.609521753
     0.622825509  0.629069370  0.613669555
     0.355996680  0.393996389  0.608117603
     0.359059884  0.894002487  0.609114933
     0.875339344  0.375812385  0.612581813
     0.854254276  0.896292218  0.609429572
     0.112232139  0.355048105  0.608344394
     0.115499715  0.865124467  0.610615905
     0.591827442  0.344791992  0.607706265
     0.604440166  0.860986183  0.610649603
     0.394550672  0.140233708  0.608648776
     0.389605646  0.640949750  0.611257757
     0.889704808  0.138088339  0.609078732
     0.912157824  0.647620687  0.613988589
     0.000000000  0.000000000  0.754927972
     0.000000000  0.500000000  0.754927972
     0.500000000  0.000000000  0.754927972
     0.499999989  0.500000000  0.754927972
     0.250000496  0.250000000  0.754939022
     0.250000511  0.749999974  0.754939022
     0.750000470  0.250000000  0.754939022
     0.750000458  0.749999974  0.754939022
     0.135790500  0.114209997  0.704782994
     0.135790502  0.614209984  0.704782994
     0.635790447  0.114209997  0.704782994
     0.635790488  0.614209984  0.704782994
     0.364209516  0.385789989  0.704782994
     0.364209505  0.885789963  0.704782994
     0.864209542  0.385789989  0.704782994
     0.864209531  0.885789963  0.704782994
     0.114217990  0.364218986  0.704780979
     0.114217992  0.864218986  0.704780979
     0.614218004  0.364218986  0.704780979
     0.614217992  0.864218986  0.704780979
     0.385782012  0.135781489  0.704782017
     0.385782001  0.635781489  0.704782017
     0.885781985  0.135781489  0.704782017
     0.885782027  0.635781489  0.704782017
     0.134667000  0.115332001  0.801256025
     0.134666989  0.615331988  0.801256025
     0.634666987  0.115332001  0.801256025
     0.634666976  0.615331988  0.801256025
     0.365333002  0.384667985  0.801256025
     0.365332990  0.884667959  0.801256025
     0.865332949  0.384667985  0.801256025
     0.865332938  0.884667959  0.801256025
     0.115328503  0.365337004  0.801264999
     0.115328505  0.865336978  0.801264999
     0.615328503  0.365337004  0.801264999
     0.615328492  0.865336978  0.801264999
     0.384671513  0.134662996  0.801264999
     0.384671501  0.634662970  0.801264999
     0.884671486  0.134662996  0.801264999
     0.884671528  0.634662970  0.801264999
     0.998899172  0.002503884  0.603365981
     0.004532071  0.503015752  0.606599599
     0.495726443  0.006371247  0.602219389
     0.497371950  0.497067140  0.605157294
     0.250505419  0.250540490  0.603172888
     0.249671232  0.749431078  0.603127408
     0.742661228  0.251657637  0.606959046
     0.744385820  0.762658276  0.605276947
     0.000000500  0.000000500  0.704828963
     0.000000500  0.500000475  0.704828963
     0.500000475  0.000000500  0.704828963
     0.500000464  0.500000475  0.704828963
     0.249999994  0.249999472  0.704824995
     0.250000010  0.749999498  0.704824995
     0.749999994  0.249999472  0.704824995
     0.749999983  0.749999498  0.704824995
     0.000000000  0.000000000  0.807317968
     0.000000000  0.500000000  0.807317968
     0.500000000  0.000000000  0.807317968
     0.499999989  0.500000000  0.807317968
     0.249999994  0.250000000  0.807317968
     0.250000010  0.749999974  0.807317968
     0.749999994  0.250000000  0.807317968
     0.749999983  0.749999974  0.807317968

  ion indices of the primitive-cell ions
   primitive index   ion index
                 1           1
                 2           2
                 3           3
                 4           4
                 5           5
                 6           6
                 7           7
                 8           8
                 9           9
                10          10
                11          11
                12          12
                13          13
                14          14
                15          15
                16          16
                17          17
                18          18
                19          19
                20          20
                21          21
                22          22
                23          23
                24          24
                25          25
                26          26
                27          27
                28          28
                29          29
                30          30
                31          31
                32          32
                33          33
                34          34
                35          35
                36          36
                37          37
                38          38
                39          39
                40          40
                41          41
                42          42
                43          43
                44          44
                45          45
                46          46
                47          47
                48          48
                49          49
                50          50
                51          51
                52          52
                53          53
                54          54
                55          55
                56          56
                57          57
                58          58
                59          59
                60          60
                61          61
                62          62
                63          63
                64          64
                65          65
                66          66
                67          67
                68          68
                69          69
                70          70
                71          71
                72          72
                73          73
                74          74
                75          75
                76          76
                77          77
                78          78
                79          79
                80          80
                81          81
                82          82
                83          83
                84          84
                85          85
                86          86
                87          87
                88          88
                89          89
                90          90
                91          91
                92          92
                93          93
                94          94
                95          95
                96          96
                97          97
                98          98
                99          99
               100         100
               101         101
               102         102
               103         103
               104         104
               105         105
               106         106
               107         107
               108         108
               109         109
               110         110
               111         111
               112         112
               113         113
               114         114
               115         115
               116         116
               117         117
               118         118
               119         119
               120         120
               121         121
               122         122
               123         123
               124         124
               125         125
               126         126
               127         127
               128         128
               129         129
               130         130
               131         131
               132         132
               133         133
               134         134
               135         135
               136         136
               137         137
               138         138
               139         139
               140         140
               141         141
               142         142
               143         143
               144         144
               145         145
               146         146
               147         147
               148         148
               149         149
               150         150
               151         151
               152         152
               153         153
               154         154
               155         155
               156         156
               157         157
               158         158
               159         159
               160         160
               161         161
               162         162
               163         163
               164         164
               165         165
               166         166
               167         167
               168         168
               169         169
               170         170
               171         171
               172         172
               173         173
               174         174
               175         175
               176         176
               177         177
               178         178
               179         179
               180         180
               181         181
               182         182
               183         183
               184         184
               185         185
               186         186
               187         187
               188         188
               189         189
               190         190
               191         191
               192         192
               193         193
               194         194
               195         195
               196         196
               197         197
               198         198
               199         199
               200         200
               201         201
               202         202
               203         203
               204         204
               205         205
               206         206
               207         207
               208         208
               209         209
               210         210
               211         211
               212         212
               213         213
               214         214
               215         215
               216         216
               217         217
               218         218
               219         219
               220         220
               221         221
               222         222
               223         223
               224         224
               225         225
               226         226
               227         227
               228         228
               229         229
               230         230
               231         231
               232         232
               233         233
               234         234
               235         235
               236         236
               237         237
               238         238
               239         239
               240         240
               241         241
               242         242
               243         243
               244         244
               245         245
               246         246
               247         247
               248         248
               249         249
               250         250
               251         251
               252         252
               253         253
               254         254
               255         255
               256         256
               257         257
               258         258
               259         259
               260         260
               261         261
               262         262
               263         263
               264         264
               265         265
               266         266
               267         267
               268         268
               269         269
               270         270
               271         271
               272         272
               273         273
               274         274
               275         275
               276         276
               277         277
               278         278
               279         279
               280         280
               281         281
               282         282
               283         283
               284         284
               285         285
               286         286
               287         287
               288         288
               289         289
               290         290
               291         291
               292         292
               293         293
               294         294
               295         295
               296         296
               297         297
               298         298
               299         299
               300         300
               301         301
               302         302
               303         303
               304         304
               305         305
               306         306
               307         307
               308         308
               309         309
               310         310
               311         311
               312         312
               313         313
               314         314
               315         315
               316         316
               317         317
               318         318
               319         319
               320         320
               321         321
               322         322
               323         323
               324         324
               325         325

----------------------------------------------------------------------------------------

 
 
 KPOINTS: Automatic Mesh                          

Automatic generation of k-mesh.
 Grid dimensions read from file:
 generate k-points for:    3    3    1

 Generating k-lattice:

  Cartesian coordinates                     Fractional coordinates (reciprocal lattice)
     0.018456177  0.000005026 -0.000000000     0.333333333  0.000000000  0.000000000
     0.000000000  0.018454135  0.000000000     0.000000000  0.333333333  0.000000000
     0.000000000 -0.000000000  0.016003201     0.000000000  0.000000000  1.000000000

  Length of vectors
     0.018456178  0.018454135  0.016003201

  Shift w.r.t. Gamma in fractional coordinates (k-lattice)
     0.000000000  0.000000000  0.000000000

 
 Subroutine IBZKPT returns following result:
 ===========================================
 
 Found      5 irreducible k-points:
 
 Following reciprocal coordinates:
            Coordinates               Weight
  0.000000  0.000000  0.000000      1.000000
  0.333333  0.000000  0.000000      2.000000
  0.000000  0.333333  0.000000      2.000000
  0.333333  0.333333  0.000000      2.000000
 -0.333333  0.333333  0.000000      2.000000
 
 Following cartesian coordinates:
            Coordinates               Weight
  0.000000  0.000000  0.000000      1.000000
  0.018456  0.000005  0.000000      2.000000
  0.000000  0.018454  0.000000      2.000000
  0.018456  0.018459  0.000000      2.000000
 -0.018456  0.018449  0.000000      2.000000
 


--------------------------------------------------------------------------------------------------------




 Dimension of arrays:
   k-points           NKPTS =      5   k-points in BZ     NKDIM =      5   number of bands    NBANDS=    732
   number of dos      NEDOS =    301   number of ions     NIONS =    325
   non local maximal  LDIM  =      5   non local SUM 2l+1 LMDIM =     13
   total plane-waves  NPLWV = ******
   max r-space proj   IRMAX =   3336   max aug-charges    IRDMAX=  19845
   dimension x,y,z NGX =   100 NGY =  100 NGZ =  350
   dimension x,y,z NGXF=   200 NGYF=  200 NGZF=  700
   support grid    NGXF=   200 NGYF=  200 NGZF=  700
   ions per type =             143  39  47  72  24
   NGX,Y,Z   is equivalent  to a cutoff of   9.20,  9.20,  9.31 a.u.
   NGXF,Y,Z  is equivalent  to a cutoff of  18.41, 18.41, 18.62 a.u.

 SYSTEM =  PSC                                     
 POSCAR =   H  C  N  I Pb                          

 Startparameter for this run:
   NWRITE =      2    write-flag & timer
   PREC   = normal    normal or accurate (medium, high low for compatibility)
   ISTART =      0    job   : 0-new  1-cont  2-samecut
   ICHARG =      1    charge: 1-file 2-atom 10-const
   ISPIN  =      1    spin polarized calculation?
   LNONCOLLINEAR =      F non collinear calculations
   LSORBIT =      F    spin-orbit coupling
   INIWAV =      1    electr: 0-lowe 1-rand  2-diag
   LASPH  =      F    aspherical Exc in radial PAW
 Electronic Relaxation 1
   ENCUT  =  500.0 eV  36.75 Ry    6.06 a.u.  32.93 32.93113.93*2*pi/ulx,y,z
   ENINI  =  500.0     initial cutoff
   ENAUG  =  644.9 eV  augmentation charge cutoff
   NELM   =    600;   NELMIN=  2; NELMDL=  0     # of ELM steps 
   EDIFF  = 0.1E-03   stopping-criterion for ELM
   LREAL  =      T    real-space projection
   NLSPLINE    = F    spline interpolate recip. space projectors
   LCOMPAT=      F    compatible to vasp.4.4
   GGA_COMPAT  = F    GGA compatible to vasp.4.4-vasp.4.6
   LMAXPAW     = -100 max onsite density
   LMAXMIX     =    2 max onsite mixed and CHGCAR
   VOSKOWN=      0    Vosko Wilk Nusair interpolation
   ROPT   =   -0.00050  -0.00050  -0.00050  -0.00050
   ROPT   =   -0.00050
 Ionic relaxation
   EDIFFG = 0.1E-02   stopping-criterion for IOM
   NSW    =      0    number of steps for IOM
   NBLOCK =      1;   KBLOCK =      1    inner block; outer block 
   IBRION =     -1    ionic relax: 0-MD 1-quasi-New 2-CG
   NFREE  =      0    steps in history (QN), initial steepest desc. (CG)
   ISIF   =      2    stress and relaxation
   IWAVPR =     10    prediction:  0-non 1-charg 2-wave 3-comb
   ISYM   =      0    0-nonsym 1-usesym 2-fastsym
   LCORR  =      T    Harris-Foulkes like correction to forces

   POTIM  = 0.5000    time-step for ionic-motion
   TEIN   =    0.0    initial temperature
   TEBEG  =    0.0;   TEEND  =   0.0 temperature during run
   SMASS  =  -3.00    Nose mass-parameter (am)
   estimated Nose-frequenzy (Omega)   =  0.10E-29 period in steps = 0.13E+47 mass=  -0.745E-26a.u.
   SCALEE = 1.0000    scale energy and forces
   NPACO  =    256;   APACO  = 16.0  distance and # of slots for P.C.
   PSTRESS=    0.0 pullay stress

  Mass of Ions in am
   POMASS =   1.00 12.01 14.00126.90207.20
  Ionic Valenz
   ZVAL   =   1.00  4.00  5.00  7.00  4.00
  Atomic Wigner-Seitz radii
   RWIGS  =  -1.00 -1.00 -1.00 -1.00 -1.00
  virtual crystal weights 
   VCA    =   1.00  1.00  1.00  1.00  1.00
   NELECT =    1134.0000    total number of electrons
   NUPDOWN=      -1.0000    fix difference up-down

 DOS related values:
   EMIN   =  10.00;   EMAX   =-10.00  energy-range for DOS
   EFERMI =   0.00
   ISMEAR =     0;   SIGMA  =   0.05  broadening in eV -4-tet -1-fermi 0-gaus

 Electronic relaxation 2 (details)
   IALGO  =     38    algorithm
   LDIAG  =      T    sub-space diagonalisation (order eigenvalues)
   LSUBROT=      F    optimize rotation matrix (better conditioning)
   TURBO    =      0    0=normal 1=particle mesh
   IRESTART =      0    0=no restart 2=restart with 2 vectors
   NREBOOT  =      0    no. of reboots
   NMIN     =      0    reboot dimension
   EREF     =   0.00    reference energy to select bands
   IMIX   =      4    mixing-type and parameters
     AMIX     =   0.40;   BMIX     =  0.01
     AMIX_MAG =   1.60;   BMIX_MAG =  0.01
     AMIN     =   0.01
     WC   =   100.;   INIMIX=   1;  MIXPRE=   1;  MAXMIX= -45

 Intra band minimization:
   WEIMIN = 0.0000     energy-eigenvalue tresh-hold
   EBREAK =  0.34E-07  absolut break condition
   DEPER  =   0.30     relativ break condition  

   TIME   =   0.40     timestep for ELM

  volume/ion in A,a.u.               =      62.72       423.28
  Fermi-wavevector in a.u.,A,eV,Ry     =   0.624944  1.180972  5.313816  0.390554
  Thomas-Fermi vector in A             =   1.685677
 
 Write flags
   LWAVE        =      F    write WAVECAR
   LDOWNSAMPLE  =      F    k-point downsampling of WAVECAR
   LCHARG       =      T    write CHGCAR
   LVTOT        =      T    write LOCPOT, total local potential
   LVHAR        =      F    write LOCPOT, Hartree potential only
   LELF         =      F    write electronic localiz. function (ELF)
   LORBIT       =      0    0 simple, 1 ext, 2 COOP (PROOUT), +10 PAW based schemes


 Dipole corrections
   LMONO  =      F    monopole corrections only (constant potential shift)
   LDIPOL =      T    correct potential (dipole corrections)
   IDIPOL =      3    1-x, 2-y, 3-z, 4-all directions 
   EPSILON=  1.0000000 bulk dielectric constant

 Exchange correlation treatment:
   GGA     =    --    GGA type
   LEXCH   =     8    internal setting for exchange type
   VOSKOWN=      0    Vosko Wilk Nusair interpolation
   LHFCALC =     F    Hartree Fock is set to
   LHFONE  =     F    Hartree Fock one center treatment
   AEXX    =    0.0000 exact exchange contribution

 Linear response parameters
   LEPSILON=     F    determine dielectric tensor
   LRPA    =     F    only Hartree local field effects (RPA)
   LNABLA  =     F    use nabla operator in PAW spheres
   LVEL    =     F    velocity operator in full k-point grid
   LINTERFAST=   F  fast interpolation
   KINTER  =     0    interpolate to denser k-point grid
   CSHIFT  =0.1000    complex shift for real part using Kramers Kronig
   OMEGAMAX=  -1.0    maximum frequency
   DEG_THRESHOLD= 0.2000000E-02 threshold for treating states as degnerate
   RTIME   =   -0.100 relaxation time in fs
  (WPLASMAI=    0.000 imaginary part of plasma frequency in eV, 0.658/RTIME)
   DFIELD  = 0.0000000 0.0000000 0.0000000 field for delta impulse in time
 
 Orbital magnetization related:
   ORBITALMAG=     F  switch on orbital magnetization
   LCHIMAG   =     F  perturbation theory with respect to B field
   DQ        =  0.001000  dq finite difference perturbation B field
   LLRAUG    =     F  two centre corrections for induced B field



--------------------------------------------------------------------------------------------------------


 Static calculation
 charge density and potential will be updated during run
 non-spin polarized calculation
 Variant of blocked Davidson
 Davidson routine will perform the subspace rotation
 perform sub-space diagonalisation
    after iterative eigenvector-optimisation
 modified Broyden-mixing scheme, WC =      100.0
 initial mixing is a Kerker type mixing with AMIX =  0.4000 and BMIX =      0.0100
 Hartree-type preconditioning will be used
 using additional bands           165
 real space projection scheme for non local part
[...]
     13.54561      0.00000     45.35368        -0.003679      0.003406      0.011724
     13.54315      9.03140     45.35368        -0.005787      0.004633      0.011312
     12.98115      8.16835     34.18454        -0.126390     -0.024176     -0.155342
     13.37116      9.29385     32.85071         0.157232     -0.660597     -0.243116
     11.81329      9.89062     35.10183        -0.436203     -0.080761      0.247639
     12.40096     11.55609     35.20547         0.125284      0.155732      0.214502
     15.14863      9.29574     36.27586        -0.383309     -0.022995     -0.449701
     13.99535     10.50886     36.74223        -0.232182     -0.007119      0.213515
     15.80647     10.10230     33.98193        -0.415424      0.203194     -0.088343
     14.69414     11.20345     33.07999         0.157831     -0.089497      0.865350
     15.72535      8.68707     32.95729         0.123618      0.247282      0.017580
     15.60844      8.16284     34.62298        -0.179214     -0.196540     -0.226860
     16.02730      6.37722     33.09359        -0.270704     -0.095219      0.131677
     14.35458      6.13623     33.73632         0.431068      0.213829     -0.221593
     11.18837     10.07074     32.94870        -0.179688     -0.183873     -0.161890
     12.56559     11.05923     32.45391         0.163347      0.102304     -0.058146
     11.24930     11.81317     33.27336        -0.254051      0.302235      0.039675
     13.08104      8.35394     37.67014         0.345756      0.168279     -0.035452
     13.41776      7.52627     36.15469        -0.006979      0.017492      0.107889
     12.07224      8.66000     36.30837         0.242348      0.111061     -0.031930
     15.16889     12.23163     35.83459        -0.158317      0.009295      0.140717
     15.81553     12.85507     34.34496         0.122387     -0.160304      0.088200
     16.66853     11.50123     35.23859         0.063491      0.333695      0.131874
     15.19989      7.20768     30.96169        -0.492079     -0.425696      0.463114
     14.51645      5.59052     31.38063        -0.011444      0.228943     -0.002779
     12.16142      5.76547     32.72877        -0.032590     -0.222257      0.099534
     13.61388      8.84449     30.06560        -0.445357     -0.257591      0.133217
      9.82543      6.62672     32.53050         0.222350      0.300660     -0.112427
     11.26918      9.74614     29.84478         0.235050     -0.762648      0.542730
      9.39875      8.72841     31.10858         0.803828     -0.482455      0.070318
      0.06287      4.41243     34.86621         1.297047     -0.784495     -1.880092
      0.26676     13.85563     34.88670        -0.143335      0.940502     -2.032422
      8.85014      4.32954     34.76637         0.652845     -0.540411      0.832598
      8.89632     13.62790     34.84766         0.750054     -1.095525     -0.427623
      4.46309      9.09933     34.77042         1.040633      0.982126      0.677027
      4.57214     17.98411     34.79948        -0.986364     -0.574769      0.602507
     13.73021     17.90353     34.78928         0.490557      0.972973      0.670120
      0.01088      4.45734     40.57814         2.390131     -2.092442      0.657274
      0.08634     13.71082     40.65420         1.887673     -2.017855      0.941537
      8.93543      4.44598     40.57376         1.559046     -1.583028      0.928922
      8.92855     13.55328     40.66386         0.530683     -0.615411      0.362986
      4.59623      8.99596     40.53553         1.491266      2.193305      0.232120
      4.51261     18.04415     40.50264        -1.521164     -1.570990      0.830264
     13.54765      9.20714     40.68922        -0.571633     -0.044100     -1.086771
     13.55746      0.04366     40.54366        -1.430946     -1.336949      1.108645
      9.02897      4.51561     46.44552         0.022201     -0.007182      0.044429
      9.02651     13.54701     46.44552         0.008420      0.006451      0.045656
     18.05937      4.51561     46.44552         0.017089     -0.000075      0.046929
     18.05691     13.54701     46.44552         0.033236     -0.015530      0.055448
      4.51521      0.00002     46.44421         0.002263      0.001736      0.056383
      4.51275      9.03142     46.44421         0.001099      0.004867      0.053076
     13.54561      0.00002     46.44421        -0.001850      0.001429      0.053974
     13.54315      9.03142     46.44421        -0.016014     -0.013386      0.056563
     13.03757      7.21925     31.39089         0.488993     -0.635224      0.544862
     11.94840      6.60871     32.07861         0.291374      0.522521     -0.397635
     12.77014      8.33489     30.57428         0.700452     -0.258279      0.206837
     10.64919      7.11844     31.99131         0.082890      0.605724     -0.739145
     11.46941      8.84221     30.48234         0.078970      0.988453     -0.921965
     10.41867      8.26736     31.16957        -1.069062     -0.700773      0.804015
     13.74758      8.82230     33.76085        -0.404736      1.289827      0.754349
     12.41382     10.64396     34.61228         0.211971      0.501346      0.236899
     14.08538      9.58768     36.15885        -0.305592      0.896564     -0.534352
     15.02901     10.87023     34.10126        -0.855316     -0.021128     -0.195773
     15.07305      8.14802     33.65243         0.620123      0.783870     -0.147465
     14.99441      6.79243     33.09792        -0.214246     -2.054289     -0.108377
     11.82805     10.89604     33.24377         0.274615     -0.129832     -0.301077
     13.12628      8.49628     36.58392        -0.185190     -0.347321     -0.040366
     15.70878     11.93693     34.94002        -0.315763     -0.076102     -0.374478
     14.49594      6.66187     31.65949        -0.881339      0.975924     -1.267602
      1.12387      3.73888     35.27609        -1.363402      0.768760      0.220053
      0.86959     12.80969     35.32874         1.041866     -1.722195      1.568309
      9.91912      3.76387     35.33091        -0.671243      0.741058      0.761004
      9.42928     12.75901     35.69574        -0.485370      1.003954     -0.538924
      7.96831      5.10029     35.38111         0.617319      0.383180      1.559123
      8.21626     14.68425     35.19612        -0.808990      1.232343      0.548069
     17.25452      4.94515     35.63690        -1.306531      0.811865      1.240821
     17.66801     14.70784     35.60022        -1.075384      0.313811      2.075598
      3.81426      8.12506     35.35313        -1.359799     -1.368736     -2.230984
      3.51953     17.37866     35.35165        -0.196141     -0.573661     -2.407005
     12.85876     17.12990     35.37307        -0.812847     -1.569948     -1.791436
      5.43291      0.63637     35.48032         1.707950      0.919704     -1.898816
      5.25288      9.94328     35.42826         0.194383      0.822692     -2.113893
     14.29678      0.89039     35.39130         1.113130     -0.011602     -2.293896
      0.92476      3.64435     41.16132        -1.780950      1.579618      0.344908
      0.88093     12.82398     41.31532        -1.796936      1.986586     -1.468481
      9.82472      3.63318     41.18770        -1.835968      1.973739      0.144388
      9.71687     12.73759     41.33122         0.978578     -1.014674     -1.812314
      3.86457      8.07625     41.08350        -0.466162     -0.385562      1.431000
      3.63804     17.18459     41.04216         0.538757      0.494464      0.259140
     12.70405      8.39481     41.28801        -0.081525     -0.230451     -0.095973
     12.69856     17.33281     41.23050         0.634692      0.508759      0.231656
      8.17703      5.32588     41.15435        -0.190952      0.517011      1.636910
      8.09377     14.39202     41.20191        -0.479007      0.541615      1.368618
     17.23293      5.20052     41.19803        -2.221885      1.949976      0.409221
     17.27217     14.49654     41.20318        -0.510926      0.541658     -0.524045
      5.32113      0.76051     41.16616         0.302430      0.315455      1.462625
      5.29720      9.96099     41.17480        -2.096754     -2.761224      1.427215
     14.45692      0.82731     41.06258         0.378699      0.357753      1.494640
     14.60154      9.78265     41.20391         1.516108      0.901443      0.372279
      0.82731      3.68697     47.03596         0.014838     -0.019819     -0.092033
      0.82485     12.71837     47.03596         0.003472     -0.008805     -0.095030
      9.85771      3.68697     47.03596         0.012358     -0.014985     -0.089816
      9.85525     12.71837     47.03596         0.023966     -0.020287     -0.081943
      3.68432      8.20234     47.03465        -0.010839     -0.015616     -0.072254
      3.68186     17.23373     47.03465        -0.012930     -0.010902     -0.073498
     12.71472      8.20234     47.03465         0.000194     -0.002707     -0.084793
     12.71226     17.23373     47.03465        -0.005344     -0.015278     -0.072847
      8.20068      5.34457     47.03603        -0.028125      0.024282     -0.092135
      8.19822     14.37597     47.03603        -0.017771      0.015462     -0.096419
     17.23108      5.34457     47.03603        -0.024301      0.021550     -0.104561
     17.22862     14.37597     47.03603        -0.034372      0.025713     -0.094507
      5.34365      0.82909     47.03465         0.006604      0.008298     -0.074068
      5.34119      9.86049     47.03465         0.009944      0.006056     -0.075475
     14.37405      0.82909     47.03465         0.014010      0.007729     -0.075410
     14.37159      9.86049     47.03465         0.017548      0.020906     -0.077259
     13.79255     10.07263     34.68721         1.873386     -1.533942     -0.203124
      8.95890      0.24060     34.48669        -0.120369     -0.020411     -0.002124
      8.75003      9.32606     34.71459         0.060853     -0.102521      0.062606
     17.96800      0.04068     34.52045        -0.030834      0.017241     -0.002630
      0.40299      9.24417     34.77277         0.076504     -0.112396     -0.117049
      4.53655      4.43077     34.42737         0.012673      0.054493      0.153322
      4.49823     13.62518     34.49064         0.020185     -0.039939      0.117596
     13.20969      4.09346     34.87704         0.234333     -0.043618     -0.118268
     13.14083     13.96352     34.14860        -0.239084      0.709407      0.181458
      0.11489      0.01796     40.90645        -0.105091      0.019988     -0.016245
      0.26887      9.09066     41.01341         0.000167     -0.086960     -0.060772
      9.05583      0.03856     40.91479        -0.054020     -0.042540     -0.035976
      9.07901      8.97975     40.97178        -0.042382     -0.064434     -0.078422
      4.49478      4.41958     40.90324         0.067871      0.012909     -0.155654
      4.48856     13.61148     40.90485         0.023112     -0.013173      0.030686
     13.39416      4.59616     41.01401         0.058180     -0.007830     -0.077290
     13.56672     13.65946     40.85639         0.049135     -0.057719      0.095949
      2.57314      1.91066     37.93428         0.110414      0.103052      0.035834
      2.67169     10.98320     38.06416        -0.080451     -0.011252     -0.008662
     11.61136      1.85731     38.08749         0.052761      0.111326     -0.011121
     11.24563     11.36275     38.34668         0.119937     -0.199960     -0.065402
      6.42765      7.11668     37.99975        -0.084541     -0.135586     -0.025845
      6.48051     16.14819     38.06207         0.051769     -0.118309     -0.084627
     15.80748      6.78822     38.27871         0.001898      0.054539     -0.031287
     15.42411     16.18955     38.08173         0.199736      0.022448     -0.041408
      2.02526      6.41316     38.01392         0.071068     -0.046768     -0.018608
      2.08176     15.62657     38.15586        -0.078342     -0.032146     -0.145197
     10.68718      6.22791     37.97404        -0.009501     -0.052014      0.013767
     10.91244     15.55182     38.15797         0.121104      0.020658     -0.097759
      7.12521      2.53301     38.03294        -0.266043      0.199116      0.013411
      7.03344     11.57735     38.19597        -0.085870     -0.065636     -0.032568
     16.06810      2.49426     38.05981        -0.055726      0.087018      0.072327
     16.47112     11.69784     38.36661        -0.194571      0.068927      0.169030
      0.00000      0.00000     47.17356        -0.002161      0.000021      0.429117
     -0.00246      9.03140     47.17356        -0.003529     -0.000888      0.508454
      9.03040      0.00000     47.17356        -0.000294     -0.001974      0.483874
      9.02794      9.03140     47.17356        -0.000071     -0.000469      0.491855
      4.51398      4.51570     47.17425        -0.000319     -0.000559      0.403532
      4.51152     13.54710     47.17425         0.000473      0.002478      0.454534
     13.54438      4.51570     47.17425         0.004461      0.002538      0.510790
     13.54192     13.54710     47.17425         0.005320     -0.000465      0.284924
      2.45192      2.06295     44.04013         0.019241     -0.014044      0.022142
      2.44946     11.09435     44.04013         0.058200     -0.024321      0.069218
     11.48232      2.06295     44.04013         0.028839     -0.001337      0.016805
     11.47986     11.09435     44.04013         0.039351      0.026806      0.009392
      6.57602      6.96845     44.04013        -0.005546     -0.014496     -0.050318
      6.57356     15.99985     44.04013        -0.020784      0.017640      0.011718
     15.60642      6.96845     44.04013         0.006481      0.015033     -0.088855
     15.60396     15.99985     44.04013        -0.020204      0.010124     -0.004167
      2.06108      6.57881     44.04000         0.045987     -0.001718     -0.048170
      2.05862     15.61021     44.04000        -0.005059      0.026973     -0.019435
     11.09148      6.57881     44.04000        -0.015424     -0.018610      0.009046
     11.08902     15.61021     44.04000         0.026957     -0.034378     -0.006803
      6.96686      2.45259     44.04007        -0.029774     -0.004167     -0.030746
      6.96440     11.48399     44.04007         0.009036      0.015670     -0.003702
     15.99726      2.45259     44.04007        -0.012947     -0.023151     -0.075166
     15.99481     11.48399     44.04007         0.032795      0.024902     -0.022121
      2.43163      2.08322     50.06849         0.007533     -0.012562      0.020407
      2.42917     11.11462     50.06849         0.009940     -0.008551      0.021022
     11.46203      2.08322     50.06849         0.008374     -0.013439      0.021709
     11.45957     11.11462     50.06849         0.027004      0.005421      0.020741
      6.59631      6.94818     50.06849        -0.014826      0.005568      0.021808
      6.59385     15.97958     50.06849        -0.010591      0.009255      0.021857
     15.62671      6.94818     50.06849        -0.007348      0.012414      0.020210
     15.62425     15.97958     50.06849        -0.019462      0.000466      0.019554
      2.08113      6.59901     50.06905        -0.006840     -0.014578      0.021449
      2.07867     15.63041     50.06905        -0.016164     -0.005178      0.021155
     11.11153      6.59901     50.06905        -0.011043     -0.007379      0.021397
     11.10907     15.63041     50.06905         0.006076     -0.026059      0.020845
      6.94681      2.43239     50.06905         0.005922      0.012965      0.022115
      6.94435     11.46379     50.06905         0.008530      0.011476      0.022405
     15.97721      2.43239     50.06905         0.018227      0.000848      0.020821
     15.97475     11.46379     50.06905        -0.005496      0.025281      0.019709
     18.04091      0.04523     37.70283        -0.084446     -0.013137      0.026185
      0.07938      9.08587     37.90489         0.002066      0.001901     -0.144124
      8.95319      0.11508     37.63118         0.221874     -0.187838      0.056610
      8.98049      8.97842     37.81477         0.078182      0.269629     -0.181520
      4.52310      4.52546     37.69077        -0.006040     -0.090833     -0.056099
      4.50558     13.53682     37.68792         0.089314      0.070786     -0.110494
     13.41182      4.54564     37.92735         0.051572     -0.069098     -0.070060
     13.44045     13.77574     37.82224        -0.144724     -0.149830     -0.273100
      0.00001      0.00001     44.04300         0.044120      0.000202      0.038130
     -0.00245      9.03141     44.04300         0.101992     -0.002326      0.272520
      9.03041      0.00001     44.04300         0.008538      0.028430     -0.031899
      9.02795      9.03141     44.04300         0.009707      0.022427      0.210899
      4.51397      4.51569     44.04275         0.008663     -0.021833      0.116935
      4.51151     13.54709     44.04275        -0.029219     -0.026479      0.003440
     13.54437      4.51569     44.04275        -0.061982     -0.056318      0.322675
     13.54191     13.54709     44.04275        -0.083237     -0.001672      0.132265
      0.00000      0.00000     50.44728         0.005798      0.007908     -0.628667
     -0.00246      9.03140     50.44728         0.005254     -0.009219     -0.649130
      9.03040      0.00000     50.44728        -0.005209      0.008902     -0.646641
      9.02794      9.03140     50.44728        -0.006314     -0.008554     -0.647606
      4.51397      4.51570     50.44728         0.004514      0.003954     -0.623891
      4.51151     13.54710     50.44728         0.004911     -0.003935     -0.639008
     13.54437      4.51570     50.44728        -0.005301      0.003142     -0.650197
     13.54191     13.54710     50.44728        -0.004339     -0.004214     -0.589843
 -----------------------------------------------------------------------------------
    total drift:                                0.033685      0.097450      0.125744


--------------------------------------------------------------------------------------------------------



  FREE ENERGIE OF THE ION-ELECTRON SYSTEM (eV)
  ---------------------------------------------------
  free  energy   TOTEN  =     -1570.58306111 eV

  energy  without entropy=    -1570.58306111  energy(sigma->0) =    -1570.58306111
 


--------------------------------------------------------------------------------------------------------


    POTLOK:  cpu time    0.5011: real time    0.5014


--------------------------------------------------------------------------------------------------------


     LOOP+:  cpu time  345.1627: real time  345.6767
 vacuum level on the upper side and lower side of the slab         2.366         1.511
    4ORBIT:  cpu time    0.0000: real time    0.0000

 total amount of memory used by VASP MPI-rank0  8653575. kBytes
=======================================================================

   base      :      30000. kBytes
   nonlr-proj:      53613. kBytes
   fftplans  :     249280. kBytes
   grid      :     701440. kBytes
   one-center:       2636. kBytes
   wavefun   :    7616606. kBytes
 
  
  
 General timing and accounting informations for this job:
 ========================================================
  
                  Total CPU time used (sec):      557.771
                            User time (sec):      445.598
                          System time (sec):      112.173
                         Elapsed time (sec):      560.111
  
                   Maximum memory used (kb):    10353212.
                   Average memory used (kb):          N/A
  
                          Minor page faults:      3900730
                          Major page faults:           13
                 Voluntary context switches:        11582
