<?xml version="1.0" encoding="ISO-8859-1"?>
<modeling>
 <generator>
  <i name="program" type="string">vasp </i>
  <i name="version" type="string">6.2.1  </i>
  <i name="subversion" type="string">16May21 (build Nov 15 2021 14:57:28) complex                          parallel </i>
  <i name="platform" type="string">LinuxPGI </i>
  <i name="date" type="string">2022 02 13 </i>
  <i name="time" type="string">01:26:01 </i>
 </generator>
 <incar>
  <i type="string" name="SYSTEM">PSC</i>
  <i type="int" name="ISTART">     0</i>
  <i type="string" name="PREC">Normal</i>
  <i name="BMIX">      0.01000000</i>
  <i name="AMIN">      0.01000000</i>
  <i type="int" name="ICHARG">     2</i>
  <i type="int" name="NELM">   600</i>
  <i type="int" name="IBRION">     2</i>
  <i name="EDIFFG">     -0.07000000</i>
  <i type="int" name="NSW">  2000</i>
  <i type="int" name="ISIF">     2</i>
  <i type="int" name="ISYM">     0</i>
  <i name="ENCUT">    500.00000000</i>
  <i name="POTIM">      0.30000000</i>
  <i type="string" name="LREAL">Auto</i>
  <i type="int" name="ISMEAR">     0</i>
  <i name="SIGMA">      0.05000000</i>
  <i type="logical" name="LWAVE"> F  </i>
  <i type="logical" name="LVTOT"> T  </i>
  <i type="logical" name="GGA_COMPAT"> F  </i>
  <i type="logical" name="LDIPOL"> T  </i>
  <i type="int" name="IDIPOL">     3</i>
  <i type="int" name="IVDW">    12</i>
 </incar>
 <primitive_cell>
  <structure name="primitive_cell" >
   <crystal>
    <varray name="basis" >
     <v>      18.06080055       0.00000000       0.00000000 </v>
     <v>      -0.00491865      18.06279878       0.00000000 </v>
     <v>       0.00000000       0.00000000      62.48749924 </v>
    </varray>
    <i name="volume">  20385.20978454 </i>
    <varray name="rec_basis" >
     <v>       0.05536853       0.00001508      -0.00000000 </v>
     <v>       0.00000000       0.05536241       0.00000000 </v>
     <v>       0.00000000      -0.00000000       0.01600320 </v>
    </varray>
   </crystal>
   <varray name="positions" >
    <v>       0.44985750       0.29980251       0.58186901 </v>
    <v>       0.44985750       0.79980254       0.58186901 </v>
    <v>       0.94985747       0.29980251       0.58186901 </v>
    <v>       0.94985747       0.79980254       0.58186901 </v>
    <v>       0.30122301       0.05125000       0.58186901 </v>
    <v>       0.30122301       0.55124998       0.58186901 </v>
    <v>       0.80122304       0.05125000       0.58186901 </v>
    <v>       0.07963900       0.17118999       0.55695301 </v>
    <v>       0.07963900       0.67119002       0.55695301 </v>
    <v>       0.57963902       0.17118999       0.55695301 </v>
    <v>       0.57963902       0.67119002       0.55695301 </v>
    <v>       0.32886750       0.07890100       0.55695301 </v>
    <v>       0.32886750       0.57890099       0.55695301 </v>
    <v>       0.82886750       0.07890100       0.55695301 </v>
    <v>       0.05014550       0.20019799       0.58186698 </v>
    <v>       0.05014550       0.70019799       0.58186698 </v>
    <v>       0.55014551       0.20019799       0.58186698 </v>
    <v>       0.55014551       0.70019799       0.58186698 </v>
    <v>       0.19877601       0.44874796       0.58186698 </v>
    <v>       0.19877601       0.94874805       0.58186698 </v>
    <v>       0.69877601       0.94874805       0.58186698 </v>
    <v>       0.42035100       0.32881650       0.55695200 </v>
    <v>       0.42035100       0.82881653       0.55695200 </v>
    <v>       0.92035103       0.32881650       0.55695200 </v>
    <v>       0.92035109       0.82881653       0.55695200 </v>
    <v>       0.17113250       0.42109901       0.55695200 </v>
    <v>       0.17113250       0.92109907       0.55695200 </v>
    <v>       0.67113250       0.92109907       0.55695200 </v>
    <v>       0.49999750       0.25000301       0.53849697 </v>
    <v>       0.49999747       0.75000298       0.53849697 </v>
    <v>       0.99999756       0.25000301       0.53849697 </v>
    <v>       0.99999750       0.75000298       0.53849697 </v>
    <v>       0.24999999       0.50000000       0.53849697 </v>
    <v>       0.25000000       0.00000000       0.53849697 </v>
    <v>       0.75000000       0.00000000       0.53849697 </v>
    <v>       0.44879299       0.30124351       0.67418498 </v>
    <v>       0.44879299       0.80124354       0.67418498 </v>
    <v>       0.94879299       0.30124351       0.67418498 </v>
    <v>       0.94879293       0.80124354       0.67418498 </v>
    <v>       0.30122301       0.05125000       0.67416698 </v>
    <v>       0.30122301       0.55124998       0.67416698 </v>
    <v>       0.80122304       0.05125000       0.67416698 </v>
    <v>       0.80122304       0.55124998       0.67416698 </v>
    <v>       0.07882550       0.17109650       0.64885497 </v>
    <v>       0.07882550       0.67109650       0.64885497 </v>
    <v>       0.57882547       0.17109650       0.64885497 </v>
    <v>       0.57882547       0.67109650       0.64885497 </v>
    <v>       0.17113250       0.42109901       0.64883500 </v>
    <v>       0.17113250       0.92109907       0.64883500 </v>
    <v>       0.67113250       0.42109901       0.64883500 </v>
    <v>       0.67113250       0.92109907       0.64883500 </v>
    <v>       0.05120650       0.19875650       0.67418599 </v>
    <v>       0.05120650       0.69875652       0.67418599 </v>
    <v>       0.55120647       0.19875650       0.67418599 </v>
    <v>       0.55120647       0.69875652       0.67418599 </v>
    <v>       0.19877601       0.44874796       0.67416602 </v>
    <v>       0.19877601       0.94874805       0.67416602 </v>
    <v>       0.69877601       0.44874796       0.67416602 </v>
    <v>       0.69877601       0.94874805       0.67416602 </v>
    <v>       0.42117649       0.32890201       0.64885497 </v>
    <v>       0.42117649       0.82890201       0.64885497 </v>
    <v>       0.92117649       0.32890201       0.64885497 </v>
    <v>       0.92117649       0.82890201       0.64885497 </v>
    <v>       0.32886750       0.07890100       0.64883602 </v>
    <v>       0.32886750       0.57890099       0.64883602 </v>
    <v>       0.82886750       0.07890100       0.64883602 </v>
    <v>       0.82886750       0.57890099       0.64883602 </v>
    <v>       0.00000000       0.25000101       0.63108701 </v>
    <v>       1.00000000       0.75000101       0.63108701 </v>
    <v>       0.50000000       0.25000101       0.63108701 </v>
    <v>       0.50000000       0.75000101       0.63108701 </v>
    <v>       0.25000000       0.00000150       0.63106900 </v>
    <v>       0.24999999       0.50000149       0.63106900 </v>
    <v>       0.75000000       0.00000150       0.63106900 </v>
    <v>       0.75000000       0.50000149       0.63106900 </v>
    <v>       0.44874501       0.30128399       0.76888901 </v>
    <v>       0.44874501       0.80128396       0.76888901 </v>
    <v>       0.94874495       0.30128399       0.76888901 </v>
    <v>       0.94874501       0.80128396       0.76888901 </v>
    <v>       0.30127600       0.05129450       0.76887298 </v>
    <v>       0.30127600       0.55129451       0.76887298 </v>
    <v>       0.80127597       0.05129450       0.76887298 </v>
    <v>       0.80127597       0.55129451       0.76887298 </v>
    <v>       0.07877100       0.17118050       0.74344200 </v>
    <v>       0.07877100       0.67118049       0.74344200 </v>
    <v>       0.57877100       0.17118050       0.74344200 </v>
    <v>       0.57877100       0.67118049       0.74344200 </v>
    <v>       0.17119950       0.42117450       0.74342102 </v>
    <v>       0.17119950       0.92117453       0.74342102 </v>
    <v>       0.67119950       0.42117450       0.74342102 </v>
    <v>       0.67119950       0.92117453       0.74342102 </v>
    <v>       0.05125600       0.19871500       0.76888901 </v>
    <v>       0.05125600       0.69871497       0.76888901 </v>
    <v>       0.55125600       0.19871500       0.76888901 </v>
    <v>       0.55125600       0.69871497       0.76888901 </v>
    <v>       0.19872349       0.44870397       0.76887202 </v>
    <v>       0.19872350       0.94870400       0.76887202 </v>
    <v>       0.69872349       0.44870397       0.76887202 </v>
    <v>       0.69872350       0.94870400       0.76887202 </v>
    <v>       0.42123151       0.32881749       0.74344200 </v>
    <v>       0.42123151       0.82881749       0.74344200 </v>
    <v>       0.92123145       0.32881749       0.74344200 </v>
    <v>       0.92123151       0.82881749       0.74344200 </v>
    <v>       0.32880050       0.07882500       0.74342102 </v>
    <v>       0.32880050       0.57882500       0.74342102 </v>
    <v>       0.82880050       0.07882500       0.74342102 </v>
    <v>       0.82880050       0.57882500       0.74342102 </v>
    <v>       0.00000350       0.25000149       0.72582197 </v>
    <v>       0.00000350       0.75000149       0.72582197 </v>
    <v>       0.50000352       0.25000149       0.72582197 </v>
    <v>       0.50000352       0.75000149       0.72582197 </v>
    <v>       0.25000051       0.00000000       0.72580397 </v>
    <v>       0.25000051       0.50000000       0.72580397 </v>
    <v>       0.75000048       0.00000000       0.72580397 </v>
    <v>       0.75000048       0.50000000       0.72580397 </v>
    <v>       0.70806180       0.48448668       0.45167493 </v>
    <v>       0.65887028       0.53768586       0.47055428 </v>
    <v>       0.69093326       0.37585939       0.50135368 </v>
    <v>       0.62626304       0.44012595       0.49127825 </v>
    <v>       0.76860837       0.46282188       0.51631609 </v>
    <v>       0.79974152       0.54062599       0.50182208 </v>
    <v>       0.79888540       0.40537569       0.46061605 </v>
    <v>       0.85096329       0.46846868       0.47593410 </v>
    <v>       0.76533423       0.62127197       0.47556409 </v>
    <v>       0.82224493       0.56614884       0.45914297 </v>
    <v>       0.67777732       0.62660026       0.44096854 </v>
    <v>       0.75389618       0.68566343       0.44388955 </v>
    <v>       0.70537246       0.32068793       0.46429755 </v>
    <v>       0.61298283       0.32052976       0.47329449 </v>
    <v>       0.64108467       0.38594382       0.45403344 </v>
    <v>       0.66822110       0.59303935       0.50272157 </v>
    <v>       0.64062570       0.51621267       0.51866344 </v>
    <v>       0.70793746       0.57845784       0.52810563 </v>
    <v>       0.79668306       0.31631474       0.49209623 </v>
    <v>       0.88692488       0.34100698       0.48423583 </v>
    <v>       0.84912075       0.38048752       0.50749781 </v>
    <v>       0.74976860       0.63739007       0.40766251 </v>
    <v>       0.83153747       0.61000610       0.42058599 </v>
    <v>       0.64041566       0.53888064       0.40721302 </v>
    <v>       0.86839581       0.48458600       0.41926411 </v>
    <v>       0.61475348       0.40802146       0.39836192 </v>
    <v>       0.84282136       0.35345539       0.41039416 </v>
    <v>       0.71556353       0.31433664       0.40010779 </v>
    <v>       0.00001250       0.24997598       0.55595303 </v>
    <v>       0.00001250       0.74997598       0.55595303 </v>
    <v>       0.50001252       0.24997598       0.55595303 </v>
    <v>       0.50001252       0.74997598       0.55595303 </v>
    <v>       0.24999999       0.50000000       0.55595303 </v>
    <v>       0.25000000       0.00000000       0.55595303 </v>
    <v>       0.75000000       0.00000000       0.55595303 </v>
    <v>       0.00000900       0.24999101       0.64852703 </v>
    <v>       0.00000900       0.74999100       0.64852703 </v>
    <v>       0.50000900       0.24999101       0.64852703 </v>
    <v>       0.50000900       0.74999100       0.64852703 </v>
    <v>       0.24999949       0.49999949       0.64850700 </v>
    <v>       0.24999951       0.99999952       0.64850700 </v>
    <v>       0.74999952       0.49999949       0.64850700 </v>
    <v>       0.74999952       0.99999952       0.64850700 </v>
    <v>       0.49998897       0.24999499       0.74327701 </v>
    <v>       0.49998903       0.74999499       0.74327701 </v>
    <v>       0.99998897       0.24999499       0.74327701 </v>
    <v>       0.99998903       0.74999499       0.74327701 </v>
    <v>       0.25000051       0.00000100       0.74325597 </v>
    <v>       0.25000051       0.50000101       0.74325597 </v>
    <v>       0.75000048       0.00000100       0.74325597 </v>
    <v>       0.75000048       0.50000101       0.74325597 </v>
    <v>       0.71388245       0.51793394       0.46606378 </v>
    <v>       0.67528900       0.40781795       0.48722185 </v>
    <v>       0.75193951       0.50511405       0.50481644 </v>
    <v>       0.80897518       0.42519471       0.47685931 </v>
    <v>       0.76496500       0.58396972       0.46174223 </v>
    <v>       0.73853516       0.62745611       0.44177118 </v>
    <v>       0.65878340       0.35652567       0.46842590 </v>
    <v>       0.68767392       0.55026575       0.51374450 </v>
    <v>       0.83569058       0.36246611       0.49125451 </v>
    <v>       0.77147883       0.60101846       0.42024417 </v>
    <v>       0.75596381       0.52099127       0.41446232 </v>
    <v>       0.68467915       0.49820560       0.40835115 </v>
    <v>       0.81232193       0.46766941       0.41517237 </v>
    <v>       0.67005690       0.42430819       0.40334563 </v>
    <v>       0.79800759       0.39360066       0.41012750 </v>
    <v>       0.72670007       0.37164808       0.40428334 </v>
    <v>       0.04578050       0.20460950       0.56560701 </v>
    <v>       0.04578050       0.70460951       0.56560701 </v>
    <v>       0.54578048       0.20460950       0.56560701 </v>
    <v>       0.54578048       0.70460951       0.56560701 </v>
    <v>       0.45421049       0.29540500       0.56561202 </v>
    <v>       0.45421046       0.79540503       0.56561202 </v>
    <v>       0.95421052       0.29540500       0.56561202 </v>
    <v>       0.95421046       0.79540503       0.56561202 </v>
    <v>       0.20414101       0.45413998       0.56560701 </v>
    <v>       0.20414101       0.95414007       0.56560701 </v>
    <v>       0.70414102       0.95414007       0.56560701 </v>
    <v>       0.29585901       0.04586050       0.56561202 </v>
    <v>       0.29585901       0.54586053       0.56561202 </v>
    <v>       0.79585898       0.04586050       0.56561202 </v>
    <v>       0.04581600       0.20412999       0.65799499 </v>
    <v>       0.04581600       0.70412999       0.65799499 </v>
    <v>       0.54581600       0.20412999       0.65799499 </v>
    <v>       0.54581600       0.70412999       0.65799499 </v>
    <v>       0.20414101       0.45413998       0.65797698 </v>
    <v>       0.20414101       0.95414007       0.65797698 </v>
    <v>       0.70414102       0.45413998       0.65797698 </v>
    <v>       0.70414102       0.95414007       0.65797698 </v>
    <v>       0.45417100       0.29588401       0.65799701 </v>
    <v>       0.45417100       0.79588401       0.65799701 </v>
    <v>       0.95417094       0.29588401       0.65799701 </v>
    <v>       0.95417100       0.79588401       0.65799701 </v>
    <v>       0.29585901       0.04586050       0.65797698 </v>
    <v>       0.29585901       0.54586053       0.65797698 </v>
    <v>       0.79585898       0.04586050       0.65797698 </v>
    <v>       0.79585898       0.54586053       0.65797698 </v>
    <v>       0.04586250       0.20411950       0.75272602 </v>
    <v>       0.04586250       0.70411950       0.75272602 </v>
    <v>       0.54586250       0.20411950       0.75272602 </v>
    <v>       0.54586250       0.70411950       0.75272602 </v>
    <v>       0.20411900       0.45410103       0.75270498 </v>
    <v>       0.20411900       0.95410097       0.75270498 </v>
    <v>       0.70411897       0.45410103       0.75270498 </v>
    <v>       0.70411897       0.95410097       0.75270498 </v>
    <v>       0.45414001       0.29588851       0.75272697 </v>
    <v>       0.45414001       0.79588854       0.75272697 </v>
    <v>       0.95414001       0.29588851       0.75272697 </v>
    <v>       0.95414007       0.79588854       0.75272697 </v>
    <v>       0.29588249       0.04590050       0.75270498 </v>
    <v>       0.29588249       0.54590052       0.75270498 </v>
    <v>       0.79588246       0.04590050       0.75270498 </v>
    <v>       0.79588246       0.54590052       0.75270498 </v>
    <v>       0.73750825       0.46421945       0.48379020 </v>
    <v>       0.50000000       0.00000000       0.55190402 </v>
    <v>       0.50000000       0.50000000       0.55190402 </v>
    <v>       0.00000000       0.00000000       0.55190402 </v>
    <v>       0.00000000       0.50000000       0.55190402 </v>
    <v>       0.25000101       0.25000000       0.55192202 </v>
    <v>       0.25000101       0.75000000       0.55192202 </v>
    <v>       0.75000101       0.25000000       0.55192202 </v>
    <v>       0.75000101       0.75000000       0.55192202 </v>
    <v>       0.00000000       0.00000000       0.65389597 </v>
    <v>       0.00000000       0.50000000       0.65389597 </v>
    <v>       0.50000000       0.00000000       0.65389597 </v>
    <v>       0.50000000       0.50000000       0.65389597 </v>
    <v>       0.25000000       0.25000000       0.65390903 </v>
    <v>       0.25000000       0.75000000       0.65390903 </v>
    <v>       0.75000000       0.25000000       0.65390903 </v>
    <v>       0.75000000       0.75000000       0.65390903 </v>
    <v>       0.14315900       0.10685950       0.60741800 </v>
    <v>       0.14315900       0.60685951       0.60741800 </v>
    <v>       0.64315903       0.10685950       0.60741800 </v>
    <v>       0.64315903       0.60685951       0.60741800 </v>
    <v>       0.35684049       0.39314151       0.60741800 </v>
    <v>       0.35684049       0.89314151       0.60741800 </v>
    <v>       0.85684049       0.39314151       0.60741800 </v>
    <v>       0.85684049       0.89314151       0.60741800 </v>
    <v>       0.10689500       0.35690001       0.60745299 </v>
    <v>       0.10689500       0.85689998       0.60745299 </v>
    <v>       0.60689497       0.35690001       0.60745299 </v>
    <v>       0.60689497       0.85689998       0.60745299 </v>
    <v>       0.39310500       0.14310101       0.60745299 </v>
    <v>       0.39310500       0.64310098       0.60745299 </v>
    <v>       0.89310503       0.14310101       0.60745299 </v>
    <v>       0.89310509       0.64310098       0.60745299 </v>
    <v>       0.00000000       0.00000000       0.75492799 </v>
    <v>       0.00000000       0.50000000       0.75492799 </v>
    <v>       0.50000000       0.00000000       0.75492799 </v>
    <v>       0.50000000       0.50000000       0.75492799 </v>
    <v>       0.25000051       0.25000000       0.75493902 </v>
    <v>       0.25000051       0.75000000       0.75493902 </v>
    <v>       0.75000048       0.25000000       0.75493902 </v>
    <v>       0.75000048       0.75000000       0.75493902 </v>
    <v>       0.13579050       0.11421000       0.70478302 </v>
    <v>       0.13579050       0.61421001       0.70478302 </v>
    <v>       0.63579047       0.11421000       0.70478302 </v>
    <v>       0.63579047       0.61421001       0.70478302 </v>
    <v>       0.36420950       0.38578999       0.70478302 </v>
    <v>       0.36420950       0.88578999       0.70478302 </v>
    <v>       0.86420953       0.38578999       0.70478302 </v>
    <v>       0.86420953       0.88578999       0.70478302 </v>
    <v>       0.11421799       0.36421901       0.70478100 </v>
    <v>       0.11421799       0.86421901       0.70478100 </v>
    <v>       0.61421800       0.36421901       0.70478100 </v>
    <v>       0.61421800       0.86421901       0.70478100 </v>
    <v>       0.38578200       0.13578150       0.70478201 </v>
    <v>       0.38578200       0.63578153       0.70478201 </v>
    <v>       0.88578200       0.13578150       0.70478201 </v>
    <v>       0.88578200       0.63578153       0.70478201 </v>
    <v>       0.13466699       0.11533201       0.80125600 </v>
    <v>       0.13466699       0.61533201       0.80125600 </v>
    <v>       0.63466698       0.11533201       0.80125600 </v>
    <v>       0.63466698       0.61533201       0.80125600 </v>
    <v>       0.36533299       0.38466799       0.80125600 </v>
    <v>       0.36533299       0.88466799       0.80125600 </v>
    <v>       0.86533296       0.38466799       0.80125600 </v>
    <v>       0.86533296       0.88466799       0.80125600 </v>
    <v>       0.11532851       0.36533701       0.80126500 </v>
    <v>       0.11532851       0.86533701       0.80126500 </v>
    <v>       0.61532849       0.36533701       0.80126500 </v>
    <v>       0.61532849       0.86533701       0.80126500 </v>
    <v>       0.38467151       0.13466300       0.80126500 </v>
    <v>       0.38467151       0.63466299       0.80126500 </v>
    <v>       0.88467151       0.13466300       0.80126500 </v>
    <v>       0.88467151       0.63466299       0.80126500 </v>
    <v>       0.00000050       0.00000100       0.60220701 </v>
    <v>       0.00000050       0.50000101       0.60220701 </v>
    <v>       0.50000048       0.00000100       0.60220701 </v>
    <v>       0.50000048       0.50000101       0.60220701 </v>
    <v>       0.25000000       0.24999948       0.60221499 </v>
    <v>       0.25000000       0.74999952       0.60221499 </v>
    <v>       0.75000000       0.24999948       0.60221499 </v>
    <v>       0.75000000       0.74999952       0.60221499 </v>
    <v>       0.00000050       0.00000050       0.70482898 </v>
    <v>       0.00000050       0.50000048       0.70482898 </v>
    <v>       0.50000048       0.00000050       0.70482898 </v>
    <v>       0.50000048       0.50000048       0.70482898 </v>
    <v>       0.25000000       0.24999948       0.70482498 </v>
    <v>       0.25000000       0.74999952       0.70482498 </v>
    <v>       0.75000000       0.24999948       0.70482498 </v>
    <v>       0.75000000       0.74999952       0.70482498 </v>
    <v>       0.00000000       0.00000000       0.80731797 </v>
    <v>       0.00000000       0.50000000       0.80731797 </v>
    <v>       0.50000000       0.00000000       0.80731797 </v>
    <v>       0.50000000       0.50000000       0.80731797 </v>
    <v>       0.25000000       0.25000000       0.80731797 </v>
    <v>       0.25000000       0.75000000       0.80731797 </v>
    <v>       0.75000000       0.25000000       0.80731797 </v>
    <v>       0.75000000       0.75000000       0.80731797 </v>
   </varray>
  </structure>
  <varray name="primitive_index" >
   <v type="int" >        1 </v>
   <v type="int" >        2 </v>
   <v type="int" >        3 </v>
   <v type="int" >        4 </v>
   <v type="int" >        5 </v>
   <v type="int" >        6 </v>
   <v type="int" >        7 </v>
   <v type="int" >        8 </v>
   <v type="int" >        9 </v>
   <v type="int" >       10 </v>
   <v type="int" >       11 </v>
   <v type="int" >       12 </v>
   <v type="int" >       13 </v>
   <v type="int" >       14 </v>
   <v type="int" >       15 </v>
   <v type="int" >       16 </v>
   <v type="int" >       17 </v>
   <v type="int" >       18 </v>
   <v type="int" >       19 </v>
   <v type="int" >       20 </v>
   <v type="int" >       21 </v>
   <v type="int" >       22 </v>
   <v type="int" >       23 </v>
   <v type="int" >       24 </v>
   <v type="int" >       25 </v>
   <v type="int" >       26 </v>
   <v type="int" >       27 </v>
   <v type="int" >       28 </v>
   <v type="int" >       29 </v>
   <v type="int" >       30 </v>
   <v type="int" >       31 </v>
   <v type="int" >       32 </v>
   <v type="int" >       33 </v>
   <v type="int" >       34 </v>
   <v type="int" >       35 </v>
   <v type="int" >       36 </v>
   <v type="int" >       37 </v>
   <v type="int" >       38 </v>
   <v type="int" >       39 </v>
   <v type="int" >       40 </v>
   <v type="int" >       41 </v>
   <v type="int" >       42 </v>
   <v type="int" >       43 </v>
   <v type="int" >       44 </v>
   <v type="int" >       45 </v>
   <v type="int" >       46 </v>
   <v type="int" >       47 </v>
   <v type="int" >       48 </v>
   <v type="int" >       49 </v>
   <v type="int" >       50 </v>
   <v type="int" >       51 </v>
   <v type="int" >       52 </v>
   <v type="int" >       53 </v>
   <v type="int" >       54 </v>
   <v type="int" >       55 </v>
   <v type="int" >       56 </v>
   <v type="int" >       57 </v>
   <v type="int" >       58 </v>
   <v type="int" >       59 </v>
   <v type="int" >       60 </v>
   <v type="int" >       61 </v>
   <v type="int" >       62 </v>
   <v type="int" >       63 </v>
   <v type="int" >       64 </v>
   <v type="int" >       65 </v>
   <v type="int" >       66 </v>
   <v type="int" >       67 </v>
   <v type="int" >       68 </v>
   <v type="int" >       69 </v>
   <v type="int" >       70 </v>
   <v type="int" >       71 </v>
   <v type="int" >       72 </v>
   <v type="int" >       73 </v>
   <v type="int" >       74 </v>
   <v type="int" >       75 </v>
   <v type="int" >       76 </v>
   <v type="int" >       77 </v>
   <v type="int" >       78 </v>
   <v type="int" >       79 </v>
   <v type="int" >       80 </v>
   <v type="int" >       81 </v>
   <v type="int" >       82 </v>
   <v type="int" >       83 </v>
   <v type="int" >       84 </v>
   <v type="int" >       85 </v>
   <v type="int" >       86 </v>
   <v type="int" >       87 </v>
   <v type="int" >       88 </v>
   <v type="int" >       89 </v>
   <v type="int" >       90 </v>
   <v type="int" >       91 </v>
   <v type="int" >       92 </v>
   <v type="int" >       93 </v>
   <v type="int" >       94 </v>
   <v type="int" >       95 </v>
   <v type="int" >       96 </v>
   <v type="int" >       97 </v>
   <v type="int" >       98 </v>
   <v type="int" >       99 </v>
   <v type="int" >      100 </v>
   <v type="int" >      101 </v>
   <v type="int" >      102 </v>
   <v type="int" >      103 </v>
   <v type="int" >      104 </v>
   <v type="int" >      105 </v>
   <v type="int" >      106 </v>
   <v type="int" >      107 </v>
   <v type="int" >      108 </v>
   <v type="int" >      109 </v>
   <v type="int" >      110 </v>
   <v type="int" >      111 </v>
   <v type="int" >      112 </v>
   <v type="int" >      113 </v>
   <v type="int" >      114 </v>
   <v type="int" >      115 </v>
   <v type="int" >      116 </v>
   <v type="int" >      117 </v>
   <v type="int" >      118 </v>
   <v type="int" >      119 </v>
   <v type="int" >      120 </v>
   <v type="int" >      121 </v>
   <v type="int" >      122 </v>
   <v type="int" >      123 </v>
   <v type="int" >      124 </v>
   <v type="int" >      125 </v>
   <v type="int" >      126 </v>
   <v type="int" >      127 </v>
   <v type="int" >      128 </v>
   <v type="int" >      129 </v>
   <v type="int" >      130 </v>
   <v type="int" >      131 </v>
   <v type="int" >      132 </v>
   <v type="int" >      133 </v>
   <v type="int" >      134 </v>
   <v type="int" >      135 </v>
   <v type="int" >      136 </v>
   <v type="int" >      137 </v>
   <v type="int" >      138 </v>
   <v type="int" >      139 </v>
   <v type="int" >      140 </v>
   <v type="int" >      141 </v>
   <v type="int" >      142 </v>
   <v type="int" >      143 </v>
   <v type="int" >      144 </v>
   <v type="int" >      145 </v>
   <v type="int" >      146 </v>
   <v type="int" >      147 </v>
   <v type="int" >      148 </v>
   <v type="int" >      149 </v>
   <v type="int" >      150 </v>
   <v type="int" >      151 </v>
   <v type="int" >      152 </v>
   <v type="int" >      153 </v>
   <v type="int" >      154 </v>
   <v type="int" >      155 </v>
   <v type="int" >      156 </v>
   <v type="int" >      157 </v>
   <v type="int" >      158 </v>
   <v type="int" >      159 </v>
   <v type="int" >      160 </v>
   <v type="int" >      161 </v>
   <v type="int" >      162 </v>
   <v type="int" >      163 </v>
   <v type="int" >      164 </v>
   <v type="int" >      165 </v>
   <v type="int" >      166 </v>
   <v type="int" >      167 </v>
   <v type="int" >      168 </v>
   <v type="int" >      169 </v>
   <v type="int" >      170 </v>
   <v type="int" >      171 </v>
   <v type="int" >      172 </v>
   <v type="int" >      173 </v>
   <v type="int" >      174 </v>
   <v type="int" >      175 </v>
   <v type="int" >      176 </v>
   <v type="int" >      177 </v>
   <v type="int" >      178 </v>
   <v type="int" >      179 </v>
   <v type="int" >      180 </v>
   <v type="int" >      181 </v>
   <v type="int" >      182 </v>
   <v type="int" >      183 </v>
   <v type="int" >      184 </v>
   <v type="int" >      185 </v>
   <v type="int" >      186 </v>
   <v type="int" >      187 </v>
   <v type="int" >      188 </v>
   <v type="int" >      189 </v>
   <v type="int" >      190 </v>
   <v type="int" >      191 </v>
   <v type="int" >      192 </v>
   <v type="int" >      193 </v>
   <v type="int" >      194 </v>
   <v type="int" >      195 </v>
   <v type="int" >      196 </v>
   <v type="int" >      197 </v>
   <v type="int" >      198 </v>
   <v type="int" >      199 </v>
   <v type="int" >      200 </v>
   <v type="int" >      201 </v>
   <v type="int" >      202 </v>
   <v type="int" >      203 </v>
   <v type="int" >      204 </v>
   <v type="int" >      205 </v>
   <v type="int" >      206 </v>
   <v type="int" >      207 </v>
   <v type="int" >      208 </v>
   <v type="int" >      209 </v>
   <v type="int" >      210 </v>
   <v type="int" >      211 </v>
   <v type="int" >      212 </v>
   <v type="int" >      213 </v>
   <v type="int" >      214 </v>
   <v type="int" >      215 </v>
   <v type="int" >      216 </v>
   <v type="int" >      217 </v>
   <v type="int" >      218 </v>
   <v type="int" >      219 </v>
   <v type="int" >      220 </v>
   <v type="int" >      221 </v>
   <v type="int" >      222 </v>
   <v type="int" >      223 </v>
   <v type="int" >      224 </v>
   <v type="int" >      225 </v>
   <v type="int" >      226 </v>
   <v type="int" >      227 </v>
   <v type="int" >      228 </v>
   <v type="int" >      229 </v>
   <v type="int" >      230 </v>
   <v type="int" >      231 </v>
   <v type="int" >      232 </v>
   <v type="int" >      233 </v>
   <v type="int" >      234 </v>
   <v type="int" >      235 </v>
   <v type="int" >      236 </v>
   <v type="int" >      237 </v>
   <v type="int" >      238 </v>
   <v type="int" >      239 </v>
   <v type="int" >      240 </v>
   <v type="int" >      241 </v>
   <v type="int" >      242 </v>
   <v type="int" >      243 </v>
   <v type="int" >      244 </v>
   <v type="int" >      245 </v>
   <v type="int" >      246 </v>
   <v type="int" >      247 </v>
   <v type="int" >      248 </v>
   <v type="int" >      249 </v>
   <v type="int" >      250 </v>
   <v type="int" >      251 </v>
   <v type="int" >      252 </v>
   <v type="int" >      253 </v>
   <v type="int" >      254 </v>
   <v type="int" >      255 </v>
   <v type="int" >      256 </v>
   <v type="int" >      257 </v>
   <v type="int" >      258 </v>
   <v type="int" >      259 </v>
   <v type="int" >      260 </v>
   <v type="int" >      261 </v>
   <v type="int" >      262 </v>
   <v type="int" >      263 </v>
   <v type="int" >      264 </v>
   <v type="int" >      265 </v>
   <v type="int" >      266 </v>
   <v type="int" >      267 </v>
   <v type="int" >      268 </v>
   <v type="int" >      269 </v>
   <v type="int" >      270 </v>
   <v type="int" >      271 </v>
   <v type="int" >      272 </v>
   <v type="int" >      273 </v>
   <v type="int" >      274 </v>
   <v type="int" >      275 </v>
   <v type="int" >      276 </v>
   <v type="int" >      277 </v>
   <v type="int" >      278 </v>
   <v type="int" >      279 </v>
   <v type="int" >      280 </v>
   <v type="int" >      281 </v>
   <v type="int" >      282 </v>
   <v type="int" >      283 </v>
   <v type="int" >      284 </v>
   <v type="int" >      285 </v>
   <v type="int" >      286 </v>
   <v type="int" >      287 </v>
   <v type="int" >      288 </v>
   <v type="int" >      289 </v>
   <v type="int" >      290 </v>
   <v type="int" >      291 </v>
   <v type="int" >      292 </v>
   <v type="int" >      293 </v>
   <v type="int" >      294 </v>
   <v type="int" >      295 </v>
   <v type="int" >      296 </v>
   <v type="int" >      297 </v>
   <v type="int" >      298 </v>
   <v type="int" >      299 </v>
   <v type="int" >      300 </v>
   <v type="int" >      301 </v>
   <v type="int" >      302 </v>
   <v type="int" >      303 </v>
   <v type="int" >      304 </v>
   <v type="int" >      305 </v>
   <v type="int" >      306 </v>
   <v type="int" >      307 </v>
   <v type="int" >      308 </v>
   <v type="int" >      309 </v>
   <v type="int" >      310 </v>
   <v type="int" >      311 </v>
   <v type="int" >      312 </v>
   <v type="int" >      313 </v>
   <v type="int" >      314 </v>
   <v type="int" >      315 </v>
   <v type="int" >      316 </v>
   <v type="int" >      317 </v>
   <v type="int" >      318 </v>
   <v type="int" >      319 </v>
   <v type="int" >      320 </v>
   <v type="int" >      321 </v>
   <v type="int" >      322 </v>
   <v type="int" >      323 </v>
   <v type="int" >      324 </v>
   <v type="int" >      325 </v>
  </varray>
 </primitive_cell>
 <kpoints>
  <generation param="Gamma">
   <v type="int" name="divisions">       3        3        1 </v>
   <v name="usershift">      0.00000000       0.00000000       0.00000000 </v>
   <v name="genvec1">      0.33333333      -0.00000000       0.00000000 </v>
   <v name="genvec2">      0.00000000       0.33333333       0.00000000 </v>
   <v name="genvec3">      0.00000000       0.00000000       1.00000000 </v>
   <v name="shift">      0.00000000       0.00000000       0.00000000 </v>
  </generation>
  <varray name="kpointlist" >
   <v>       0.00000000       0.00000000       0.00000000 </v>
   <v>       0.33333333       0.00000000       0.00000000 </v>
   <v>       0.00000000       0.33333333       0.00000000 </v>
   <v>       0.33333333       0.33333333       0.00000000 </v>
   <v>      -0.33333333       0.33333333       0.00000000 </v>
  </varray>
  <varray name="weights" >
   <v>       0.11111111 </v>
   <v>       0.22222222 </v>
   <v>       0.22222222 </v>
   <v>       0.22222222 </v>
   <v>       0.22222222 </v>
  </varray>
 </kpoints>
 <parameters>
  <separator name="general" >
   <i type="string" name="SYSTEM">PSC</i>
   <i type="logical" name="LCOMPAT"> F  </i>
  </separator>
  <separator name="electronic" >
   <i type="string" name="PREC">normal</i>
   <i name="ENMAX">    500.00000000</i>
   <i name="ENAUG">    644.87300000</i>
   <i name="EDIFF">      0.00010000</i>
   <i type="int" name="IALGO">    38</i>
   <i type="int" name="IWAVPR">    11</i>
   <i type="int" name="NBANDS">   732</i>
   <i type="int" name="NBANDSLOW">    -1</i>
   <i type="int" name="NBANDSHIGH">    -1</i>
   <i name="NELECT">   1134.00000000</i>
   <i type="int" name="TURBO">     0</i>
   <i type="int" name="IRESTART">     0</i>
   <i type="int" name="NREBOOT">     0</i>
   <i type="int" name="NMIN">     0</i>
   <i name="EREF">      0.00000000</i>
   <separator name="electronic smearing" >
    <i type="int" name="ISMEAR">     0</i>
    <i name="SIGMA">      0.05000000</i>
    <i name="KSPACING">      0.50000000</i>
    <i type="logical" name="KGAMMA"> T  </i>
    <i type="logical" name="KBLOWUP"> T  </i>
   </separator>
   <separator name="electronic projectors" >
    <i type="logical" name="LREAL"> T  </i>
    <v name="ROPT">     -0.00050000     -0.00050000     -0.00050000     -0.00050000     -0.00050000</v>
    <i type="int" name="LMAXPAW">  -100</i>
    <i type="int" name="LMAXMIX">     2</i>
    <i type="logical" name="NLSPLINE"> F  </i>
   </separator>
   <separator name="electronic startup" >
    <i type="int" name="ISTART">     0</i>
    <i type="int" name="ICHARG">     2</i>
    <i type="int" name="INIWAV">     1</i>
   </separator>
   <separator name="electronic spin" >
    <i type="int" name="ISPIN">     1</i>
    <i type="logical" name="LNONCOLLINEAR"> F  </i>
    <v name="MAGMOM">      1.00000000      1.00000000      1.00000000      1.00000000      1.00000000      1.00000000      1.00000000      1.00000000      1.00000000      1.00000000      1.00000000      1.00000000      1.00000000      1.00000000      1.00000000      1.00000000      1.00000000      1.00000000      1.00000000      1.00000000
      1.00000000      1.00000000      1.00000000      1.00000000      1.00000000      1.00000000      1.00000000      1.00000000      1.00000000      1.00000000      1.00000000      1.00000000      1.00000000      1.00000000      1.00000000      1.00000000      1.00000000      1.00000000      1.00000000      1.00000000
      1.00000000      1.00000000      1.00000000      1.00000000      1.00000000      1.00000000      1.00000000      1.00000000      1.00000000      1.00000000      1.00000000      1.00000000      1.00000000      1.00000000      1.00000000      1.00000000      1.00000000      1.00000000      1.00000000      1.00000000
      1.00000000      1.00000000      1.00000000      1.00000000      1.00000000      1.00000000      1.00000000      1.00000000      1.00000000      1.00000000      1.00000000      1.00000000      1.00000000      1.00000000      1.00000000      1.00000000      1.00000000      1.00000000      1.00000000      1.00000000
      1.00000000      1.00000000      1.00000000      1.00000000      1.00000000      1.00000000      1.00000000      1.00000000      1.00000000      1.00000000      1.00000000      1.00000000      1.00000000      1.00000000      1.00000000      1.00000000      1.00000000      1.00000000      1.00000000      1.00000000
      1.00000000      1.00000000      1.00000000      1.00000000      1.00000000      1.00000000      1.00000000      1.00000000      1.00000000      1.00000000      1.00000000      1.00000000      1.00000000      1.00000000      1.00000000      1.00000000      1.00000000      1.00000000      1.00000000      1.00000000
      1.00000000      1.00000000      1.00000000      1.00000000      1.00000000      1.00000000      1.00000000      1.00000000      1.00000000      1.00000000      1.00000000      1.00000000      1.00000000      1.00000000      1.00000000      1.00000000      1.00000000      1.00000000      1.00000000      1.00000000
      1.00000000      1.00000000      1.00000000      1.00000000      1.00000000      1.00000000      1.00000000      1.00000000      1.00000000      1.00000000      1.00000000      1.00000000      1.00000000      1.00000000      1.00000000      1.00000000      1.00000000      1.00000000      1.00000000      1.00000000
      1.00000000      1.00000000      1.00000000      1.00000000      1.00000000      1.00000000      1.00000000      1.00000000      1.00000000      1.00000000      1.00000000      1.00000000      1.00000000      1.00000000      1.00000000      1.00000000      1.00000000      1.00000000      1.00000000      1.00000000
      1.00000000      1.00000000      1.00000000      1.00000000      1.00000000      1.00000000      1.00000000      1.00000000      1.00000000      1.00000000      1.00000000      1.00000000      1.00000000      1.00000000      1.00000000      1.00000000      1.00000000      1.00000000      1.00000000      1.00000000
      1.00000000      1.00000000      1.00000000      1.00000000      1.00000000      1.00000000      1.00000000      1.00000000      1.00000000      1.00000000      1.00000000      1.00000000      1.00000000      1.00000000      1.00000000      1.00000000      1.00000000      1.00000000      1.00000000      1.00000000
      1.00000000      1.00000000      1.00000000      1.00000000      1.00000000      1.00000000      1.00000000      1.00000000      1.00000000      1.00000000      1.00000000      1.00000000      1.00000000      1.00000000      1.00000000      1.00000000      1.00000000      1.00000000      1.00000000      1.00000000
      1.00000000      1.00000000      1.00000000      1.00000000      1.00000000      1.00000000      1.00000000      1.00000000      1.00000000      1.00000000      1.00000000      1.00000000      1.00000000      1.00000000      1.00000000      1.00000000      1.00000000      1.00000000      1.00000000      1.00000000
      1.00000000      1.00000000      1.00000000      1.00000000      1.00000000      1.00000000      1.00000000      1.00000000      1.00000000      1.00000000      1.00000000      1.00000000      1.00000000      1.00000000      1.00000000      1.00000000      1.00000000      1.00000000      1.00000000      1.00000000
      1.00000000      1.00000000      1.00000000      1.00000000      1.00000000      1.00000000      1.00000000      1.00000000      1.00000000      1.00000000      1.00000000      1.00000000      1.00000000      1.00000000      1.00000000      1.00000000      1.00000000      1.00000000      1.00000000      1.00000000
      1.00000000      1.00000000      1.00000000      1.00000000      1.00000000      1.00000000      1.00000000      1.00000000      1.00000000      1.00000000      1.00000000      1.00000000      1.00000000      1.00000000      1.00000000      1.00000000      1.00000000      1.00000000      1.00000000      1.00000000
      1.00000000      1.00000000      1.00000000      1.00000000      1.00000000</v>
    <i name="NUPDOWN">     -1.00000000</i>
    <i type="logical" name="LSORBIT"> F  </i>
    <v name="SAXIS">      0.00000000      0.00000000      1.00000000</v>
    <i type="logical" name="LSPIRAL"> F  </i>
    <v name="QSPIRAL">      0.00000000      0.00000000      0.00000000</v>
    <i type="logical" name="LZEROZ"> F  </i>
   </separator>
   <separator name="electronic exchange-correlation" >
    <i type="logical" name="LASPH"> F  </i>
    <i type="logical" name="LMETAGGA"> F  </i>
   </separator>
   <separator name="electronic convergence" >
    <i type="int" name="NELM">   600</i>
    <i type="int" name="NELMDL">    -5</i>
    <i type="int" name="NELMIN">     2</i>
    <i name="ENINI">    500.00000000</i>
    <separator name="electronic convergence detail" >
     <i type="logical" name="LDIAG"> T  </i>
     <i type="logical" name="LSUBROT"> F  </i>
     <i name="WEIMIN">      0.00100000</i>
     <i name="EBREAK">      0.00000003</i>
     <i name="DEPER">      0.30000000</i>
     <i type="int" name="NRMM">     4</i>
     <i name="TIME">      0.40000000</i>
    </separator>
   </separator>
   <separator name="electronic mixer" >
    <i name="AMIX">      0.40000000</i>
    <i name="BMIX">      0.01000000</i>
    <i name="AMIN">      0.01000000</i>
    <i name="AMIX_MAG">      1.60000000</i>
    <i name="BMIX_MAG">      0.01000000</i>
    <separator name="electronic mixer details" >
     <i type="int" name="IMIX">     4</i>
     <i type="logical" name="MIXFIRST"> F  </i>
     <i type="int" name="MAXMIX">   -45</i>
     <i name="WC">    100.00000000</i>
     <i type="int" name="INIMIX">     1</i>
     <i type="int" name="MIXPRE">     1</i>
     <i type="int" name="MREMOVE">     5</i>
    </separator>
   </separator>
   <separator name="electronic dipolcorrection" >
    <i type="logical" name="LDIPOL"> T  </i>
    <i type="logical" name="LMONO"> F  </i>
    <i type="int" name="IDIPOL">     3</i>
    <i name="EPSILON">      1.00000000</i>
    <v name="DIPOL">   -100.00000000   -100.00000000   -100.00000000</v>
    <i name="EFIELD">      0.00000000</i>
   </separator>
  </separator>
  <separator name="grids" >
   <i type="int" name="NGX">   100</i>
   <i type="int" name="NGY">   100</i>
   <i type="int" name="NGZ">   350</i>
   <i type="int" name="NGXF">   200</i>
   <i type="int" name="NGYF">   200</i>
   <i type="int" name="NGZF">   700</i>
   <i type="logical" name="ADDGRID"> F  </i>
  </separator>
  <separator name="ionic" >
   <i type="int" name="NSW">  2000</i>
   <i type="int" name="IBRION">     2</i>
   <i type="int" name="MDALGO">     0</i>
   <i type="int" name="ISIF">     2</i>
   <i name="PSTRESS">      0.00000000</i>
   <i name="EDIFFG">     -0.07000000</i>
   <i type="int" name="NFREE">     1</i>
   <i name="POTIM">      0.30000000</i>
   <i name="SMASS">     -3.00000000</i>
   <i name="SCALEE">      1.00000000</i>
  </separator>
  <separator name="ionic md" >
   <i name="TEBEG">      0.00010000</i>
   <i name="TEEND">      0.00010000</i>
   <i type="int" name="NBLOCK">     1</i>
   <i type="int" name="KBLOCK">  2000</i>
   <i type="int" name="NPACO">   256</i>
   <i name="APACO">     16.00000000</i>
  </separator>
  <separator name="symmetry" >
   <i type="int" name="ISYM">     0</i>
   <i name="SYMPREC">      0.00001000</i>
  </separator>
  <separator name="dos" >
   <i type="int" name="LORBIT">     0</i>
   <v name="RWIGS">     -1.00000000     -1.00000000     -1.00000000     -1.00000000     -1.00000000</v>
   <i type="int" name="NEDOS">   301</i>
   <i name="EMIN">     10.00000000</i>
   <i name="EMAX">    -10.00000000</i>
   <i name="EFERMI">      0.00000000</i>
  </separator>
  <separator name="writing" >
   <i type="int" name="NWRITE">     2</i>
   <i type="logical" name="LWAVE"> F  </i>
   <i type="logical" name="LDOWNSAMPLE"> F  </i>
   <i type="logical" name="LCHARG"> T  </i>
   <i type="logical" name="LPARD"> F  </i>
   <i type="logical" name="LVTOT"> T  </i>
   <i type="logical" name="LVHAR"> F  </i>
   <i type="logical" name="LELF"> F  </i>
   <i type="logical" name="LOPTICS"> F  </i>
   <v name="STM">      0.00000000      0.00000000      0.00000000      0.00000000      0.00000000      0.00000000      0.00000000</v>
  </separator>
  <separator name="performance" >
   <i type="int" name="NPAR">     4</i>
   <i type="int" name="NSIM">     4</i>
   <i type="int" name="NBLK">    -1</i>
   <i type="logical" name="LPLANE"> T  </i>
   <i type="logical" name="LSCALAPACK"> T  </i>
   <i type="logical" name="LSCAAWARE"> F  </i>
   <i type="logical" name="LSCALU"> F  </i>
   <i type="logical" name="LASYNC"> F  </i>
   <i type="logical" name="LORBITALREAL"> F  </i>
  </separator>
  <separator name="miscellaneous" >
   <i type="int" name="IDIOT">     3</i>
   <i type="int" name="PHON_NSTRUCT">    -1</i>
   <i type="logical" name="LMUSIC"> F  </i>
   <v name="POMASS">      1.00000000     12.01100000     14.00100000    126.90400000    207.20000000</v>
   <v name="DARWINR">      0.00000000      0.00000000      0.00000000      0.00000000      0.00000000</v>
   <v name="DARWINV">      1.00000000      1.00000000      1.00000000      1.00000000      1.00000000</v>
   <i type="logical" name="LCORR"> T  </i>
  </separator>
  <i type="logical" name="GGA_COMPAT"> F  </i>
  <i type="logical" name="LBERRY"> F  </i>
  <i type="int" name="ICORELEVEL">     0</i>
  <i type="logical" name="LDAU"> F  </i>
  <i type="int" name="I_CONSTRAINED_M">     0</i>
  <separator name="electronic exchange-correlation" >
   <i type="string" name="GGA">--</i>
   <i type="int" name="VOSKOWN">     0</i>
   <i type="logical" name="LHFCALC"> F  </i>
   <i type="string" name="PRECFOCK"></i>
   <i type="logical" name="LSYMGRAD"> F  </i>
   <i type="logical" name="LHFONE"> F  </i>
   <i type="logical" name="LRHFCALC"> F  </i>
   <i type="logical" name="LTHOMAS"> F  </i>
   <i type="logical" name="LMODELHF"> F  </i>
   <i type="logical" name="LFOCKACE"> F  </i>
   <i name="ENCUT4O">     -1.00000000</i>
   <i type="int" name="EXXOEP">     0</i>
   <i type="int" name="FOURORBIT">     0</i>
   <i name="AEXX">      0.00000000</i>
   <i name="HFALPHA">      0.00000000</i>
   <i name="MCALPHA">      0.00000000</i>
   <i name="ALDAX">      1.00000000</i>
   <i name="AGGAX">      1.00000000</i>
   <i name="ALDAC">      1.00000000</i>
   <i name="AGGAC">      1.00000000</i>
   <i type="int" name="NKREDX">     1</i>
   <i type="int" name="NKREDY">     1</i>
   <i type="int" name="NKREDZ">     1</i>
   <i type="logical" name="SHIFTRED"> F  </i>
   <i type="logical" name="ODDONLY"> F  </i>
   <i type="logical" name="EVENONLY"> F  </i>
   <i type="int" name="LMAXFOCK">     0</i>
   <i type="int" name="NMAXFOCKAE">     0</i>
   <i type="logical" name="LFOCKAEDFT"> F  </i>
   <i name="HFSCREEN">      0.00000000</i>
   <i name="HFSCREENC">      0.00000000</i>
   <i type="int" name="NBANDSGWLOW">     0</i>
  </separator>
  <separator name="vdW DFT" >
   <i type="logical" name="LUSE_VDW"> F  </i>
   <i name="Zab_VDW">     -0.84910000</i>
   <i name="PARAM1">      0.12340000</i>
   <i name="PARAM2">      1.00000000</i>
   <i name="PARAM3">      0.00000000</i>
  </separator>
  <separator name="model GW" >
   <i type="int" name="MODEL_GW">     0</i>
   <i name="MODEL_EPS0">     37.63423345</i>
   <i name="MODEL_ALPHA">      1.00000000</i>
  </separator>
  <separator name="linear response parameters" >
   <i type="logical" name="LEPSILON"> F  </i>
   <i type="logical" name="LRPA"> F  </i>
   <i type="logical" name="LNABLA"> F  </i>
   <i type="logical" name="LVEL"> F  </i>
   <i type="int" name="KINTER">     0</i>
   <i name="CSHIFT">      0.10000000</i>
   <i name="OMEGAMAX">     -1.00000000</i>
   <i name="DEG_THRESHOLD">      0.00200000</i>
   <i name="RTIME">     -0.10000000</i>
   <i name="WPLASMAI">      0.00000000</i>
   <v name="DFIELD">      0.00000000      0.00000000      0.00000000</v>
   <v name="WPLASMA">      0.00000000      0.00000000      0.00000000      0.00000000      0.00000000      0.00000000      0.00000000      0.00000000      0.00000000</v>
  </separator>
  <separator name="orbital magnetization" >
   <i type="logical" name="NUCIND"> F  </i>
   <v name="MAGPOS">      0.00000000      0.00000000      0.00000000</v>
   <i type="logical" name="LNICSALL"> T  </i>
   <i type="logical" name="ORBITALMAG"> F  </i>
   <i type="logical" name="LMAGBLOCH"> F  </i>
   <i type="logical" name="LCHIMAG"> F  </i>
   <i type="logical" name="LGAUGE"> T  </i>
   <i type="int" name="MAGATOM">     0</i>
   <v name="MAGDIPOL">      0.00000000      0.00000000      0.00000000</v>
   <v name="AVECCONST">      0.00000000      0.00000000      0.00000000</v>
  </separator>
  <separator name="response functions" >
   <i type="logical" name="LFINITE_TEMPERATURE"> F  </i>
   <i type="logical" name="LADDER"> F  </i>
   <i type="logical" name="LRPAFORCE"> F  </i>
   <i type="logical" name="LFXC"> F  </i>
   <i type="logical" name="LHARTREE"> T  </i>
   <i type="int" name="IBSE">     0</i>
   <v type="int" name="KPOINT">    -1     0     0     0</v>
   <i type="logical" name="LTCTC"> F  </i>
   <i type="logical" name="LTCTE"> F  </i>
   <i type="logical" name="LTETE"> F  </i>
   <i type="logical" name="LTRIPLET"> F  </i>
   <i type="logical" name="LFXCEPS"> F  </i>
   <i type="logical" name="LFXHEG"> F  </i>
   <i type="int" name="NATURALO">     2</i>
   <i type="logical" name="LHOLEGF"> F  </i>
   <i type="logical" name="L2ORDER"> F  </i>
   <i type="logical" name="LDMP1"> F  </i>
   <i type="logical" name="LMP2LT"> F  </i>
   <i type="logical" name="LSMP2LT"> F  </i>
   <i type="logical" name="LGWLF"> F  </i>
   <i name="ENCUTGW">     -2.00000000</i>
   <i name="ENCUTGWSOFT">     -2.00000000</i>
   <i name="ENCUTLF">     -1.00000000</i>
   <i type="logical" name="LESF_SPLINES"> F  </i>
   <i type="int" name="LMAXMP2">    -1</i>
   <i name="SCISSOR">      0.00000000</i>
   <i type="int" name="NOMEGA">     0</i>
   <i type="int" name="NOMEGAR">     0</i>
   <i type="int" name="NBANDSGW">    -1</i>
   <i type="int" name="NBANDSO">    -1</i>
   <i type="int" name="NBANDSV">    -1</i>
   <i type="int" name="NELM">   600</i>
   <i type="int" name="NELMHF">     1</i>
   <i type="int" name="DIM">     3</i>
   <i type="int" name="IESPILON">     4</i>
   <i type="int" name="ANTIRES">     0</i>
   <i name="OMEGAMAX">    -30.00000000</i>
   <i name="OMEGAMIN">    -30.00000000</i>
   <i name="OMEGATL">   -200.00000000</i>
   <i type="int" name="OMEGAGRID">     0</i>
   <i name="CSHIFT">     -0.10000000</i>
   <i type="logical" name="LSELFENERGY"> F  </i>
   <i type="logical" name="LSPECTRAL"> F  </i>
   <i type="logical" name="LSPECTRALGW"> F  </i>
   <i type="logical" name="LSINGLES"> F  </i>
   <i type="logical" name="LFERMIGW"> F  </i>
   <i type="logical" name="ODDONLYGW"> F  </i>
   <i type="logical" name="EVENONLYGW"> F  </i>
   <i type="int" name="NKREDLFX">     1</i>
   <i type="int" name="NKREDLFY">     1</i>
   <i type="int" name="NKREDLFZ">     1</i>
   <i type="int" name="MAXMEM">  2800</i>
   <i type="int" name="TELESCOPE">     0</i>
   <i type="int" name="NTAUPAR">    -1</i>
   <i type="int" name="NOMEGAPAR">    -1</i>
   <i name="DAMP_NEWTON">      0.80000001</i>
   <i name="LAMBDA">      1.00000000</i>
  </separator>
  <separator name="External order field" >
   <i name="OFIELD_KAPPA">      0.00000000</i>
   <v name="OFIELD_K">      0.00000000      0.00000000      0.00000000</v>
   <i name="OFIELD_Q6_NEAR">      0.00000000</i>
   <i name="OFIELD_Q6_FAR">      0.00000000</i>
   <i name="OFIELD_A">      0.00000000</i>
  </separator>
 </parameters>
 <atominfo>
  <atoms>     325 </atoms>
  <types>       5 </types>
  <array name="atoms" >
   <dimension dim="1">ion</dimension>
   <field type="string">element</field>
   <field type="int">atomtype</field>
   <set>
    <rc><c>H </c><c>   1</c></rc>
    <rc><c>H </c><c>   1</c></rc>
    <rc><c>H </c><c>   1</c></rc>
    <rc><c>H </c><c>   1</c></rc>
    <rc><c>H </c><c>   1</c></rc>
    <rc><c>H </c><c>   1</c></rc>
    <rc><c>H </c><c>   1</c></rc>
    <rc><c>H </c><c>   1</c></rc>
    <rc><c>H </c><c>   1</c></rc>
    <rc><c>H </c><c>   1</c></rc>
    <rc><c>H </c><c>   1</c></rc>
    <rc><c>H </c><c>   1</c></rc>
    <rc><c>H </c><c>   1</c></rc>
    <rc><c>H </c><c>   1</c></rc>
    <rc><c>H </c><c>   1</c></rc>
    <rc><c>H </c><c>   1</c></rc>
    <rc><c>H </c><c>   1</c></rc>
    <rc><c>H </c><c>   1</c></rc>
    <rc><c>H </c><c>   1</c></rc>
    <rc><c>H </c><c>   1</c></rc>
    <rc><c>H </c><c>   1</c></rc>
    <rc><c>H </c><c>   1</c></rc>
    <rc><c>H </c><c>   1</c></rc>
    <rc><c>H </c><c>   1</c></rc>
    <rc><c>H </c><c>   1</c></rc>
    <rc><c>H </c><c>   1</c></rc>
    <rc><c>H </c><c>   1</c></rc>
    <rc><c>H </c><c>   1</c></rc>
    <rc><c>H </c><c>   1</c></rc>
    <rc><c>H </c><c>   1</c></rc>
    <rc><c>H </c><c>   1</c></rc>
    <rc><c>H </c><c>   1</c></rc>
    <rc><c>H </c><c>   1</c></rc>
    <rc><c>H </c><c>   1</c></rc>
    <rc><c>H </c><c>   1</c></rc>
    <rc><c>H </c><c>   1</c></rc>
    <rc><c>H </c><c>   1</c></rc>
    <rc><c>H </c><c>   1</c></rc>
    <rc><c>H </c><c>   1</c></rc>
    <rc><c>H </c><c>   1</c></rc>
    <rc><c>H </c><c>   1</c></rc>
    <rc><c>H </c><c>   1</c></rc>
    <rc><c>H </c><c>   1</c></rc>
    <rc><c>H </c><c>   1</c></rc>
    <rc><c>H </c><c>   1</c></rc>
    <rc><c>H </c><c>   1</c></rc>
    <rc><c>H </c><c>   1</c></rc>
    <rc><c>H </c><c>   1</c></rc>
    <rc><c>H </c><c>   1</c></rc>
    <rc><c>H </c><c>   1</c></rc>
    <rc><c>H </c><c>   1</c></rc>
    <rc><c>H </c><c>   1</c></rc>
    <rc><c>H </c><c>   1</c></rc>
    <rc><c>H </c><c>   1</c></rc>
    <rc><c>H </c><c>   1</c></rc>
    <rc><c>H </c><c>   1</c></rc>
    <rc><c>H </c><c>   1</c></rc>
    <rc><c>H </c><c>   1</c></rc>
    <rc><c>H </c><c>   1</c></rc>
    <rc><c>H </c><c>   1</c></rc>
    <rc><c>H </c><c>   1</c></rc>
    <rc><c>H </c><c>   1</c></rc>
    <rc><c>H </c><c>   1</c></rc>
    <rc><c>H </c><c>   1</c></rc>
    <rc><c>H </c><c>   1</c></rc>
    <rc><c>H </c><c>   1</c></rc>
    <rc><c>H </c><c>   1</c></rc>
    <rc><c>H </c><c>   1</c></rc>
    <rc><c>H </c><c>   1</c></rc>
    <rc><c>H </c><c>   1</c></rc>
    <rc><c>H </c><c>   1</c></rc>
    <rc><c>H </c><c>   1</c></rc>
    <rc><c>H </c><c>   1</c></rc>
    <rc><c>H </c><c>   1</c></rc>
    <rc><c>H </c><c>   1</c></rc>
    <rc><c>H </c><c>   1</c></rc>
    <rc><c>H </c><c>   1</c></rc>
    <rc><c>H </c><c>   1</c></rc>
    <rc><c>H </c><c>   1</c></rc>
    <rc><c>H </c><c>   1</c></rc>
    <rc><c>H </c><c>   1</c></rc>
    <rc><c>H </c><c>   1</c></rc>
    <rc><c>H </c><c>   1</c></rc>
    <rc><c>H </c><c>   1</c></rc>
    <rc><c>H </c><c>   1</c></rc>
    <rc><c>H </c><c>   1</c></rc>
    <rc><c>H </c><c>   1</c></rc>
    <rc><c>H </c><c>   1</c></rc>
    <rc><c>H </c><c>   1</c></rc>
    <rc><c>H </c><c>   1</c></rc>
    <rc><c>H </c><c>   1</c></rc>
    <rc><c>H </c><c>   1</c></rc>
    <rc><c>H </c><c>   1</c></rc>
    <rc><c>H </c><c>   1</c></rc>
    <rc><c>H </c><c>   1</c></rc>
    <rc><c>H </c><c>   1</c></rc>
    <rc><c>H </c><c>   1</c></rc>
    <rc><c>H </c><c>   1</c></rc>
    <rc><c>H </c><c>   1</c></rc>
    <rc><c>H </c><c>   1</c></rc>
    <rc><c>H </c><c>   1</c></rc>
    <rc><c>H </c><c>   1</c></rc>
    <rc><c>H </c><c>   1</c></rc>
    <rc><c>H </c><c>   1</c></rc>
    <rc><c>H </c><c>   1</c></rc>
    <rc><c>H </c><c>   1</c></rc>
    <rc><c>H </c><c>   1</c></rc>
    <rc><c>H </c><c>   1</c></rc>
    <rc><c>H </c><c>   1</c></rc>
    <rc><c>H </c><c>   1</c></rc>
    <rc><c>H </c><c>   1</c></rc>
    <rc><c>H </c><c>   1</c></rc>
    <rc><c>H </c><c>   1</c></rc>
    <rc><c>H </c><c>   1</c></rc>
    <rc><c>H </c><c>   1</c></rc>
    <rc><c>H </c><c>   1</c></rc>
    <rc><c>H </c><c>   1</c></rc>
    <rc><c>H </c><c>   1</c></rc>
    <rc><c>H </c><c>   1</c></rc>
    <rc><c>H </c><c>   1</c></rc>
    <rc><c>H </c><c>   1</c></rc>
    <rc><c>H </c><c>   1</c></rc>
    <rc><c>H </c><c>   1</c></rc>
    <rc><c>H </c><c>   1</c></rc>
    <rc><c>H </c><c>   1</c></rc>
    <rc><c>H </c><c>   1</c></rc>
    <rc><c>H </c><c>   1</c></rc>
    <rc><c>H </c><c>   1</c></rc>
    <rc><c>H </c><c>   1</c></rc>
    <rc><c>H </c><c>   1</c></rc>
    <rc><c>H </c><c>   1</c></rc>
    <rc><c>H </c><c>   1</c></rc>
    <rc><c>H </c><c>   1</c></rc>
    <rc><c>H </c><c>   1</c></rc>
    <rc><c>H </c><c>   1</c></rc>
    <rc><c>H </c><c>   1</c></rc>
    <rc><c>H </c><c>   1</c></rc>
    <rc><c>H </c><c>   1</c></rc>
    <rc><c>H </c><c>   1</c></rc>
    <rc><c>H </c><c>   1</c></rc>
    <rc><c>H </c><c>   1</c></rc>
    <rc><c>H </c><c>   1</c></rc>
    <rc><c>H </c><c>   1</c></rc>
    <rc><c>C </c><c>   2</c></rc>
    <rc><c>C </c><c>   2</c></rc>
    <rc><c>C </c><c>   2</c></rc>
    <rc><c>C </c><c>   2</c></rc>
    <rc><c>C </c><c>   2</c></rc>
    <rc><c>C </c><c>   2</c></rc>
    <rc><c>C </c><c>   2</c></rc>
    <rc><c>C </c><c>   2</c></rc>
    <rc><c>C </c><c>   2</c></rc>
    <rc><c>C </c><c>   2</c></rc>
    <rc><c>C </c><c>   2</c></rc>
    <rc><c>C </c><c>   2</c></rc>
    <rc><c>C </c><c>   2</c></rc>
    <rc><c>C </c><c>   2</c></rc>
    <rc><c>C </c><c>   2</c></rc>
    <rc><c>C </c><c>   2</c></rc>
    <rc><c>C </c><c>   2</c></rc>
    <rc><c>C </c><c>   2</c></rc>
    <rc><c>C </c><c>   2</c></rc>
    <rc><c>C </c><c>   2</c></rc>
    <rc><c>C </c><c>   2</c></rc>
    <rc><c>C </c><c>   2</c></rc>
    <rc><c>C </c><c>   2</c></rc>
    <rc><c>C </c><c>   2</c></rc>
    <rc><c>C </c><c>   2</c></rc>
    <rc><c>C </c><c>   2</c></rc>
    <rc><c>C </c><c>   2</c></rc>
    <rc><c>C </c><c>   2</c></rc>
    <rc><c>C </c><c>   2</c></rc>
    <rc><c>C </c><c>   2</c></rc>
    <rc><c>C </c><c>   2</c></rc>
    <rc><c>C </c><c>   2</c></rc>
    <rc><c>C </c><c>   2</c></rc>
    <rc><c>C </c><c>   2</c></rc>
    <rc><c>C </c><c>   2</c></rc>
    <rc><c>C </c><c>   2</c></rc>
    <rc><c>C </c><c>   2</c></rc>
    <rc><c>C </c><c>   2</c></rc>
    <rc><c>C </c><c>   2</c></rc>
    <rc><c>N </c><c>   3</c></rc>
    <rc><c>N </c><c>   3</c></rc>
    <rc><c>N </c><c>   3</c></rc>
    <rc><c>N </c><c>   3</c></rc>
    <rc><c>N </c><c>   3</c></rc>
    <rc><c>N </c><c>   3</c></rc>
    <rc><c>N </c><c>   3</c></rc>
    <rc><c>N </c><c>   3</c></rc>
    <rc><c>N </c><c>   3</c></rc>
    <rc><c>N </c><c>   3</c></rc>
    <rc><c>N </c><c>   3</c></rc>
    <rc><c>N </c><c>   3</c></rc>
    <rc><c>N </c><c>   3</c></rc>
    <rc><c>N </c><c>   3</c></rc>
    <rc><c>N </c><c>   3</c></rc>
    <rc><c>N </c><c>   3</c></rc>
    <rc><c>N </c><c>   3</c></rc>
    <rc><c>N </c><c>   3</c></rc>
    <rc><c>N </c><c>   3</c></rc>
    <rc><c>N </c><c>   3</c></rc>
    <rc><c>N </c><c>   3</c></rc>
    <rc><c>N </c><c>   3</c></rc>
    <rc><c>N </c><c>   3</c></rc>
    <rc><c>N </c><c>   3</c></rc>
    <rc><c>N </c><c>   3</c></rc>
    <rc><c>N </c><c>   3</c></rc>
    <rc><c>N </c><c>   3</c></rc>
    <rc><c>N </c><c>   3</c></rc>
    <rc><c>N </c><c>   3</c></rc>
    <rc><c>N </c><c>   3</c></rc>
    <rc><c>N </c><c>   3</c></rc>
    <rc><c>N </c><c>   3</c></rc>
    <rc><c>N </c><c>   3</c></rc>
    <rc><c>N </c><c>   3</c></rc>
    <rc><c>N </c><c>   3</c></rc>
    <rc><c>N </c><c>   3</c></rc>
    <rc><c>N </c><c>   3</c></rc>
    <rc><c>N </c><c>   3</c></rc>
    <rc><c>N </c><c>   3</c></rc>
    <rc><c>N </c><c>   3</c></rc>
    <rc><c>N </c><c>   3</c></rc>
    <rc><c>N </c><c>   3</c></rc>
    <rc><c>N </c><c>   3</c></rc>
    <rc><c>N </c><c>   3</c></rc>
    <rc><c>N </c><c>   3</c></rc>
    <rc><c>N </c><c>   3</c></rc>
    <rc><c>N </c><c>   3</c></rc>
    <rc><c>I </c><c>   4</c></rc>
    <rc><c>I </c><c>   4</c></rc>
    <rc><c>I </c><c>   4</c></rc>
    <rc><c>I </c><c>   4</c></rc>
    <rc><c>I </c><c>   4</c></rc>
    <rc><c>I </c><c>   4</c></rc>
    <rc><c>I </c><c>   4</c></rc>
    <rc><c>I </c><c>   4</c></rc>
    <rc><c>I </c><c>   4</c></rc>
    <rc><c>I </c><c>   4</c></rc>
    <rc><c>I </c><c>   4</c></rc>
    <rc><c>I </c><c>   4</c></rc>
    <rc><c>I </c><c>   4</c></rc>
    <rc><c>I </c><c>   4</c></rc>
    <rc><c>I </c><c>   4</c></rc>
    <rc><c>I </c><c>   4</c></rc>
    <rc><c>I </c><c>   4</c></rc>
    <rc><c>I </c><c>   4</c></rc>
    <rc><c>I </c><c>   4</c></rc>
    <rc><c>I </c><c>   4</c></rc>
    <rc><c>I </c><c>   4</c></rc>
    <rc><c>I </c><c>   4</c></rc>
    <rc><c>I </c><c>   4</c></rc>
    <rc><c>I </c><c>   4</c></rc>
    <rc><c>I </c><c>   4</c></rc>
    <rc><c>I </c><c>   4</c></rc>
    <rc><c>I </c><c>   4</c></rc>
    <rc><c>I </c><c>   4</c></rc>
    <rc><c>I </c><c>   4</c></rc>
    <rc><c>I </c><c>   4</c></rc>
    <rc><c>I </c><c>   4</c></rc>
    <rc><c>I </c><c>   4</c></rc>
    <rc><c>I </c><c>   4</c></rc>
    <rc><c>I </c><c>   4</c></rc>
    <rc><c>I </c><c>   4</c></rc>
    <rc><c>I </c><c>   4</c></rc>
    <rc><c>I </c><c>   4</c></rc>
    <rc><c>I </c><c>   4</c></rc>
    <rc><c>I </c><c>   4</c></rc>
    <rc><c>I </c><c>   4</c></rc>
    <rc><c>I </c><c>   4</c></rc>
    <rc><c>I </c><c>   4</c></rc>
    <rc><c>I </c><c>   4</c></rc>
    <rc><c>I </c><c>   4</c></rc>
    <rc><c>I </c><c>   4</c></rc>
    <rc><c>I </c><c>   4</c></rc>
    <rc><c>I </c><c>   4</c></rc>
    <rc><c>I </c><c>   4</c></rc>
    <rc><c>I </c><c>   4</c></rc>
    <rc><c>I </c><c>   4</c></rc>
    <rc><c>I </c><c>   4</c></rc>
    <rc><c>I </c><c>   4</c></rc>
    <rc><c>I </c><c>   4</c></rc>
    <rc><c>I </c><c>   4</c></rc>
    <rc><c>I </c><c>   4</c></rc>
    <rc><c>I </c><c>   4</c></rc>
    <rc><c>I </c><c>   4</c></rc>
    <rc><c>I </c><c>   4</c></rc>
    <rc><c>I </c><c>   4</c></rc>
    <rc><c>I </c><c>   4</c></rc>
    <rc><c>I </c><c>   4</c></rc>
    <rc><c>I </c><c>   4</c></rc>
    <rc><c>I </c><c>   4</c></rc>
    <rc><c>I </c><c>   4</c></rc>
    <rc><c>I </c><c>   4</c></rc>
    <rc><c>I </c><c>   4</c></rc>
    <rc><c>I </c><c>   4</c></rc>
    <rc><c>I </c><c>   4</c></rc>
    <rc><c>I </c><c>   4</c></rc>
    <rc><c>I </c><c>   4</c></rc>
    <rc><c>I </c><c>   4</c></rc>
    <rc><c>I </c><c>   4</c></rc>
    <rc><c>Pb</c><c>   5</c></rc>
    <rc><c>Pb</c><c>   5</c></rc>
    <rc><c>Pb</c><c>   5</c></rc>
    <rc><c>Pb</c><c>   5</c></rc>
    <rc><c>Pb</c><c>   5</c></rc>
    <rc><c>Pb</c><c>   5</c></rc>
    <rc><c>Pb</c><c>   5</c></rc>
    <rc><c>Pb</c><c>   5</c></rc>
    <rc><c>Pb</c><c>   5</c></rc>
    <rc><c>Pb</c><c>   5</c></rc>
    <rc><c>Pb</c><c>   5</c></rc>
    <rc><c>Pb</c><c>   5</c></rc>
    <rc><c>Pb</c><c>   5</c></rc>
    <rc><c>Pb</c><c>   5</c></rc>
    <rc><c>Pb</c><c>   5</c></rc>
    <rc><c>Pb</c><c>   5</c></rc>
    <rc><c>Pb</c><c>   5</c></rc>
    <rc><c>Pb</c><c>   5</c></rc>
    <rc><c>Pb</c><c>   5</c></rc>
    <rc><c>Pb</c><c>   5</c></rc>
    <rc><c>Pb</c><c>   5</c></rc>
    <rc><c>Pb</c><c>   5</c></rc>
    <rc><c>Pb</c><c>   5</c></rc>
    <rc><c>Pb</c><c>   5</c></rc>
   </set>
  </array>
  <array name="atomtypes" >
   <dimension dim="1">type</dimension>
   <field type="int">atomspertype</field>
   <field type="string">element</field>
   <field>mass</field>
   <field>valence</field>
   <field type="string">pseudopotential</field>
   <set>
    <rc><c> 143</c><c>H </c><c>      1.00000000</c><c>      1.00000000</c><c>  PAW_PBE H 15Jun2001                   </c></rc>
    <rc><c>  39</c><c>C </c><c>     12.01100000</c><c>      4.00000000</c><c>  PAW_PBE C 08Apr2002                   </c></rc>
    <rc><c>  47</c><c>N </c><c>     14.00100000</c><c>      5.00000000</c><c>  PAW_PBE N 08Apr2002                   </c></rc>
    <rc><c>  72</c><c>I </c><c>    126.90400000</c><c>      7.00000000</c><c>  PAW_PBE I 08Apr2002                   </c></rc>
    <rc><c>  24</c><c>Pb</c><c>    207.20000000</c><c>      4.00000000</c><c>  PAW_PBE Pb 08Apr2002                  </c></rc>
   </set>
  </array>
 </atominfo>
 <structure name="initialpos" >
  <crystal>
   <varray name="basis" >
    <v>      18.06080055       0.00000000       0.00000000 </v>
    <v>      -0.00491865      18.06279878       0.00000000 </v>
    <v>       0.00000000       0.00000000      62.48749924 </v>
   </varray>
   <i name="volume">  20385.20978454 </i>
   <varray name="rec_basis" >
    <v>       0.05536853       0.00001508      -0.00000000 </v>
    <v>       0.00000000       0.05536241       0.00000000 </v>
    <v>       0.00000000      -0.00000000       0.01600320 </v>
   </varray>
  </crystal>
  <varray name="positions" >
   <v>       0.44985750       0.29980251       0.58186901 </v>
   <v>       0.44985750       0.79980254       0.58186901 </v>
   <v>       0.94985747       0.29980251       0.58186901 </v>
   <v>       0.94985747       0.79980254       0.58186901 </v>
   <v>       0.30122301       0.05125000       0.58186901 </v>
   <v>       0.30122301       0.55124998       0.58186901 </v>
   <v>       0.80122304       0.05125000       0.58186901 </v>
   <v>       0.07963900       0.17118999       0.55695301 </v>
   <v>       0.07963900       0.67119002       0.55695301 </v>
   <v>       0.57963902       0.17118999       0.55695301 </v>
   <v>       0.57963902       0.67119002       0.55695301 </v>
   <v>       0.32886750       0.07890100       0.55695301 </v>
   <v>       0.32886750       0.57890099       0.55695301 </v>
   <v>       0.82886750       0.07890100       0.55695301 </v>
   <v>       0.05014550       0.20019799       0.58186698 </v>
   <v>       0.05014550       0.70019799       0.58186698 </v>
   <v>       0.55014551       0.20019799       0.58186698 </v>
   <v>       0.55014551       0.70019799       0.58186698 </v>
   <v>       0.19877601       0.44874796       0.58186698 </v>
   <v>       0.19877601       0.94874805       0.58186698 </v>
   <v>       0.69877601       0.94874805       0.58186698 </v>
   <v>       0.42035100       0.32881650       0.55695200 </v>
   <v>       0.42035100       0.82881653       0.55695200 </v>
   <v>       0.92035103       0.32881650       0.55695200 </v>
   <v>       0.92035109       0.82881653       0.55695200 </v>
   <v>       0.17113250       0.42109901       0.55695200 </v>
   <v>       0.17113250       0.92109907       0.55695200 </v>
   <v>       0.67113250       0.92109907       0.55695200 </v>
   <v>       0.49999750       0.25000301       0.53849697 </v>
   <v>       0.49999747       0.75000298       0.53849697 </v>
   <v>       0.99999756       0.25000301       0.53849697 </v>
   <v>       0.99999750       0.75000298       0.53849697 </v>
   <v>       0.24999999       0.50000000       0.53849697 </v>
   <v>       0.25000000       0.00000000       0.53849697 </v>
   <v>       0.75000000       0.00000000       0.53849697 </v>
   <v>       0.44879299       0.30124351       0.67418498 </v>
   <v>       0.44879299       0.80124354       0.67418498 </v>
   <v>       0.94879299       0.30124351       0.67418498 </v>
   <v>       0.94879293       0.80124354       0.67418498 </v>
   <v>       0.30122301       0.05125000       0.67416698 </v>
   <v>       0.30122301       0.55124998       0.67416698 </v>
   <v>       0.80122304       0.05125000       0.67416698 </v>
   <v>       0.80122304       0.55124998       0.67416698 </v>
   <v>       0.07882550       0.17109650       0.64885497 </v>
   <v>       0.07882550       0.67109650       0.64885497 </v>
   <v>       0.57882547       0.17109650       0.64885497 </v>
   <v>       0.57882547       0.67109650       0.64885497 </v>
   <v>       0.17113250       0.42109901       0.64883500 </v>
   <v>       0.17113250       0.92109907       0.64883500 </v>
   <v>       0.67113250       0.42109901       0.64883500 </v>
   <v>       0.67113250       0.92109907       0.64883500 </v>
   <v>       0.05120650       0.19875650       0.67418599 </v>
   <v>       0.05120650       0.69875652       0.67418599 </v>
   <v>       0.55120647       0.19875650       0.67418599 </v>
   <v>       0.55120647       0.69875652       0.67418599 </v>
   <v>       0.19877601       0.44874796       0.67416602 </v>
   <v>       0.19877601       0.94874805       0.67416602 </v>
   <v>       0.69877601       0.44874796       0.67416602 </v>
   <v>       0.69877601       0.94874805       0.67416602 </v>
   <v>       0.42117649       0.32890201       0.64885497 </v>
   <v>       0.42117649       0.82890201       0.64885497 </v>
   <v>       0.92117649       0.32890201       0.64885497 </v>
   <v>       0.92117649       0.82890201       0.64885497 </v>
   <v>       0.32886750       0.07890100       0.64883602 </v>
   <v>       0.32886750       0.57890099       0.64883602 </v>
   <v>       0.82886750       0.07890100       0.64883602 </v>
   <v>       0.82886750       0.57890099       0.64883602 </v>
   <v>       0.00000000       0.25000101       0.63108701 </v>
   <v>       1.00000000       0.75000101       0.63108701 </v>
   <v>       0.50000000       0.25000101       0.63108701 </v>
   <v>       0.50000000       0.75000101       0.63108701 </v>
   <v>       0.25000000       0.00000150       0.63106900 </v>
   <v>       0.24999999       0.50000149       0.63106900 </v>
   <v>       0.75000000       0.00000150       0.63106900 </v>
   <v>       0.75000000       0.50000149       0.63106900 </v>
   <v>       0.44874501       0.30128399       0.76888901 </v>
   <v>       0.44874501       0.80128396       0.76888901 </v>
   <v>       0.94874495       0.30128399       0.76888901 </v>
   <v>       0.94874501       0.80128396       0.76888901 </v>
   <v>       0.30127600       0.05129450       0.76887298 </v>
   <v>       0.30127600       0.55129451       0.76887298 </v>
   <v>       0.80127597       0.05129450       0.76887298 </v>
   <v>       0.80127597       0.55129451       0.76887298 </v>
   <v>       0.07877100       0.17118050       0.74344200 </v>
   <v>       0.07877100       0.67118049       0.74344200 </v>
   <v>       0.57877100       0.17118050       0.74344200 </v>
   <v>       0.57877100       0.67118049       0.74344200 </v>
   <v>       0.17119950       0.42117450       0.74342102 </v>
   <v>       0.17119950       0.92117453       0.74342102 </v>
   <v>       0.67119950       0.42117450       0.74342102 </v>
   <v>       0.67119950       0.92117453       0.74342102 </v>
   <v>       0.05125600       0.19871500       0.76888901 </v>
   <v>       0.05125600       0.69871497       0.76888901 </v>
   <v>       0.55125600       0.19871500       0.76888901 </v>
   <v>       0.55125600       0.69871497       0.76888901 </v>
   <v>       0.19872349       0.44870397       0.76887202 </v>
   <v>       0.19872350       0.94870400       0.76887202 </v>
   <v>       0.69872349       0.44870397       0.76887202 </v>
   <v>       0.69872350       0.94870400       0.76887202 </v>
   <v>       0.42123151       0.32881749       0.74344200 </v>
   <v>       0.42123151       0.82881749       0.74344200 </v>
   <v>       0.92123145       0.32881749       0.74344200 </v>
   <v>       0.92123151       0.82881749       0.74344200 </v>
   <v>       0.32880050       0.07882500       0.74342102 </v>
   <v>       0.32880050       0.57882500       0.74342102 </v>
   <v>       0.82880050       0.07882500       0.74342102 </v>
   <v>       0.82880050       0.57882500       0.74342102 </v>
   <v>       0.00000350       0.25000149       0.72582197 </v>
   <v>       0.00000350       0.75000149       0.72582197 </v>
   <v>       0.50000352       0.25000149       0.72582197 </v>
   <v>       0.50000352       0.75000149       0.72582197 </v>
   <v>       0.25000051       0.00000000       0.72580397 </v>
   <v>       0.25000051       0.50000000       0.72580397 </v>
   <v>       0.75000048       0.00000000       0.72580397 </v>
   <v>       0.75000048       0.50000000       0.72580397 </v>
   <v>       0.70806180       0.48448668       0.45167493 </v>
   <v>       0.65887028       0.53768586       0.47055428 </v>
   <v>       0.69093326       0.37585939       0.50135368 </v>
   <v>       0.62626304       0.44012595       0.49127825 </v>
   <v>       0.76860837       0.46282188       0.51631609 </v>
   <v>       0.79974152       0.54062599       0.50182208 </v>
   <v>       0.79888540       0.40537569       0.46061605 </v>
   <v>       0.85096329       0.46846868       0.47593410 </v>
   <v>       0.76533423       0.62127197       0.47556409 </v>
   <v>       0.82224493       0.56614884       0.45914297 </v>
   <v>       0.67777732       0.62660026       0.44096854 </v>
   <v>       0.75389618       0.68566343       0.44388955 </v>
   <v>       0.70537246       0.32068793       0.46429755 </v>
   <v>       0.61298283       0.32052976       0.47329449 </v>
   <v>       0.64108467       0.38594382       0.45403344 </v>
   <v>       0.66822110       0.59303935       0.50272157 </v>
   <v>       0.64062570       0.51621267       0.51866344 </v>
   <v>       0.70793746       0.57845784       0.52810563 </v>
   <v>       0.79668306       0.31631474       0.49209623 </v>
   <v>       0.88692488       0.34100698       0.48423583 </v>
   <v>       0.84912075       0.38048752       0.50749781 </v>
   <v>       0.74976860       0.63739007       0.40766251 </v>
   <v>       0.83153747       0.61000610       0.42058599 </v>
   <v>       0.64041566       0.53888064       0.40721302 </v>
   <v>       0.86839581       0.48458600       0.41926411 </v>
   <v>       0.61475348       0.40802146       0.39836192 </v>
   <v>       0.84282136       0.35345539       0.41039416 </v>
   <v>       0.71556353       0.31433664       0.40010779 </v>
   <v>       0.00001250       0.24997598       0.55595303 </v>
   <v>       0.00001250       0.74997598       0.55595303 </v>
   <v>       0.50001252       0.24997598       0.55595303 </v>
   <v>       0.50001252       0.74997598       0.55595303 </v>
   <v>       0.24999999       0.50000000       0.55595303 </v>
   <v>       0.25000000       0.00000000       0.55595303 </v>
   <v>       0.75000000       0.00000000       0.55595303 </v>
   <v>       0.00000900       0.24999101       0.64852703 </v>
   <v>       0.00000900       0.74999100       0.64852703 </v>
   <v>       0.50000900       0.24999101       0.64852703 </v>
   <v>       0.50000900       0.74999100       0.64852703 </v>
   <v>       0.24999949       0.49999949       0.64850700 </v>
   <v>       0.24999951       0.99999952       0.64850700 </v>
   <v>       0.74999952       0.49999949       0.64850700 </v>
   <v>       0.74999952       0.99999952       0.64850700 </v>
   <v>       0.49998897       0.24999499       0.74327701 </v>
   <v>       0.49998903       0.74999499       0.74327701 </v>
   <v>       0.99998897       0.24999499       0.74327701 </v>
   <v>       0.99998903       0.74999499       0.74327701 </v>
   <v>       0.25000051       0.00000100       0.74325597 </v>
   <v>       0.25000051       0.50000101       0.74325597 </v>
   <v>       0.75000048       0.00000100       0.74325597 </v>
   <v>       0.75000048       0.50000101       0.74325597 </v>
   <v>       0.71388245       0.51793394       0.46606378 </v>
   <v>       0.67528900       0.40781795       0.48722185 </v>
   <v>       0.75193951       0.50511405       0.50481644 </v>
   <v>       0.80897518       0.42519471       0.47685931 </v>
   <v>       0.76496500       0.58396972       0.46174223 </v>
   <v>       0.73853516       0.62745611       0.44177118 </v>
   <v>       0.65878340       0.35652567       0.46842590 </v>
   <v>       0.68767392       0.55026575       0.51374450 </v>
   <v>       0.83569058       0.36246611       0.49125451 </v>
   <v>       0.77147883       0.60101846       0.42024417 </v>
   <v>       0.75596381       0.52099127       0.41446232 </v>
   <v>       0.68467915       0.49820560       0.40835115 </v>
   <v>       0.81232193       0.46766941       0.41517237 </v>
   <v>       0.67005690       0.42430819       0.40334563 </v>
   <v>       0.79800759       0.39360066       0.41012750 </v>
   <v>       0.72670007       0.37164808       0.40428334 </v>
   <v>       0.04578050       0.20460950       0.56560701 </v>
   <v>       0.04578050       0.70460951       0.56560701 </v>
   <v>       0.54578048       0.20460950       0.56560701 </v>
   <v>       0.54578048       0.70460951       0.56560701 </v>
   <v>       0.45421049       0.29540500       0.56561202 </v>
   <v>       0.45421046       0.79540503       0.56561202 </v>
   <v>       0.95421052       0.29540500       0.56561202 </v>
   <v>       0.95421046       0.79540503       0.56561202 </v>
   <v>       0.20414101       0.45413998       0.56560701 </v>
   <v>       0.20414101       0.95414007       0.56560701 </v>
   <v>       0.70414102       0.95414007       0.56560701 </v>
   <v>       0.29585901       0.04586050       0.56561202 </v>
   <v>       0.29585901       0.54586053       0.56561202 </v>
   <v>       0.79585898       0.04586050       0.56561202 </v>
   <v>       0.04581600       0.20412999       0.65799499 </v>
   <v>       0.04581600       0.70412999       0.65799499 </v>
   <v>       0.54581600       0.20412999       0.65799499 </v>
   <v>       0.54581600       0.70412999       0.65799499 </v>
   <v>       0.20414101       0.45413998       0.65797698 </v>
   <v>       0.20414101       0.95414007       0.65797698 </v>
   <v>       0.70414102       0.45413998       0.65797698 </v>
   <v>       0.70414102       0.95414007       0.65797698 </v>
   <v>       0.45417100       0.29588401       0.65799701 </v>
   <v>       0.45417100       0.79588401       0.65799701 </v>
   <v>       0.95417094       0.29588401       0.65799701 </v>
   <v>       0.95417100       0.79588401       0.65799701 </v>
   <v>       0.29585901       0.04586050       0.65797698 </v>
   <v>       0.29585901       0.54586053       0.65797698 </v>
   <v>       0.79585898       0.04586050       0.65797698 </v>
   <v>       0.79585898       0.54586053       0.65797698 </v>
   <v>       0.04586250       0.20411950       0.75272602 </v>
   <v>       0.04586250       0.70411950       0.75272602 </v>
   <v>       0.54586250       0.20411950       0.75272602 </v>
   <v>       0.54586250       0.70411950       0.75272602 </v>
   <v>       0.20411900       0.45410103       0.75270498 </v>
   <v>       0.20411900       0.95410097       0.75270498 </v>
   <v>       0.70411897       0.45410103       0.75270498 </v>
   <v>       0.70411897       0.95410097       0.75270498 </v>
[...]
   <v>       0.70425469       0.45427054       0.65753648 </v>
   <v>       0.70403884       0.95422245       0.65794734 </v>
   <v>       0.45419526       0.29587900       0.65798931 </v>
   <v>       0.45434615       0.79569776       0.65797814 </v>
   <v>       0.95402060       0.29603200       0.65791572 </v>
   <v>       0.95416255       0.79581170       0.65798818 </v>
   <v>       0.29582444       0.04584260       0.65798021 </v>
   <v>       0.29571718       0.54592385       0.65794919 </v>
   <v>       0.79588939       0.04572873       0.65794988 </v>
   <v>       0.79578205       0.54580476       0.65753144 </v>
   <v>       0.04586250       0.20411950       0.75272602 </v>
   <v>       0.04586250       0.70411950       0.75272602 </v>
   <v>       0.54586250       0.20411950       0.75272602 </v>
   <v>       0.54586250       0.70411950       0.75272602 </v>
   <v>       0.20411900       0.45410103       0.75270498 </v>
   <v>       0.20411900       0.95410097       0.75270498 </v>
   <v>       0.70411897       0.45410103       0.75270498 </v>
   <v>       0.70411897       0.95410097       0.75270498 </v>
   <v>       0.45414001       0.29588851       0.75272697 </v>
   <v>       0.45414001       0.79588854       0.75272697 </v>
   <v>       0.95414001       0.29588851       0.75272697 </v>
   <v>       0.95414007       0.79588854       0.75272697 </v>
   <v>       0.29588249       0.04590050       0.75270498 </v>
   <v>       0.29588249       0.54590052       0.75270498 </v>
   <v>       0.79588246       0.04590050       0.75270498 </v>
   <v>       0.79588246       0.54590052       0.75270498 </v>
   <v>       0.73767688       0.46404170       0.48422117 </v>
   <v>       0.50016057       0.00079209       0.55162984 </v>
   <v>       0.49664276       0.50314742       0.54999394 </v>
   <v>      -0.00016090       0.00082395       0.55165296 </v>
   <v>       0.00196381       0.49323554       0.55031515 </v>
   <v>       0.25027483       0.24966072       0.55162029 </v>
   <v>       0.25039917       0.75034916       0.55172681 </v>
   <v>       0.75424505       0.25156528       0.54887224 </v>
   <v>       0.74410198       0.75152026       0.55048157 </v>
   <v>       0.00051731       0.00015199       0.65399469 </v>
   <v>       0.00111023       0.50003388       0.65356935 </v>
   <v>       0.49943049       0.00020137       0.65399602 </v>
   <v>       0.49889605       0.49970607       0.65340931 </v>
   <v>       0.25009530       0.24936310       0.65399021 </v>
   <v>       0.25007675       0.75062593       0.65401674 </v>
   <v>       0.74972812       0.24895344       0.65305698 </v>
   <v>       0.75004439       0.75119644       0.65360522 </v>
   <v>       0.14339265       0.10660092       0.60708238 </v>
   <v>       0.14250184       0.60603616       0.60697084 </v>
   <v>       0.64405470       0.10749744       0.60691141 </v>
   <v>       0.63832348       0.61154897       0.60811107 </v>
   <v>       0.35743406       0.39391869       0.60699327 </v>
   <v>       0.35661061       0.89338673       0.60706999 </v>
   <v>       0.86158904       0.38817886       0.60821412 </v>
   <v>       0.85605080       0.89259581       0.60696741 </v>
   <v>       0.10670400       0.35780710       0.60713368 </v>
   <v>       0.10690511       0.85695868       0.60716988 </v>
   <v>       0.60472000       0.35459216       0.60662791 </v>
   <v>       0.60784950       0.85681394       0.60711681 </v>
   <v>       0.39316587       0.14316077       0.60715249 </v>
   <v>       0.39334569       0.64209052       0.60707947 </v>
   <v>       0.89201977       0.14340529       0.60702079 </v>
   <v>       0.89530741       0.64522286       0.60668466 </v>
   <v>       0.00000000       0.00000000       0.75492799 </v>
   <v>       0.00000000       0.50000000       0.75492799 </v>
   <v>       0.50000000       0.00000000       0.75492799 </v>
   <v>       0.50000000       0.50000000       0.75492799 </v>
   <v>       0.25000051       0.25000000       0.75493902 </v>
   <v>       0.25000051       0.75000000       0.75493902 </v>
   <v>       0.75000048       0.25000000       0.75493902 </v>
   <v>       0.75000048       0.75000000       0.75493902 </v>
   <v>       0.13579050       0.11421000       0.70478302 </v>
   <v>       0.13579050       0.61421001       0.70478302 </v>
   <v>       0.63579047       0.11421000       0.70478302 </v>
   <v>       0.63579047       0.61421001       0.70478302 </v>
   <v>       0.36420950       0.38578999       0.70478302 </v>
   <v>       0.36420950       0.88578999       0.70478302 </v>
   <v>       0.86420953       0.38578999       0.70478302 </v>
   <v>       0.86420953       0.88578999       0.70478302 </v>
   <v>       0.11421799       0.36421901       0.70478100 </v>
   <v>       0.11421799       0.86421901       0.70478100 </v>
   <v>       0.61421800       0.36421901       0.70478100 </v>
   <v>       0.61421800       0.86421901       0.70478100 </v>
   <v>       0.38578200       0.13578150       0.70478201 </v>
   <v>       0.38578200       0.63578153       0.70478201 </v>
   <v>       0.88578200       0.13578150       0.70478201 </v>
   <v>       0.88578200       0.63578153       0.70478201 </v>
   <v>       0.13466699       0.11533201       0.80125600 </v>
   <v>       0.13466699       0.61533201       0.80125600 </v>
   <v>       0.63466698       0.11533201       0.80125600 </v>
   <v>       0.63466698       0.61533201       0.80125600 </v>
   <v>       0.36533299       0.38466799       0.80125600 </v>
   <v>       0.36533299       0.88466799       0.80125600 </v>
   <v>       0.86533296       0.38466799       0.80125600 </v>
   <v>       0.86533296       0.88466799       0.80125600 </v>
   <v>       0.11532851       0.36533701       0.80126500 </v>
   <v>       0.11532851       0.86533701       0.80126500 </v>
   <v>       0.61532849       0.36533701       0.80126500 </v>
   <v>       0.61532849       0.86533701       0.80126500 </v>
   <v>       0.38467151       0.13466300       0.80126500 </v>
   <v>       0.38467151       0.63466299       0.80126500 </v>
   <v>       0.88467151       0.13466300       0.80126500 </v>
   <v>       0.88467151       0.63466299       0.80126500 </v>
   <v>      -0.00147196       0.00032892       0.60246451 </v>
   <v>      -0.00323354       0.50069188       0.60137623 </v>
   <v>       0.50141842      -0.00027376       0.60244929 </v>
   <v>       0.50316213       0.49907662       0.60141212 </v>
   <v>       0.24966909       0.25147374       0.60246282 </v>
   <v>       0.25028613       0.74849189       0.60252073 </v>
   <v>       0.74911265       0.25366326       0.60119672 </v>
   <v>       0.75086865       0.74665950       0.60157544 </v>
   <v>       0.00000050       0.00000050       0.70482898 </v>
   <v>       0.00000050       0.50000048       0.70482898 </v>
   <v>       0.50000048       0.00000050       0.70482898 </v>
   <v>       0.50000048       0.50000048       0.70482898 </v>
   <v>       0.25000000       0.24999948       0.70482498 </v>
   <v>       0.25000000       0.74999952       0.70482498 </v>
   <v>       0.75000000       0.24999948       0.70482498 </v>
   <v>       0.75000000       0.74999952       0.70482498 </v>
   <v>       0.00000000       0.00000000       0.80731797 </v>
   <v>       0.00000000       0.50000000       0.80731797 </v>
   <v>       0.50000000       0.00000000       0.80731797 </v>
   <v>       0.50000000       0.50000000       0.80731797 </v>
   <v>       0.25000000       0.25000000       0.80731797 </v>
   <v>       0.25000000       0.75000000       0.80731797 </v>
   <v>       0.75000000       0.25000000       0.80731797 </v>
   <v>       0.75000000       0.75000000       0.80731797 </v>
  </varray>
  <varray name="selective"  type="logical" >
   <v type="logical" >  T  T  T </v>
   <v type="logical" >  T  T  T </v>
   <v type="logical" >  T  T  T </v>
   <v type="logical" >  T  T  T </v>
   <v type="logical" >  T  T  T </v>
   <v type="logical" >  T  T  T </v>
   <v type="logical" >  T  T  T </v>
   <v type="logical" >  T  T  T </v>
   <v type="logical" >  T  T  T </v>
   <v type="logical" >  T  T  T </v>
   <v type="logical" >  T  T  T </v>
   <v type="logical" >  T  T  T </v>
   <v type="logical" >  T  T  T </v>
   <v type="logical" >  T  T  T </v>
   <v type="logical" >  T  T  T </v>
   <v type="logical" >  T  T  T </v>
   <v type="logical" >  T  T  T </v>
   <v type="logical" >  T  T  T </v>
   <v type="logical" >  T  T  T </v>
   <v type="logical" >  T  T  T </v>
   <v type="logical" >  T  T  T </v>
   <v type="logical" >  T  T  T </v>
   <v type="logical" >  T  T  T </v>
   <v type="logical" >  T  T  T </v>
   <v type="logical" >  T  T  T </v>
   <v type="logical" >  T  T  T </v>
   <v type="logical" >  T  T  T </v>
   <v type="logical" >  T  T  T </v>
   <v type="logical" >  T  T  T </v>
   <v type="logical" >  T  T  T </v>
   <v type="logical" >  T  T  T </v>
   <v type="logical" >  T  T  T </v>
   <v type="logical" >  T  T  T </v>
   <v type="logical" >  T  T  T </v>
   <v type="logical" >  T  T  T </v>
   <v type="logical" >  T  T  T </v>
   <v type="logical" >  T  T  T </v>
   <v type="logical" >  T  T  T </v>
   <v type="logical" >  T  T  T </v>
   <v type="logical" >  T  T  T </v>
   <v type="logical" >  T  T  T </v>
   <v type="logical" >  T  T  T </v>
   <v type="logical" >  T  T  T </v>
   <v type="logical" >  T  T  T </v>
   <v type="logical" >  T  T  T </v>
   <v type="logical" >  T  T  T </v>
   <v type="logical" >  T  T  T </v>
   <v type="logical" >  T  T  T </v>
   <v type="logical" >  T  T  T </v>
   <v type="logical" >  T  T  T </v>
   <v type="logical" >  T  T  T </v>
   <v type="logical" >  T  T  T </v>
   <v type="logical" >  T  T  T </v>
   <v type="logical" >  T  T  T </v>
   <v type="logical" >  T  T  T </v>
   <v type="logical" >  T  T  T </v>
   <v type="logical" >  T  T  T </v>
   <v type="logical" >  T  T  T </v>
   <v type="logical" >  T  T  T </v>
   <v type="logical" >  T  T  T </v>
   <v type="logical" >  T  T  T </v>
   <v type="logical" >  T  T  T </v>
   <v type="logical" >  T  T  T </v>
   <v type="logical" >  T  T  T </v>
   <v type="logical" >  T  T  T </v>
   <v type="logical" >  T  T  T </v>
   <v type="logical" >  T  T  T </v>
   <v type="logical" >  T  T  T </v>
   <v type="logical" >  T  T  T </v>
   <v type="logical" >  T  T  T </v>
   <v type="logical" >  T  T  T </v>
   <v type="logical" >  T  T  T </v>
   <v type="logical" >  T  T  T </v>
   <v type="logical" >  T  T  T </v>
   <v type="logical" >  T  T  T </v>
   <v type="logical" >  F  F  F </v>
   <v type="logical" >  F  F  F </v>
   <v type="logical" >  F  F  F </v>
   <v type="logical" >  F  F  F </v>
   <v type="logical" >  F  F  F </v>
   <v type="logical" >  F  F  F </v>
   <v type="logical" >  F  F  F </v>
   <v type="logical" >  F  F  F </v>
   <v type="logical" >  F  F  F </v>
   <v type="logical" >  F  F  F </v>
   <v type="logical" >  F  F  F </v>
   <v type="logical" >  F  F  F </v>
   <v type="logical" >  F  F  F </v>
   <v type="logical" >  F  F  F </v>
   <v type="logical" >  F  F  F </v>
   <v type="logical" >  F  F  F </v>
   <v type="logical" >  F  F  F </v>
   <v type="logical" >  F  F  F </v>
   <v type="logical" >  F  F  F </v>
   <v type="logical" >  F  F  F </v>
   <v type="logical" >  F  F  F </v>
   <v type="logical" >  F  F  F </v>
   <v type="logical" >  F  F  F </v>
   <v type="logical" >  F  F  F </v>
   <v type="logical" >  F  F  F </v>
   <v type="logical" >  F  F  F </v>
   <v type="logical" >  F  F  F </v>
   <v type="logical" >  F  F  F </v>
   <v type="logical" >  F  F  F </v>
   <v type="logical" >  F  F  F </v>
   <v type="logical" >  F  F  F </v>
   <v type="logical" >  F  F  F </v>
   <v type="logical" >  F  F  F </v>
   <v type="logical" >  F  F  F </v>
   <v type="logical" >  F  F  F </v>
   <v type="logical" >  F  F  F </v>
   <v type="logical" >  F  F  F </v>
   <v type="logical" >  F  F  F </v>
   <v type="logical" >  F  F  F </v>
   <v type="logical" >  F  F  F </v>
   <v type="logical" >  T  T  T </v>
   <v type="logical" >  T  T  T </v>
   <v type="logical" >  T  T  T </v>
   <v type="logical" >  T  T  T </v>
   <v type="logical" >  T  T  T </v>
   <v type="logical" >  T  T  T </v>
   <v type="logical" >  T  T  T </v>
   <v type="logical" >  T  T  T </v>
   <v type="logical" >  T  T  T </v>
   <v type="logical" >  T  T  T </v>
   <v type="logical" >  T  T  T </v>
   <v type="logical" >  T  T  T </v>
   <v type="logical" >  T  T  T </v>
   <v type="logical" >  T  T  T </v>
   <v type="logical" >  T  T  T </v>
   <v type="logical" >  T  T  T </v>
   <v type="logical" >  T  T  T </v>
   <v type="logical" >  T  T  T </v>
   <v type="logical" >  T  T  T </v>
   <v type="logical" >  T  T  T </v>
   <v type="logical" >  T  T  T </v>
   <v type="logical" >  T  T  T </v>
   <v type="logical" >  T  T  T </v>
   <v type="logical" >  T  T  T </v>
   <v type="logical" >  T  T  T </v>
   <v type="logical" >  T  T  T </v>
   <v type="logical" >  T  T  T </v>
   <v type="logical" >  T  T  T </v>
   <v type="logical" >  T  T  T </v>
   <v type="logical" >  T  T  T </v>
   <v type="logical" >  T  T  T </v>
   <v type="logical" >  T  T  T </v>
   <v type="logical" >  T  T  T </v>
   <v type="logical" >  T  T  T </v>
   <v type="logical" >  T  T  T </v>
   <v type="logical" >  T  T  T </v>
   <v type="logical" >  T  T  T </v>
   <v type="logical" >  T  T  T </v>
   <v type="logical" >  T  T  T </v>
   <v type="logical" >  T  T  T </v>
   <v type="logical" >  T  T  T </v>
   <v type="logical" >  T  T  T </v>
   <v type="logical" >  T  T  T </v>
   <v type="logical" >  F  F  F </v>
   <v type="logical" >  F  F  F </v>
   <v type="logical" >  F  F  F </v>
   <v type="logical" >  F  F  F </v>
   <v type="logical" >  F  F  F </v>
   <v type="logical" >  F  F  F </v>
   <v type="logical" >  F  F  F </v>
   <v type="logical" >  F  F  F </v>
   <v type="logical" >  T  T  T </v>
   <v type="logical" >  T  T  T </v>
   <v type="logical" >  T  T  T </v>
   <v type="logical" >  T  T  T </v>
   <v type="logical" >  T  T  T </v>
   <v type="logical" >  T  T  T </v>
   <v type="logical" >  T  T  T </v>
   <v type="logical" >  T  T  T </v>
   <v type="logical" >  T  T  T </v>
   <v type="logical" >  T  T  T </v>
   <v type="logical" >  T  T  T </v>
   <v type="logical" >  T  T  T </v>
   <v type="logical" >  T  T  T </v>
   <v type="logical" >  T  T  T </v>
   <v type="logical" >  T  T  T </v>
   <v type="logical" >  T  T  T </v>
   <v type="logical" >  T  T  T </v>
   <v type="logical" >  T  T  T </v>
   <v type="logical" >  T  T  T </v>
   <v type="logical" >  T  T  T </v>
   <v type="logical" >  T  T  T </v>
   <v type="logical" >  T  T  T </v>
   <v type="logical" >  T  T  T </v>
   <v type="logical" >  T  T  T </v>
   <v type="logical" >  T  T  T </v>
   <v type="logical" >  T  T  T </v>
   <v type="logical" >  T  T  T </v>
   <v type="logical" >  T  T  T </v>
   <v type="logical" >  T  T  T </v>
   <v type="logical" >  T  T  T </v>
   <v type="logical" >  T  T  T </v>
   <v type="logical" >  T  T  T </v>
   <v type="logical" >  T  T  T </v>
   <v type="logical" >  T  T  T </v>
   <v type="logical" >  T  T  T </v>
   <v type="logical" >  T  T  T </v>
   <v type="logical" >  T  T  T </v>
   <v type="logical" >  T  T  T </v>
   <v type="logical" >  T  T  T </v>
   <v type="logical" >  T  T  T </v>
   <v type="logical" >  T  T  T </v>
   <v type="logical" >  T  T  T </v>
   <v type="logical" >  T  T  T </v>
   <v type="logical" >  T  T  T </v>
   <v type="logical" >  T  T  T </v>
   <v type="logical" >  T  T  T </v>
   <v type="logical" >  F  F  F </v>
   <v type="logical" >  F  F  F </v>
   <v type="logical" >  F  F  F </v>
   <v type="logical" >  F  F  F </v>
   <v type="logical" >  F  F  F </v>
   <v type="logical" >  F  F  F </v>
   <v type="logical" >  F  F  F </v>
   <v type="logical" >  F  F  F </v>
   <v type="logical" >  F  F  F </v>
   <v type="logical" >  F  F  F </v>
   <v type="logical" >  F  F  F </v>
   <v type="logical" >  F  F  F </v>
   <v type="logical" >  F  F  F </v>
   <v type="logical" >  F  F  F </v>
   <v type="logical" >  F  F  F </v>
   <v type="logical" >  F  F  F </v>
   <v type="logical" >  T  T  T </v>
   <v type="logical" >  T  T  T </v>
   <v type="logical" >  T  T  T </v>
   <v type="logical" >  T  T  T </v>
   <v type="logical" >  T  T  T </v>
   <v type="logical" >  T  T  T </v>
   <v type="logical" >  T  T  T </v>
   <v type="logical" >  T  T  T </v>
   <v type="logical" >  T  T  T </v>
   <v type="logical" >  T  T  T </v>
   <v type="logical" >  T  T  T </v>
   <v type="logical" >  T  T  T </v>
   <v type="logical" >  T  T  T </v>
   <v type="logical" >  T  T  T </v>
   <v type="logical" >  T  T  T </v>
   <v type="logical" >  T  T  T </v>
   <v type="logical" >  T  T  T </v>
   <v type="logical" >  T  T  T </v>
   <v type="logical" >  T  T  T </v>
   <v type="logical" >  T  T  T </v>
   <v type="logical" >  T  T  T </v>
   <v type="logical" >  T  T  T </v>
   <v type="logical" >  T  T  T </v>
   <v type="logical" >  T  T  T </v>
   <v type="logical" >  T  T  T </v>
   <v type="logical" >  T  T  T </v>
   <v type="logical" >  T  T  T </v>
   <v type="logical" >  T  T  T </v>
   <v type="logical" >  T  T  T </v>
   <v type="logical" >  T  T  T </v>
   <v type="logical" >  T  T  T </v>
   <v type="logical" >  T  T  T </v>
   <v type="logical" >  T  T  T </v>
   <v type="logical" >  F  F  F </v>
   <v type="logical" >  F  F  F </v>
   <v type="logical" >  F  F  F </v>
   <v type="logical" >  F  F  F </v>
   <v type="logical" >  F  F  F </v>
   <v type="logical" >  F  F  F </v>
   <v type="logical" >  F  F  F </v>
   <v type="logical" >  F  F  F </v>
   <v type="logical" >  F  F  F </v>
   <v type="logical" >  F  F  F </v>
   <v type="logical" >  F  F  F </v>
   <v type="logical" >  F  F  F </v>
   <v type="logical" >  F  F  F </v>
   <v type="logical" >  F  F  F </v>
   <v type="logical" >  F  F  F </v>
   <v type="logical" >  F  F  F </v>
   <v type="logical" >  F  F  F </v>
   <v type="logical" >  F  F  F </v>
   <v type="logical" >  F  F  F </v>
   <v type="logical" >  F  F  F </v>
   <v type="logical" >  F  F  F </v>
   <v type="logical" >  F  F  F </v>
   <v type="logical" >  F  F  F </v>
   <v type="logical" >  F  F  F </v>
   <v type="logical" >  F  F  F </v>
   <v type="logical" >  F  F  F </v>
   <v type="logical" >  F  F  F </v>
   <v type="logical" >  F  F  F </v>
   <v type="logical" >  F  F  F </v>
   <v type="logical" >  F  F  F </v>
   <v type="logical" >  F  F  F </v>
   <v type="logical" >  F  F  F </v>
   <v type="logical" >  F  F  F </v>
   <v type="logical" >  F  F  F </v>
   <v type="logical" >  F  F  F </v>
   <v type="logical" >  F  F  F </v>
   <v type="logical" >  F  F  F </v>
   <v type="logical" >  F  F  F </v>
   <v type="logical" >  F  F  F </v>
   <v type="logical" >  F  F  F </v>
   <v type="logical" >  T  T  T </v>
   <v type="logical" >  T  T  T </v>
   <v type="logical" >  T  T  T </v>
   <v type="logical" >  T  T  T </v>
   <v type="logical" >  T  T  T </v>
   <v type="logical" >  T  T  T </v>
   <v type="logical" >  T  T  T </v>
   <v type="logical" >  T  T  T </v>
   <v type="logical" >  F  F  F </v>
   <v type="logical" >  F  F  F </v>
   <v type="logical" >  F  F  F </v>
   <v type="logical" >  F  F  F </v>
   <v type="logical" >  F  F  F </v>
   <v type="logical" >  F  F  F </v>
   <v type="logical" >  F  F  F </v>
   <v type="logical" >  F  F  F </v>
   <v type="logical" >  F  F  F </v>
   <v type="logical" >  F  F  F </v>
   <v type="logical" >  F  F  F </v>
   <v type="logical" >  F  F  F </v>
   <v type="logical" >  F  F  F </v>
   <v type="logical" >  F  F  F </v>
   <v type="logical" >  F  F  F </v>
   <v type="logical" >  F  F  F </v>
  </varray>
  <nose>
   <v>      -3.00000000       0.00000000       0.00010000       0.00010000 </v>
  </nose>
 </structure>
</modeling>
