 vasp.6.2.1 16May21 (build Nov 15 2021 14:57:28) complex                         
 executed on             LinuxPGI date 2023.07.30  09:01:39
 running on    4 total cores
 distrk:  each k-point on    4 cores,    1 groups
 distr:  one band on NCORE=   1 cores,    4 groups


--------------------------------------------------------------------------------------------------------


 INCAR:
   SYSTEM = PSC
   ISTART = 1
   ICHARG = 1
   PREC = Normal
   ENCUT = 500
   GGA_COMPAT = F
   NELM = 600
   ISYM = 0
   LREAL = Auto
   ISMEAR = 0
   SIGMA = 0.05
   AMIN = 0.01
   BMIX = 0.01
   LVTOT = T
   LWAVE = F
   LDIPOL = T
   IDIPOL = 3
   LVDW = T
   IVDW = 12

 POTCAR:    PAW_PBE H 15Jun2001                   
 POTCAR:    PAW_PBE C 08Apr2002                   
 POTCAR:    PAW_PBE N 08Apr2002                   
 POTCAR:    PAW_PBE I 08Apr2002                   
 POTCAR:    PAW_PBE Pb 08Apr2002                  
 WARNING: For LVTOT=.TRUE., VASP.5.x writes the TOTAL local potential to the
     file LOCPOT. If you want only the Hartree contributions, use LVHAR=.TRUE.
     instead. 

 POTCAR:    PAW_PBE H 15Jun2001                   
   SHA256 =  030f79b5d3ab3cf0e668861823c8fb652ff669f3e15e46930bd03bfd63a607b6 H/POTCAR              
   COPYR  = (c) Copyright 15Jun2001 Georg Kresse                                                    
   COPYR  = This file is part of the software VASP. Any use, copying, and all other rights are regul
   COPYR  = If you do not have a valid VASP license, you may not use, copy or distribute this file. 
   VRHFIN =H: ultrasoft test                                                                        
   LEXCH  = PE                                                                                      
   EATOM  =    12.4884 eV,    0.9179 Ry                                                             
                                                                                                    
   TITEL  = PAW_PBE H 15Jun2001                                                                     
   LULTRA =        F    use ultrasoft PP ?                                                          
   IUNSCR =        0    unscreen: 0-lin 1-nonlin 2-no                                               
   RPACOR =    0.000    partial core radius                                                         
   POMASS =    1.000; ZVAL   =    1.000    mass and valenz                                          
   RCORE  =    1.100    outmost cutoff radius                                                       
   RWIGS  =    0.700; RWIGS  =    0.370    wigner-seitz radius (au A)                               
   ENMAX  =  250.000; ENMIN  =  200.000 eV                                                          
   RCLOC  =    0.701    cutoff for local pot                                                        
   LCOR   =        T    correct aug charges                                                         
   LPAW   =        T    paw PP                                                                      
   EAUG   =  400.000                                                                                
   RMAX   =    1.123    core radius for proj-oper                                                   
   RAUG   =    1.200    factor for augmentation sphere                                              
   RDEP   =    1.112    radius for radial grids                                                     
   RDEPT  =    0.926    core radius for aug-charge                                                  
                                                                                                    
   Atomic configuration                                                                             
    2 entries                                                                                       
     n  l   j            E        occ.                                                              
     1  0  0.50        -6.4927   1.0000                                                             
     2  1  0.50        -3.4015   0.0000                                                             
   Description                                                                                      
     l       E           TYP  RCUT    TYP  RCUT                                                     
     0     -6.4927494     23  1.100                                                                 
     0      6.8029130     23  1.100                                                                 
     1     -4.0817478     23  1.100                                                                 
  local pseudopotential read in
  atomic valenz-charges read in
  non local Contribution for L=            0  read in
    real space projection operators read in
  non local Contribution for L=            0  read in
    real space projection operators read in
  non local Contribution for L=            1  read in
    real space projection operators read in
    PAW grid and wavefunctions read in
 
   number of l-projection  operators is LMAX  =            3
   number of lm-projection operators is LMMAX =            5
 
 POTCAR:    PAW_PBE C 08Apr2002                   
   SHA256 =  253f7b50bb8d59471dbedb8285d89021f4a42ed1a2c5d38a03a736e69125dd95 C/POTCAR              
   COPYR  = (c) Copyright 08Apr2002 Georg Kresse                                                    
   COPYR  = This file is part of the software VASP. Any use, copying, and all other rights are regul
   COPYR  = If you do not have a valid VASP license, you may not use, copy or distribute this file. 
   VRHFIN =C: s2p2                                                                                  
   LEXCH  = PE                                                                                      
   EATOM  =   147.1560 eV,   10.8157 Ry                                                             
                                                                                                    
   TITEL  = PAW_PBE C 08Apr2002                                                                     
   LULTRA =        F    use ultrasoft PP ?                                                          
   IUNSCR =        1    unscreen: 0-lin 1-nonlin 2-no                                               
   RPACOR =    1.200    partial core radius                                                         
   POMASS =   12.011; ZVAL   =    4.000    mass and valenz                                          
   RCORE  =    1.500    outmost cutoff radius                                                       
   RWIGS  =    1.630; RWIGS  =    0.863    wigner-seitz radius (au A)                               
   ENMAX  =  400.000; ENMIN  =  300.000 eV                                                          
   ICORE  =        2    local potential                                                             
   LCOR   =        T    correct aug charges                                                         
   LPAW   =        T    paw PP                                                                      
   EAUG   =  644.873                                                                                
   DEXC   =    0.000                                                                                
   RMAX   =    1.529    core radius for proj-oper                                                   
   RAUG   =    1.300    factor for augmentation sphere                                              
   RDEP   =    1.501    radius for radial grids                                                     
   RDEPT  =    1.300    core radius for aug-charge                                                  
                                                                                                    
   Atomic configuration                                                                             
    4 entries                                                                                       
     n  l   j            E        occ.                                                              
     1  0  0.50      -273.3789   2.0000                                                             
     2  0  0.50       -13.7508   2.0000                                                             
     2  1  0.50        -5.2854   2.0000                                                             
     3  2  1.50        -5.4423   0.0000                                                             
   Description                                                                                      
     l       E           TYP  RCUT    TYP  RCUT                                                     
     0    -13.7508458     23  1.200                                                                 
     0     -8.2022199     23  1.200                                                                 
     1     -5.2854383     23  1.500                                                                 
     1     34.0145650     23  1.500                                                                 
     2     -5.4423304      7  1.500                                                                 
  local pseudopotential read in
  partial core-charges read in
  partial kinetic energy density read in
  atomic valenz-charges read in
  non local Contribution for L=            0  read in
    real space projection operators read in
  non local Contribution for L=            0  read in
    real space projection operators read in
  non local Contribution for L=            1  read in
    real space projection operators read in
  non local Contribution for L=            1  read in
    real space projection operators read in
    PAW grid and wavefunctions read in
 
   number of l-projection  operators is LMAX  =            4
   number of lm-projection operators is LMMAX =            8
 
 POTCAR:    PAW_PBE N 08Apr2002                   
   SHA256 =  e053789ff3a61a86a1b75d8a110fcc91f86041011e7b0817c7c99e4e8a6349d7 N/POTCAR              
   COPYR  = (c) Copyright 08Apr2002 Georg Kresse                                                    
   COPYR  = This file is part of the software VASP. Any use, copying, and all other rights are regul
   COPYR  = If you do not have a valid VASP license, you may not use, copy or distribute this file. 
   VRHFIN =N: s2p3                                                                                  
   LEXCH  = PE                                                                                      
   EATOM  =   264.5486 eV,   19.4438 Ry                                                             
                                                                                                    
   TITEL  = PAW_PBE N 08Apr2002                                                                     
   LULTRA =        F    use ultrasoft PP ?                                                          
   IUNSCR =        1    unscreen: 0-lin 1-nonlin 2-no                                               
   RPACOR =    1.200    partial core radius                                                         
   POMASS =   14.001; ZVAL   =    5.000    mass and valenz                                          
   RCORE  =    1.500    outmost cutoff radius                                                       
   RWIGS  =    1.400; RWIGS  =    0.741    wigner-seitz radius (au A)                               
   ENMAX  =  400.000; ENMIN  =  300.000 eV                                                          
   ICORE  =        2    local potential                                                             
   LCOR   =        T    correct aug charges                                                         
   LPAW   =        T    paw PP                                                                      
   EAUG   =  627.112                                                                                
   DEXC   =    0.000                                                                                
   RMAX   =    1.529    core radius for proj-oper                                                   
   RAUG   =    1.300    factor for augmentation sphere                                              
   RDEP   =    1.514    radius for radial grids                                                     
   RDEPT  =    1.338    core radius for aug-charge                                                  
                                                                                                    
   Atomic configuration                                                                             
    4 entries                                                                                       
     n  l   j            E        occ.                                                              
     1  0  0.50      -384.7179   2.0000                                                             
     2  0  0.50       -18.5828   2.0000                                                             
     2  1  0.50        -7.0898   3.0000                                                             
     3  2  1.50        -6.8029   0.0000                                                             
   Description                                                                                      
     l       E           TYP  RCUT    TYP  RCUT                                                     
     0    -18.5828119     23  1.200                                                                 
     0    -13.5018863     23  1.200                                                                 
     1     -7.0897853     23  1.500                                                                 
     1      9.5240782     23  1.500                                                                 
     2     -6.8029130      7  1.500                                                                 
  local pseudopotential read in
  partial core-charges read in
  partial kinetic energy density read in
  atomic valenz-charges read in
  non local Contribution for L=            0  read in
    real space projection operators read in
  non local Contribution for L=            0  read in
    real space projection operators read in
  non local Contribution for L=            1  read in
    real space projection operators read in
  non local Contribution for L=            1  read in
    real space projection operators read in
    PAW grid and wavefunctions read in
 
   number of l-projection  operators is LMAX  =            4
   number of lm-projection operators is LMMAX =            8
 
 POTCAR:    PAW_PBE I 08Apr2002                   
   SHA256 =  e40f3f59b681c1fc3e3091736183c4589116986673d2b852a5012aec72758799 I/POTCAR              
   COPYR  = (c) Copyright 08Apr2002 Georg Kresse                                                    
   COPYR  = This file is part of the software VASP. Any use, copying, and all other rights are regul
   COPYR  = If you do not have a valid VASP license, you may not use, copy or distribute this file. 
   VRHFIN =I : s2p5                                                                                 
   LEXCH  = PE                                                                                      
   EATOM  =   315.8678 eV,   23.2156 Ry                                                             
                                                                                                    
   TITEL  = PAW_PBE I 08Apr2002                                                                     
   LULTRA =        F    use ultrasoft PP ?                                                          
   IUNSCR =        1    unscreen: 0-lin 1-nonlin 2-no                                               
   RPACOR =    2.200    partial core radius                                                         
   POMASS =  126.904; ZVAL   =    7.000    mass and valenz                                          
   RCORE  =    2.300    outmost cutoff radius                                                       
   RWIGS  =    2.810; RWIGS  =    1.487    wigner-seitz radius (au A)                               
   ENMAX  =  175.647; ENMIN  =  131.735 eV                                                          
   ICORE  =        3    local potential                                                             
   LCOR   =        T    correct aug charges                                                         
   LPAW   =        T    paw PP                                                                      
   EAUG   =  370.139                                                                                
   DEXC   =    0.000                                                                                
   RMAX   =    2.359    core radius for proj-oper                                                   
   RAUG   =    1.300    factor for augmentation sphere                                              
   RDEP   =    2.392    radius for radial grids                                                     
   RDEPT  =    2.170    core radius for aug-charge                                                  
                                                                                                    
   Atomic configuration                                                                             
   13 entries                                                                                       
     n  l   j            E        occ.                                                              
     1  0  0.50    -32976.3739   2.0000                                                             
     2  0  0.50     -5094.5933   2.0000                                                             
     2  1  1.50     -4572.0131   6.0000                                                             
     3  0  0.50     -1028.2813   2.0000                                                             
     3  1  1.50      -859.0250   6.0000                                                             
     3  2  2.50      -605.7620  10.0000                                                             
     4  0  0.50      -180.5540   2.0000                                                             
     4  1  1.50      -127.5306   6.0000                                                             
     4  2  2.50       -50.2720  10.0000                                                             
     5  0  0.50       -17.4058   2.0000                                                             
     5  1  0.50        -7.0851   5.0000                                                             
     5  2  1.50        -7.0750   0.0000                                                             
     4  3  2.50        -7.0750   0.0000                                                             
   Description                                                                                      
     l       E           TYP  RCUT    TYP  RCUT                                                     
     0    -17.4058016     23  2.300                                                                 
     0    -18.7663842     23  2.300                                                                 
     1     -7.0850686     23  2.300                                                                 
     1     -4.2150896     23  2.300                                                                 
     2     -7.0750295     23  2.300                                                                 
     3     -1.3605826     23  2.300                                                                 
  local pseudopotential read in
  partial core-charges read in
  partial kinetic energy density read in
  atomic valenz-charges read in
  non local Contribution for L=            0  read in
    real space projection operators read in
  non local Contribution for L=            0  read in
    real space projection operators read in
  non local Contribution for L=            1  read in
    real space projection operators read in
  non local Contribution for L=            1  read in
    real space projection operators read in
  non local Contribution for L=            2  read in
    real space projection operators read in
    PAW grid and wavefunctions read in
 
   number of l-projection  operators is LMAX  =            5
   number of lm-projection operators is LMMAX =           13
 
 POTCAR:    PAW_PBE Pb 08Apr2002                  
   SHA256 =  797118a27cf1bcd06b9881c67a26cdde129e3cd1a551dd4a281f9681ce847303 Pb/POTCAR             
   COPYR  = (c) Copyright 08Apr2002 Georg Kresse                                                    
   COPYR  = This file is part of the software VASP. Any use, copying, and all other rights are regul
   COPYR  = If you do not have a valid VASP license, you may not use, copy or distribute this file. 
   VRHFIN =Pb:                                                                                      
   LEXCH  = PE                                                                                      
   EATOM  =    96.9868 eV,    7.1283 Ry                                                             
                                                                                                    
   TITEL  = PAW_PBE Pb 08Apr2002                                                                    
   LULTRA =        F    use ultrasoft PP ?                                                          
   IUNSCR =        1    unscreen: 0-lin 1-nonlin 2-no                                               
   RPACOR =    2.200    partial core radius                                                         
   POMASS =  207.200; ZVAL   =    4.000    mass and valenz                                          
   RCORE  =    3.100    outmost cutoff radius                                                       
   RWIGS  =    3.260; RWIGS  =    1.725    wigner-seitz radius (au A)                               
   ENMAX  =   97.973; ENMIN  =   73.480 eV                                                          
   ICORE  =        3    local potential                                                             
   LCOR   =        T    correct aug charges                                                         
   LPAW   =        T    paw PP                                                                      
   EAUG   =  234.873                                                                                
   DEXC   =    0.000                                                                                
   RMAX   =    3.158    core radius for proj-oper                                                   
   RAUG   =    1.300    factor for augmentation sphere                                              
   RDEP   =    3.202    radius for radial grids                                                     
   RDEPT  =    2.659    core radius for aug-charge                                                  
                                                                                                    
   Atomic configuration                                                                             
   17 entries                                                                                       
     n  l   j            E        occ.                                                              
     1  0  0.50    -88091.8466   2.0000                                                             
     2  0  0.50    -15753.4197   2.0000                                                             
     2  1  1.50    -13508.1797   6.0000                                                             
     3  0  0.50     -3781.7194   2.0000                                                             
     3  1  1.50     -3138.2529   6.0000                                                             
     3  2  2.50     -2483.2977  10.0000                                                             
     4  0  0.50      -856.2895   2.0000                                                             
     4  1  1.50      -645.4943   6.0000                                                             
     4  2  2.50      -401.8768  10.0000                                                             
     4  3  3.50      -132.9059  14.0000                                                             
     5  0  0.50      -144.0950   2.0000                                                             
     5  1  1.50       -85.7879   6.0000                                                             
     5  2  2.50       -21.1769  10.0000                                                             
     6  0  0.50       -12.0372   2.0000                                                             
     6  1  1.50        -3.4971   2.0000                                                             
     6  2  2.50        -1.3606   0.0000                                                             
     5  3  2.50        -2.7212   0.0000                                                             
   Description                                                                                      
     l       E           TYP  RCUT    TYP  RCUT                                                     
     0    -12.0371566     23  3.100                                                                 
     0    -13.3977392     23  3.100                                                                 
     1     -3.4971341     23  3.100                                                                 
     1     -5.4423304     23  3.100                                                                 
     2     -1.3605826     23  3.100                                                                 
     3     -1.3605826     23  3.100                                                                 
  local pseudopotential read in
  partial core-charges read in
  partial kinetic energy density read in
  atomic valenz-charges read in
  non local Contribution for L=            0  read in
    real space projection operators read in
  non local Contribution for L=            0  read in
    real space projection operators read in
  non local Contribution for L=            1  read in
    real space projection operators read in
  non local Contribution for L=            1  read in
    real space projection operators read in
  non local Contribution for L=            2  read in
    real space projection operators read in
    PAW grid and wavefunctions read in
 
   number of l-projection  operators is LMAX  =            5
   number of lm-projection operators is LMMAX =           13
 
 Optimization of the real space projectors (new method)

 maximal supplied QI-value         = 34.20
 optimisation between [QCUT,QGAM] = [ 11.29, 22.57] = [ 35.68,142.71] Ry 
 Optimized for a Real-space Cutoff    1.16 Angstroem

   l    n(q)    QCUT    max X(q) W(low)/X(q) W(high)/X(q)  e(spline) 
   0      8    11.287    19.460    0.40E-03    0.73E-03    0.16E-06
   0      8    11.287    12.209    0.38E-03    0.70E-03    0.15E-06
   1      7    11.287     4.655    0.22E-03    0.25E-04    0.22E-06
 Optimization of the real space projectors (new method)

 maximal supplied QI-value         = 25.13
 optimisation between [QCUT,QGAM] = [ 11.31, 22.87] = [ 35.82,146.48] Ry 
 Optimized for a Real-space Cutoff    1.00 Angstroem

   l    n(q)    QCUT    max X(q) W(low)/X(q) W(high)/X(q)  e(spline) 
   0      7    11.310   115.676    0.43E-03    0.13E-02    0.19E-06
   0      7    11.310    87.132    0.43E-03    0.13E-02    0.18E-06
   1      6    11.310     4.429    0.42E-03    0.74E-03    0.11E-06
   1      6    11.310     2.733    0.34E-03    0.55E-03    0.92E-07
 Optimization of the real space projectors (new method)

 maximal supplied QI-value         = 25.13
 optimisation between [QCUT,QGAM] = [ 11.31, 22.87] = [ 35.82,146.48] Ry 
 Optimized for a Real-space Cutoff    1.27 Angstroem

   l    n(q)    QCUT    max X(q) W(low)/X(q) W(high)/X(q)  e(spline) 
   0      9    11.310    79.467    0.75E-04    0.16E-03    0.36E-06
   0      9    11.310    66.151    0.74E-04    0.16E-03    0.36E-06
   1      8    11.310    17.416    0.35E-03    0.12E-03    0.95E-06
   1      8    11.310    12.382    0.37E-03    0.13E-03    0.98E-06
 Optimization of the real space projectors (new method)

 maximal supplied QI-value         = 16.25
 optimisation between [QCUT,QGAM] = [ 11.38, 22.75] = [ 36.24,144.96] Ry 
 Optimized for a Real-space Cutoff    1.31 Angstroem

   l    n(q)    QCUT    max X(q) W(low)/X(q) W(high)/X(q)  e(spline) 
   0      9    11.376   194.483    0.24E-03    0.23E-03    0.67E-07
   0      9    11.376   190.334    0.23E-03    0.22E-03    0.65E-07
   1      8    11.376   116.687    0.25E-03    0.63E-04    0.16E-06
   1      8    11.376    88.696    0.25E-03    0.61E-04    0.16E-06
   2      8    11.376     4.877    0.17E-03    0.14E-03    0.29E-07
 Optimization of the real space projectors (new method)

 maximal supplied QI-value         = 12.09
 optimisation between [QCUT,QGAM] = [ 11.37, 22.86] = [ 36.19,146.31] Ry 
 Optimized for a Real-space Cutoff    1.66 Angstroem

   l    n(q)    QCUT    max X(q) W(low)/X(q) W(high)/X(q)  e(spline) 
   0     11    11.369   135.111    0.12E-03    0.69E-04    0.19E-05
   0     11    11.369   146.850    0.11E-03    0.65E-04    0.18E-05
   1     11    11.369   148.016    0.17E-03    0.32E-03    0.89E-06
   1     11    11.369   122.989    0.17E-03    0.32E-03    0.91E-06
   2     10    11.369     8.916    0.12E-03    0.45E-04    0.33E-06
  PAW_PBE H 15Jun2001                   :
 energy of atom  1       EATOM=  -12.4884
 kinetic energy error for atom=    0.0020 (will be added to EATOM!!)
  PAW_PBE C 08Apr2002                   :
 energy of atom  2       EATOM= -147.1560
 kinetic energy error for atom=    0.0076 (will be added to EATOM!!)
  PAW_PBE N 08Apr2002                   :
 energy of atom  3       EATOM= -264.5486
 kinetic energy error for atom=    0.0138 (will be added to EATOM!!)
  PAW_PBE I 08Apr2002                   :
 energy of atom  4       EATOM= -315.8678
 kinetic energy error for atom=    0.0009 (will be added to EATOM!!)
  PAW_PBE Pb 08Apr2002                  :
 energy of atom  5       EATOM=  -96.9868
 kinetic energy error for atom=    0.0000 (will be added to EATOM!!)
 
 
 POSCAR:  H  C  N  I Pb
  positions in cartesian coordinates
  No initial velocities read in
 exchange correlation table for  LEXCH =        8
   RHO(1)=    0.500       N(1)  =     2000
   RHO(2)=  100.500       N(2)  =     4000
 


--------------------------------------------------------------------------------------------------------


 ion  position               nearest neighbor table
   1  0.445  0.295  0.582- 187 1.00
   2  0.438  0.791  0.581- 188 0.97
   3  0.943  0.296  0.584- 189 1.04
   4  0.954  0.800  0.581- 190 0.98
   5  0.301  0.051  0.581- 194 1.06
   6  0.303  0.566  0.580- 195 1.06
   7  0.791  0.062  0.581- 196 1.06
   8  0.080  0.173  0.558- 183 0.98
   9  0.089  0.679  0.556- 184 1.02
  10  0.591  0.186  0.558- 185 1.00
  11  0.588  0.691  0.557- 186 1.03
  12  0.339  0.064  0.557- 194 0.96
  13  0.319  0.589  0.554- 195 0.96
  14  0.825  0.083  0.557- 196 0.96
  15  0.059  0.206  0.584- 183 1.03
  16  0.047  0.702  0.581- 184 0.98
  17  0.552  0.205  0.582- 185 1.02
  18  0.546  0.705  0.583- 186 1.05
  19  0.214  0.453  0.585- 191 1.06
  20  0.187  0.961  0.581- 192 1.06
  21  0.700  0.949  0.581- 193 1.06
  22  0.413  0.325  0.557- 187 1.03
  23  0.414  0.829  0.556- 188 1.03
  24  0.908  0.311  0.558- 189 1.01
  25  0.931  0.841  0.556- 190 1.02
  26  0.183  0.416  0.561- 191 0.95
  27  0.165  0.928  0.556- 192 0.96
  28  0.687  0.910  0.557- 193 0.96
  29  0.503  0.257  0.538- 146 1.09
  30  0.510  0.764  0.539- 147 1.08
  31  0.985  0.231  0.542- 144 1.04
  32  0.018  0.767  0.538- 145 1.12
  33  0.245  0.496  0.540- 148 1.09
  34  0.256  0.988  0.538- 149 1.10
  35  0.765  0.991  0.539- 150 1.10
  36  0.445  0.303  0.673- 205 0.98
  37  0.445  0.797  0.675- 206 0.97
  38  0.943  0.306  0.671- 207 1.01
  39  0.946  0.800  0.675- 208 1.04
  40  0.299  0.052  0.675- 209 0.98
  41  0.305  0.550  0.674- 210 0.97
  42  0.810  0.057  0.673- 211 0.97
  43  0.797  0.555  0.673- 212 1.02
  44  0.077  0.168  0.651- 197 1.08
  45  0.081  0.675  0.649- 198 1.08
  46  0.579  0.172  0.650- 199 1.08
  47  0.574  0.674  0.649- 200 0.98
  48  0.169  0.424  0.650- 201 1.10
  49  0.175  0.914  0.650- 202 1.10
  50  0.673  0.411  0.656- 203 0.95
  51  0.670  0.926  0.652- 204 1.10
  52  0.040  0.202  0.675- 197 0.99
  53  0.050  0.702  0.674- 198 1.00
  54  0.542  0.199  0.674- 199 0.99
  55  0.547  0.699  0.675- 200 1.02
  56  0.202  0.453  0.675- 201 0.98
  57  0.201  0.948  0.675- 202 0.98
  58  0.704  0.447  0.679- 203 1.04
  59  0.706  0.961  0.676- 204 0.98
  60  0.423  0.337  0.647- 205 1.05
  61  0.416  0.829  0.650- 206 1.04
  62  0.922  0.328  0.645- 207 0.98
  63  0.915  0.829  0.650- 208 1.01
  64  0.330  0.080  0.649- 209 1.10
  65  0.334  0.579  0.648- 210 1.04
  66  0.832  0.079  0.647- 211 1.01
  67  0.814  0.579  0.646- 212 1.04
  68  0.004  0.246  0.631- 151 1.09
  69  0.997  0.753  0.631- 152 1.14
  70  0.507  0.254  0.631- 153 1.13
  71  0.497  0.753  0.631- 154 1.13
  72  0.254  0.996  0.632- 156 1.14
  73  0.251  0.501  0.631- 155 1.13
  74  0.749  1.000  0.632- 158 1.13
  75  0.732  0.485  0.634- 157 1.10
  76  0.449  0.301  0.769- 221 1.02
  77  0.449  0.801  0.769- 222 1.02
  78  0.949  0.301  0.769- 223 1.02
  79  0.949  0.801  0.769- 224 1.02
  80  0.301  0.051  0.769- 225 1.02
  81  0.301  0.551  0.769- 226 1.02
  82  0.801  0.051  0.769- 227 1.02
  83  0.801  0.551  0.769- 228 1.02
  84  0.079  0.171  0.743- 213 1.02
  85  0.079  0.671  0.743- 214 1.02
  86  0.579  0.171  0.743- 215 1.02
  87  0.579  0.671  0.743- 216 1.02
  88  0.171  0.421  0.743- 217 1.02
  89  0.171  0.921  0.743- 218 1.02
  90  0.671  0.421  0.743- 219 1.02
  91  0.671  0.921  0.743- 220 1.02
  92  0.051  0.199  0.769- 213 1.02
  93  0.051  0.699  0.769- 214 1.02
  94  0.551  0.199  0.769- 215 1.02
  95  0.551  0.699  0.769- 216 1.02
  96  0.199  0.449  0.769- 217 1.02
  97  0.199  0.949  0.769- 218 1.02
  98  0.699  0.449  0.769- 219 1.02
  99  0.699  0.949  0.769- 220 1.02
 100  0.421  0.329  0.743- 221 1.02
 101  0.421  0.829  0.743- 222 1.02
 102  0.921  0.329  0.743- 223 1.02
 103  0.921  0.829  0.743- 224 1.02
 104  0.329  0.079  0.743- 225 1.02
 105  0.329  0.579  0.743- 226 1.02
 106  0.829  0.079  0.743- 227 1.02
 107  0.829  0.579  0.743- 228 1.02
 108  0.000  0.250  0.726- 161 1.09
 109  0.000  0.750  0.726- 162 1.09
 110  0.500  0.250  0.726- 159 1.09
 111  0.500  0.750  0.726- 160 1.09
 112  0.250  0.000  0.726- 163 1.09
 113  0.250  0.500  0.726- 164 1.09
 114  0.750  0.000  0.726- 165 1.09
 115  0.750  0.500  0.726- 166 1.09
 116  0.785  0.532  0.527- 173 1.04
 117  0.873  0.523  0.537- 173 1.09
 118  0.780  0.633  0.543- 174 1.10
 119  0.781  0.643  0.572- 174 1.10
 120  0.690  0.480  0.565- 175 1.07
 121  0.682  0.574  0.570- 175 1.10
 122  0.804  0.440  0.575- 176 1.08
 123  0.872  0.507  0.580- 176 1.10
 124  0.853  0.397  0.550- 177 1.08
 125  0.760  0.398  0.543- 177 1.10
 126  0.782  0.406  0.505- 178 1.07
 127  0.871  0.441  0.508- 178 1.05
 128  0.914  0.641  0.541- 179 1.10
 129  0.923  0.604  0.568- 179 1.08
 130  0.886  0.691  0.566- 179 1.08
 131  0.607  0.553  0.541- 180 1.06
 132  0.669  0.501  0.526- 180 1.09
 133  0.685  0.598  0.530- 180 1.07
 134  0.725  0.480  0.601- 181 1.14
 135  0.744  0.576  0.596- 181 1.07
 136  0.806  0.529  0.611- 181 1.06
 137  0.834  0.281  0.521- 182 1.07
 138  0.841  0.300  0.495- 182 1.10
 139  0.949  0.197  0.501- 168 1.07
 140  0.966  0.418  0.523- 169 1.07
 141  0.084  0.182  0.506- 170 1.07
 142  0.100  0.405  0.529- 171 1.09
 143  0.161  0.283  0.520- 172 1.11
 144  0.992  0.239  0.558-  31 1.04 189 1.31 183 1.32
 145  0.012  0.762  0.555-  32 1.12 184 1.33 190 1.33
 146  0.503  0.253  0.556-  29 1.09 185 1.30 187 1.38
 147  0.503  0.758  0.556-  30 1.08 186 1.28 188 1.38
 148  0.250  0.501  0.557-  33 1.09 191 1.29 195 1.35
 149  0.253  0.994  0.556-  34 1.10 194 1.32 192 1.32
 150  0.757  0.995  0.556-  35 1.10 193 1.31 196 1.33
 151  0.999  0.248  0.648-  68 1.09 197 1.25 207 1.35
 152  0.999  0.751  0.650-  69 1.14 198 1.25 208 1.34
 153  0.502  0.253  0.649-  70 1.13 199 1.25 205 1.37
 154  0.498  0.750  0.649-  71 1.13 200 1.28 206 1.37
 155  0.250  0.500  0.650-  73 1.13 201 1.26 210 1.37
 156  0.251  0.996  0.650-  72 1.14 202 1.26 209 1.30
 157  0.743  0.494  0.651-  75 1.10 212 1.26 203 1.36
 158  0.752  0.002  0.650-  74 1.13 204 1.26 211 1.37
 159  0.500  0.250  0.743- 110 1.09 221 1.31 215 1.31
 160  0.500  0.750  0.743- 111 1.09 222 1.31 216 1.31
 161  1.000  0.250  0.743- 108 1.09 223 1.31 213 1.31
 162  1.000  0.750  0.743- 109 1.09 224 1.31 214 1.31
 163  0.250  0.000  0.743- 112 1.09 225 1.31 218 1.31
 164  0.250  0.500  0.743- 113 1.09 226 1.31 217 1.31
 165  0.750  0.000  0.743- 114 1.09 227 1.31 220 1.31
 166  0.750  0.500  0.743- 115 1.09 228 1.31 219 1.31
 167  0.947  0.309  0.511- 168 1.38 169 1.40 182 1.59
 168  0.980  0.243  0.506- 139 1.07 167 1.38 170 1.44
 169  0.992  0.367  0.519- 140 1.07 171 1.39 167 1.40
 170  0.059  0.234  0.509- 141 1.07 172 1.37 168 1.44
 171  0.068  0.360  0.522- 142 1.09 169 1.39 172 1.41
 172  0.101  0.292  0.517- 143 1.11 170 1.37 171 1.41
 173  0.815  0.507  0.539- 116 1.04 117 1.09 229 1.47 177 1.59
 174  0.807  0.615  0.558- 119 1.10 118 1.10 229 1.51 179 1.54
 175  0.702  0.534  0.559- 120 1.07 121 1.10 229 1.46 180 1.51
 176  0.812  0.497  0.579- 122 1.08 123 1.10 181 1.49 229 1.53
 177  0.815  0.419  0.538- 124 1.08 125 1.10 178 1.54 173 1.59
 178  0.832  0.403  0.514- 127 1.05 126 1.07 177 1.54 182 1.62
 179  0.889  0.638  0.557- 129 1.08 130 1.08 128 1.10 174 1.54
 180  0.665  0.548  0.537- 131 1.06 133 1.07 132 1.09 175 1.51
 181  0.770  0.523  0.598- 136 1.06 135 1.07 134 1.14 176 1.49
 182  0.860  0.318  0.510- 137 1.07 138 1.10 167 1.59 178 1.62
 183  0.046  0.203  0.567-   8 0.98  15 1.03 144 1.32
 184  0.052  0.711  0.565-  16 0.98   9 1.02 145 1.33
 185  0.550  0.210  0.566-  10 1.00  17 1.02 146 1.30
 186  0.547  0.715  0.566-  11 1.03  18 1.05 147 1.28
 187  0.449  0.294  0.566-   1 1.00  22 1.03 146 1.38
 188  0.445  0.795  0.566-   2 0.97  23 1.03 147 1.38
 189  0.945  0.284  0.567-  24 1.01   3 1.04 144 1.31
 190  0.961  0.804  0.565-   4 0.98  25 1.02 145 1.33
 191  0.213  0.453  0.568-  26 0.95  19 1.06 148 1.29
 192  0.197  0.958  0.565-  27 0.96  20 1.06 149 1.32
 193  0.711  0.948  0.565-  28 0.96  21 1.06 150 1.31
 194  0.301  0.040  0.565-  12 0.96   5 1.06 149 1.32
 195  0.294  0.556  0.564-  13 0.96   6 1.06 148 1.35
 196  0.794  0.051  0.565-  14 0.96   7 1.06 150 1.33
 197  0.040  0.206  0.659-  52 0.99  44 1.08 151 1.25
 198  0.044  0.709  0.658-  53 1.00  45 1.08 152 1.25
 199  0.541  0.207  0.659-  54 0.99  46 1.08 153 1.25
 200  0.544  0.706  0.658-  47 0.98  55 1.02 154 1.28
 201  0.207  0.458  0.659-  56 0.98  48 1.10 155 1.26
 202  0.208  0.952  0.659-  57 0.98  49 1.10 156 1.26
 203  0.703  0.446  0.663-  50 0.95  58 1.04 157 1.36
 204  0.708  0.963  0.661-  59 0.98  51 1.10 158 1.26
 205  0.452  0.301  0.657-  36 0.98  60 1.05 153 1.37
 206  0.449  0.796  0.659-  37 0.97  61 1.04 154 1.37
 207  0.950  0.299  0.655-  62 0.98  38 1.01 151 1.35
 208  0.950  0.797  0.659-  63 1.01  39 1.04 152 1.34
 209  0.294  0.044  0.659-  40 0.98  64 1.10 156 1.30
 210  0.301  0.547  0.659-  41 0.97  65 1.04 155 1.37
 211  0.803  0.050  0.658-  42 0.97  66 1.01 158 1.37
 212  0.788  0.544  0.657-  43 1.02  67 1.04 157 1.26
 213  0.046  0.204  0.753-  92 1.02  84 1.02 161 1.31
 214  0.046  0.704  0.753-  93 1.02  85 1.02 162 1.31
 215  0.546  0.204  0.753-  94 1.02  86 1.02 159 1.31
 216  0.546  0.704  0.753-  95 1.02  87 1.02 160 1.31
 217  0.204  0.454  0.753-  96 1.02  88 1.02 164 1.31
 218  0.204  0.954  0.753-  97 1.02  89 1.02 163 1.31
 219  0.704  0.454  0.753-  98 1.02  90 1.02 166 1.31
 220  0.704  0.954  0.753-  99 1.02  91 1.02 165 1.31
 221  0.454  0.296  0.753-  76 1.02 100 1.02 159 1.31
 222  0.454  0.796  0.753-  77 1.02 101 1.02 160 1.31
 223  0.954  0.296  0.753-  78 1.02 102 1.02 161 1.31
 224  0.954  0.796  0.753-  79 1.02 103 1.02 162 1.31
 225  0.296  0.046  0.753-  80 1.02 104 1.02 163 1.31
 226  0.296  0.546  0.753-  81 1.02 105 1.02 164 1.31
 227  0.796  0.046  0.753-  82 1.02 106 1.02 165 1.31
 228  0.796  0.546  0.753-  83 1.02 107 1.02 166 1.31
 229  0.783  0.535  0.559- 175 1.46 173 1.47 174 1.51 176 1.53
 230  0.498  0.003  0.553- 304 3.15
 231  0.487  0.487  0.553- 305 3.13
 232  0.997  1.000  0.552- 302 3.19
 233  0.012  0.501  0.555- 303 3.11
 234  0.261  0.247  0.554- 306 3.11
 235  0.252  0.753  0.552- 307 3.12
 236  0.739  0.238  0.555- 308 3.10
 237  0.737  0.763  0.549- 309 3.49
 238  0.998  0.998  0.654- 310 3.16 302 3.19
 239  0.000  0.497  0.655- 311 3.12 303 3.12
 240  0.498  0.998  0.655- 312 3.13 304 3.22
 241  0.498  0.498  0.654- 313 3.17 305 3.18
 242  0.251  0.247  0.654- 314 3.15 306 3.17
 243  0.250  0.748  0.654- 315 3.20 307 3.21
 244  0.748  0.247  0.655- 308 3.14 316 3.14
 245  0.750  0.750  0.655- 317 3.14 309 3.15
 246  0.145  0.104  0.608- 306 3.23 302 3.24
 247  0.146  0.609  0.608- 307 3.14 303 3.16
 248  0.646  0.109  0.608- 308 3.20 304 3.36
 249  0.630  0.620  0.611- 305 3.23 309 3.33
 250  0.359  0.395  0.608- 305 3.19 306 3.31
 251  0.358  0.895  0.608- 304 3.16 307 3.32
 252  0.870  0.380  0.611- 308 3.20 303 3.34
 253  0.858  0.895  0.608- 309 3.17 302 3.19
 254  0.110  0.354  0.607- 306 3.14 303 3.20
 255  0.104  0.858  0.608- 302 3.15 307 3.26
 256  0.612  0.364  0.606- 305 3.22 308 3.29
 257  0.605  0.860  0.608- 304 3.17 309 3.23
 258  0.395  0.145  0.608- 304 3.25 306 3.25
 259  0.395  0.641  0.608- 305 3.15 307 3.32
 260  0.890  0.143  0.608- 308 3.15 302 3.32
 261  0.904  0.655  0.611- 309 3.37 303 3.41
 262  0.000  0.000  0.755- 310 3.13 318 3.27
 263  0.000  0.500  0.755- 311 3.13 319 3.27
 264  0.500  0.000  0.755- 312 3.13 320 3.27
 265  0.500  0.500  0.755- 313 3.13 321 3.27
 266  0.250  0.250  0.755- 314 3.13 322 3.27
 267  0.250  0.750  0.755- 315 3.13 323 3.27
 268  0.750  0.250  0.755- 316 3.13 324 3.27
 269  0.750  0.750  0.755- 317 3.13 325 3.27
 270  0.136  0.114  0.705- 310 3.20 314 3.20
 271  0.136  0.614  0.705- 311 3.20 315 3.20
 272  0.636  0.114  0.705- 312 3.20 316 3.20
 273  0.636  0.614  0.705- 313 3.20 317 3.20
 274  0.364  0.386  0.705- 313 3.20 314 3.20
 275  0.364  0.886  0.705- 312 3.20 315 3.20
 276  0.864  0.386  0.705- 311 3.20 316 3.20
 277  0.864  0.886  0.705- 310 3.20 317 3.20
 278  0.114  0.364  0.705- 314 3.21 311 3.21
 279  0.114  0.864  0.705- 315 3.21 310 3.21
 280  0.614  0.364  0.705- 316 3.21 313 3.21
 281  0.614  0.864  0.705- 317 3.21 312 3.21
 282  0.386  0.136  0.705- 314 3.21 312 3.21
 283  0.386  0.636  0.705- 315 3.21 313 3.21
 284  0.886  0.136  0.705- 316 3.21 310 3.21
 285  0.886  0.636  0.705- 317 3.21 311 3.21
 286  0.135  0.115  0.801- 318 3.22 322 3.22
 287  0.135  0.615  0.801- 319 3.22 323 3.22
 288  0.635  0.115  0.801- 320 3.22 324 3.22
 289  0.635  0.615  0.801- 321 3.22 325 3.22
 290  0.365  0.385  0.801- 321 3.22 322 3.22
 291  0.365  0.885  0.801- 320 3.22 323 3.22
 292  0.865  0.385  0.801- 319 3.22 324 3.22
 293  0.865  0.885  0.801- 318 3.22 325 3.22
 294  0.115  0.365  0.801- 319 3.23 322 3.23
 295  0.115  0.865  0.801- 318 3.23 323 3.23
 296  0.615  0.365  0.801- 321 3.23 324 3.23
 297  0.615  0.865  0.801- 320 3.23 325 3.23
 298  0.385  0.135  0.801- 320 3.23 322 3.23
 299  0.385  0.635  0.801- 321 3.23 323 3.23
 300  0.885  0.135  0.801- 318 3.23 324 3.23
 301  0.885  0.635  0.801- 319 3.23 325 3.23
 302  0.001  0.998  0.603- 255 3.15 253 3.19 232 3.19 238 3.19 246 3.24 260 3.32
 303  0.010  0.500  0.605- 233 3.11 239 3.12 247 3.16 254 3.20 252 3.34 261 3.41
 304  0.498  0.998  0.603- 230 3.15 251 3.16 257 3.17 240 3.22 258 3.25 248 3.36
 305  0.498  0.502  0.603- 231 3.13 259 3.15 241 3.18 250 3.19 256 3.22 249 3.23
 306  0.249  0.249  0.604- 234 3.11 254 3.14 242 3.17 246 3.23 258 3.25 250 3.31
 307  0.247  0.749  0.602- 235 3.12 247 3.14 243 3.21 255 3.26 251 3.32 259 3.32
 308  0.753  0.249  0.604- 236 3.10 244 3.14 260 3.15 248 3.20 252 3.20 256 3.29
 309  0.751  0.757  0.604- 245 3.15 253 3.17 257 3.23 249 3.33 261 3.37 237 3.49
 310  0.000  0.000  0.705- 262 3.13 238 3.16 270 3.20 277 3.20 279 3.21 284 3.21
 311  0.000  0.500  0.705- 239 3.12 263 3.13 271 3.20 276 3.20 278 3.21 285 3.21
 312  0.500  0.000  0.705- 264 3.13 240 3.13 272 3.20 275 3.20 281 3.21 282 3.21
 313  0.500  0.500  0.705- 265 3.13 241 3.17 273 3.20 274 3.20 280 3.21 283 3.21
 314  0.250  0.250  0.705- 266 3.13 242 3.15 270 3.20 274 3.20 282 3.21 278 3.21
 315  0.250  0.750  0.705- 267 3.13 243 3.20 271 3.20 275 3.20 283 3.21 279 3.21
 316  0.750  0.250  0.705- 268 3.13 244 3.14 272 3.20 276 3.20 284 3.21 280 3.21
 317  0.750  0.750  0.705- 269 3.13 245 3.14 273 3.20 277 3.20 285 3.21 281 3.21
 318  0.000  0.000  0.807- 286 3.22 293 3.22 300 3.23 295 3.23 262 3.27
 319  0.000  0.500  0.807- 287 3.22 292 3.22 301 3.23 294 3.23 263 3.27
 320  0.500  0.000  0.807- 288 3.22 291 3.22 298 3.23 297 3.23 264 3.27
 321  0.500  0.500  0.807- 289 3.22 290 3.22 299 3.23 296 3.23 265 3.27
 322  0.250  0.250  0.807- 290 3.22 286 3.22 294 3.23 298 3.23 266 3.27
 323  0.250  0.750  0.807- 291 3.22 287 3.22 299 3.23 295 3.23 267 3.27
 324  0.750  0.250  0.807- 292 3.22 288 3.22 296 3.23 300 3.23 268 3.27
 325  0.750  0.750  0.807- 293 3.22 289 3.22 297 3.23 301 3.23 269 3.27
 

IMPORTANT INFORMATION: All symmetrisations will be switched off!
NOSYMM: (Re-)initialisation of all symmetry stuff for point group C_1.


----------------------------------------------------------------------------------------

                                     Primitive cell                                     

  volume of cell :   20385.2105

  direct lattice vectors                    reciprocal lattice vectors
    18.060800552  0.000000000  0.000000000     0.055368531  0.000015077 -0.000000000
    -0.004918649 18.062799454  0.000000000     0.000000000  0.055362404  0.000000000
     0.000000000  0.000000000 62.487499237     0.000000000 -0.000000000  0.016003201

  length of vectors
    18.060800552 18.062800123 62.487499237     0.055368533  0.055362404  0.016003201

  position of ions in fractional coordinates (direct lattice)
     0.444801442  0.295482053  0.582085296
     0.437602485  0.790728174  0.581111041
     0.943218738  0.296174363  0.583589442
     0.953778876  0.800125532  0.580651477
     0.300760606  0.050614109  0.581432822
     0.303344211  0.566191477  0.580307902
     0.790632971  0.061784703  0.581375010
     0.079827669  0.172976296  0.558410334
     0.088602243  0.679405644  0.556487830
     0.590825215  0.185748100  0.557511167
     0.588098506  0.690877000  0.557005878
     0.339006313  0.064162151  0.556630315
     0.319277975  0.588791058  0.554103076
     0.825208276  0.082598699  0.556576837
     0.058880530  0.206039049  0.583510020
     0.047053190  0.702470637  0.580568330
     0.552475418  0.204527596  0.582011002
     0.546363430  0.705040037  0.582539916
     0.213955810  0.453406133  0.585032602
     0.186625457  0.960963431  0.581299678
     0.699912988  0.948726851  0.581432822
     0.412764945  0.324740956  0.557067719
     0.413649592  0.829157563  0.556258597
     0.907901139  0.311489868  0.558137513
     0.931078165  0.840680820  0.556461702
     0.183332126  0.415924331  0.561424853
     0.164642614  0.927613445  0.556416039
     0.686809272  0.909605805  0.556652109
     0.503371592  0.257413457  0.538497110
     0.510150612  0.763834872  0.538780797
     0.985255609  0.230520710  0.541623224
     0.018281548  0.767449350  0.537679930
     0.245164453  0.495548520  0.539568553
     0.256394095  0.987523542  0.538406150
     0.765066197  0.991076888  0.538546925
     0.444772233  0.303401814  0.672518972
     0.445389587  0.796758675  0.674664787
     0.943162426  0.305924647  0.671288441
     0.945643743  0.800243904  0.675224897
     0.298676923  0.051962328  0.674690671
     0.305393167  0.550172759  0.674106631
     0.809513911  0.057044334  0.672841425
     0.796870295  0.555468686  0.672820546
     0.076524888  0.167745746  0.650878414
     0.081312757  0.674910606  0.649256873
     0.578795467  0.171818376  0.650015326
     0.573755780  0.673564106  0.649148942
     0.168811768  0.423571392  0.649917040
     0.174528283  0.914334038  0.649621937
     0.672685259  0.410560401  0.655642733
     0.669613642  0.926292354  0.652214802
     0.040442598  0.202040217  0.674605083
     0.049716179  0.701648524  0.674334948
     0.542349143  0.199364390  0.674445200
     0.546891028  0.699166715  0.674638842
     0.202327640  0.452883330  0.675010987
     0.201039544  0.948358405  0.674915570
     0.704337252  0.447072890  0.679343885
     0.705648285  0.961281933  0.676395053
     0.423487344  0.336686199  0.646608456
     0.415725260  0.829497211  0.649529877
     0.922296608  0.328267763  0.645026596
     0.915410752  0.829071133  0.649956171
     0.330039143  0.079697532  0.649245519
     0.333591515  0.579401515  0.648465700
     0.832292048  0.078979239  0.646692579
     0.814143756  0.579104105  0.646418537
     0.004376880  0.245889224  0.630594205
     0.996773032  0.753192123  0.631274029
     0.507059738  0.254417848  0.630584743
     0.496873341  0.753058069  0.631221894
     0.254032318  0.996127210  0.631685488
     0.250556816  0.501406689  0.631413949
     0.748978963  0.999801991  0.631619007
     0.732178760  0.484856193  0.633861826
     0.448745018  0.301283966  0.768889017
     0.448745007  0.801283913  0.768889017
     0.948744965  0.301283966  0.768889017
     0.948745007  0.801283913  0.768889017
     0.301275995  0.051294496  0.768872961
     0.301276011  0.551294499  0.768872961
     0.801275943  0.051294496  0.768872961
     0.801275984  0.551294499  0.768872961
     0.078771004  0.171180501  0.743441971
     0.078771006  0.671180448  0.743441971
     0.578771004  0.171180501  0.743441971
     0.578770992  0.671180448  0.743441971
     0.171199499  0.421174482  0.743421032
     0.171199501  0.921174508  0.743421032
     0.671199512  0.421174482  0.743421032
     0.671199501  0.921174508  0.743421032
     0.051256000  0.198714991  0.768889017
     0.051256002  0.698714925  0.768889017
     0.551256027  0.198714991  0.768889017
     0.551256016  0.698714925  0.768889017
     0.198723491  0.448703970  0.768872046
     0.198723493  0.948703970  0.768872046
     0.698723518  0.448703970  0.768872046
     0.698723507  0.948703970  0.768872046
     0.421231519  0.328817467  0.743441971
     0.421231508  0.828817440  0.743441971
     0.921231466  0.328817467  0.743441971
     0.921231508  0.828817440  0.743441971
     0.328800503  0.078824997  0.743421032
     0.328800492  0.578824964  0.743421032
     0.828800477  0.078824997  0.743421032
     0.828800519  0.578824964  0.743421032
     0.000003500  0.250001478  0.725821992
     0.000003500  0.750001452  0.725821992
     0.500003506  0.250001478  0.725821992
     0.500003495  0.750001452  0.725821992
     0.250000502  0.000000000  0.725803983
     0.250000517  0.500000000  0.725803983
     0.750000502  0.000000000  0.725803983
     0.750000490  0.500000000  0.725803983
     0.784850235  0.531935166  0.526509239
     0.872698376  0.522592929  0.536771362
     0.779804613  0.633027878  0.543459529
     0.780601605  0.643408064  0.571808155
     0.690060632  0.479571513  0.564665552
     0.681609876  0.573524127  0.570362370
     0.803556237  0.439751010  0.574615113
     0.871986528  0.507264489  0.579625454
     0.852573122  0.396854434  0.549879331
     0.759595494  0.398079843  0.542518789
     0.782365921  0.406055120  0.504984395
     0.870692395  0.440672647  0.508283639
     0.913890714  0.640967807  0.541448689
     0.922798812  0.604254819  0.567942148
     0.886235832  0.690695588  0.565617464
     0.607269300  0.552991523  0.540563564
     0.669135466  0.501028288  0.526344228
     0.684993612  0.598456364  0.530330133
     0.724662509  0.480460573  0.601332066
     0.743532283  0.576062113  0.596315682
     0.806318802  0.528512343  0.611443646
     0.834015225  0.281349850  0.521247139
     0.840731156  0.300181761  0.494509583
     0.948647238  0.196821309  0.500743771
     0.965795147  0.418477390  0.522502029
     0.083694320  0.181719978  0.506126470
     0.099846710  0.405456949  0.528628987
     0.160958905  0.282958200  0.520148470
     0.991788723  0.238840414  0.558054123
     0.012252771  0.762466356  0.555495688
     0.502996259  0.252932596  0.555901043
     0.502734109  0.757505220  0.555898052
     0.249994729  0.500755694  0.556921938
     0.253216102  0.994363575  0.555804588
     0.757106517  0.994880022  0.555897624
     0.999262287  0.248308018  0.647958030
     0.999179737  0.751257404  0.649545505
     0.502185607  0.252889222  0.648664775
     0.498133360  0.749838888  0.649323171
     0.250104168  0.500379563  0.649532563
     0.251182016  0.996154428  0.649850925
     0.743075719  0.494346158  0.650901184
     0.751557604  0.001861300  0.649739331
     0.499988984  0.249994984  0.743277021
     0.499989025  0.749994958  0.743277021
     0.999988984  0.249994984  0.743277021
     0.999989025  0.749994958  0.743277021
     0.250000502  0.000001000  0.743255960
     0.250000517  0.500001003  0.743255960
     0.750000502  0.000001000  0.743255960
     0.750000491  0.500001003  0.743255960
     0.947350641  0.309449553  0.511205244
     0.980165245  0.242552039  0.506491441
     0.992341628  0.366998944  0.518655739
     0.058550458  0.234164438  0.509403950
     0.067907499  0.359568485  0.521922811
     0.101327130  0.291522938  0.516554001
     0.814776870  0.506977586  0.538852406
     0.807047963  0.614782892  0.558384816
     0.702176609  0.533639687  0.558538839
     0.812292155  0.496733195  0.579171811
     0.814938571  0.419012442  0.538043040
     0.832078414  0.402615667  0.514356479
     0.889190860  0.637698890  0.557491693
     0.664757389  0.548033713  0.537328358
     0.769998391  0.523204960  0.598152475
     0.859999670  0.318497020  0.510295119
     0.046482913  0.202630970  0.567405541
     0.052216207  0.710586225  0.565075730
     0.550009536  0.210115559  0.565737971
     0.547369314  0.715421438  0.566069642
     0.448983185  0.293615126  0.566110177
     0.445455300  0.795107057  0.565750120
     0.945169651  0.284272837  0.567324104
     0.961405716  0.804010070  0.565122614
     0.213058247  0.453132430  0.568052765
     0.197132475  0.958336917  0.564581673
     0.710914041  0.947811249  0.564761397
     0.301093653  0.039907606  0.564716038
     0.294223934  0.556223059  0.563746484
     0.793765581  0.050684841  0.564699373
     0.039597179  0.205889974  0.658759934
     0.044314810  0.708999020  0.658489311
     0.540826031  0.207144765  0.658732646
     0.544102373  0.705974926  0.658438581
     0.206529955  0.458256130  0.659485238
     0.208046791  0.952400974  0.659431516
     0.702757403  0.446030294  0.662770257
     0.708393427  0.962802976  0.660792994
     0.451880434  0.301457063  0.657057140
     0.448665889  0.795983974  0.659139954
     0.950294298  0.298912109  0.655381512
     0.949787486  0.796905770  0.658670072
     0.294277913  0.044114028  0.659236897
     0.300769216  0.547370996  0.658625691
     0.803161571  0.049988601  0.657570487
     0.787599920  0.543738515  0.657080093
     0.045862501  0.204119496  0.752725994
     0.045862500  0.704119456  0.752725994
     0.545862507  0.204119496  0.752725994
     0.545862496  0.704119456  0.752725994
     0.204119002  0.454101003  0.752704994
     0.204118991  0.954100951  0.752704994
     0.704118976  0.454101003  0.752704994
     0.704118964  0.954100951  0.752704994
     0.454140018  0.295888490  0.752726971
     0.454140007  0.795888516  0.752726971
     0.954140018  0.295888490  0.752726971
     0.954140060  0.795888516  0.752726971
     0.295882492  0.045900498  0.752704994
     0.295882481  0.545900528  0.752704994
     0.795882439  0.045900498  0.752704994
     0.795882481  0.545900528  0.752704994
     0.783235933  0.534874097  0.558906100
     0.497722806  0.002757679  0.552761377
     0.486704592  0.487232671  0.553394255
     0.997315339  0.999764797  0.552188447
     0.012497994  0.500502001  0.555299787
     0.260680119  0.247479675  0.554097460
     0.251663730  0.753147825  0.552439230
     0.738823493  0.237988232  0.554877828
     0.737443509  0.762596397  0.548570719
     0.997938924  0.997645095  0.654323255
     0.000226517  0.497490736  0.654962360
     0.498253431  0.997725159  0.654679711
     0.498423240  0.497740047  0.654138160
     0.250838598  0.246911651  0.654470563
     0.250411263  0.747839439  0.653608635
     0.748220926  0.246855026  0.654506214
     0.749645045  0.750027006  0.654574282
     0.144949042  0.104195936  0.607522513
     0.146408520  0.609282111  0.607564147
     0.645678462  0.109253303  0.608284811
     0.630316117  0.619576871  0.611086702
     0.358697981  0.394881595  0.608484619
     0.357840151  0.894786850  0.608283590
     0.869743958  0.380446703  0.611055324
     0.858427190  0.895159707  0.607508655
     0.110493686  0.353708785  0.607335281
     0.104499219  0.858339962  0.607911873
     0.611787022  0.364367770  0.606482815
     0.604519668  0.859943428  0.607826224
     0.395109814  0.145099373  0.608359228
     0.394601033  0.640900807  0.607796127
     0.889935248  0.143148867  0.608362830
     0.904262242  0.654698853  0.611039085
     0.000000000  0.000000000  0.754927972
     0.000000000  0.500000000  0.754927972
     0.500000000  0.000000000  0.754927972
     0.499999989  0.500000000  0.754927972
     0.250000496  0.250000000  0.754939022
     0.250000511  0.749999974  0.754939022
     0.750000470  0.250000000  0.754939022
     0.750000458  0.749999974  0.754939022
     0.135790500  0.114209997  0.704782994
     0.135790502  0.614209984  0.704782994
     0.635790447  0.114209997  0.704782994
     0.635790488  0.614209984  0.704782994
     0.364209516  0.385789989  0.704782994
     0.364209505  0.885789963  0.704782994
     0.864209542  0.385789989  0.704782994
     0.864209531  0.885789963  0.704782994
     0.114217990  0.364218986  0.704780979
     0.114217992  0.864218986  0.704780979
     0.614218004  0.364218986  0.704780979
     0.614217992  0.864218986  0.704780979
     0.385782012  0.135781489  0.704782017
     0.385782001  0.635781489  0.704782017
     0.885781985  0.135781489  0.704782017
     0.885782027  0.635781489  0.704782017
     0.134667000  0.115332001  0.801256025
     0.134666989  0.615331988  0.801256025
     0.634666987  0.115332001  0.801256025
     0.634666976  0.615331988  0.801256025
     0.365333002  0.384667985  0.801256025
     0.365332990  0.884667959  0.801256025
     0.865332949  0.384667985  0.801256025
     0.865332938  0.884667959  0.801256025
     0.115328503  0.365337004  0.801264999
     0.115328505  0.865336978  0.801264999
     0.615328503  0.365337004  0.801264999
     0.615328492  0.865336978  0.801264999
     0.384671513  0.134662996  0.801264999
     0.384671501  0.634662970  0.801264999
     0.884671486  0.134662996  0.801264999
     0.884671528  0.634662970  0.801264999
     0.001284467  0.997978894  0.603224534
     0.010004200  0.499645569  0.605110470
     0.497571189  0.998424398  0.603079363
     0.498437848  0.501743855  0.603201458
     0.248957595  0.249111811  0.603799967
     0.247345472  0.749330182  0.602292463
     0.752756192  0.249456844  0.604233769
     0.750518111  0.757440067  0.604212464
     0.000000500  0.000000500  0.704828963
     0.000000500  0.500000475  0.704828963
     0.500000475  0.000000500  0.704828963
     0.500000464  0.500000475  0.704828963
     0.249999994  0.249999472  0.704824995
     0.250000010  0.749999498  0.704824995
     0.749999994  0.249999472  0.704824995
     0.749999983  0.749999498  0.704824995
     0.000000000  0.000000000  0.807317968
     0.000000000  0.500000000  0.807317968
     0.500000000  0.000000000  0.807317968
     0.499999989  0.500000000  0.807317968
     0.249999994  0.250000000  0.807317968
     0.250000010  0.749999974  0.807317968
     0.749999994  0.250000000  0.807317968
     0.749999983  0.749999974  0.807317968

  ion indices of the primitive-cell ions
   primitive index   ion index
                 1           1
                 2           2
                 3           3
                 4           4
                 5           5
                 6           6
                 7           7
                 8           8
                 9           9
                10          10
                11          11
                12          12
                13          13
                14          14
                15          15
                16          16
                17          17
                18          18
                19          19
                20          20
                21          21
                22          22
                23          23
                24          24
                25          25
                26          26
                27          27
                28          28
                29          29
                30          30
                31          31
                32          32
                33          33
                34          34
                35          35
                36          36
                37          37
                38          38
                39          39
                40          40
                41          41
                42          42
                43          43
                44          44
                45          45
                46          46
                47          47
                48          48
                49          49
                50          50
                51          51
                52          52
                53          53
                54          54
                55          55
                56          56
                57          57
                58          58
                59          59
                60          60
                61          61
                62          62
                63          63
                64          64
                65          65
                66          66
                67          67
                68          68
                69          69
                70          70
                71          71
                72          72
                73          73
                74          74
                75          75
                76          76
                77          77
                78          78
                79          79
                80          80
                81          81
                82          82
                83          83
                84          84
                85          85
                86          86
                87          87
                88          88
                89          89
                90          90
                91          91
                92          92
                93          93
                94          94
                95          95
                96          96
                97          97
                98          98
                99          99
               100         100
               101         101
               102         102
               103         103
               104         104
               105         105
               106         106
               107         107
               108         108
               109         109
               110         110
               111         111
               112         112
               113         113
               114         114
               115         115
               116         116
               117         117
               118         118
               119         119
               120         120
               121         121
               122         122
               123         123
               124         124
               125         125
               126         126
               127         127
               128         128
               129         129
               130         130
               131         131
               132         132
               133         133
               134         134
               135         135
               136         136
               137         137
               138         138
               139         139
               140         140
               141         141
               142         142
               143         143
               144         144
               145         145
               146         146
               147         147
               148         148
               149         149
               150         150
               151         151
               152         152
               153         153
               154         154
               155         155
               156         156
               157         157
               158         158
               159         159
               160         160
               161         161
               162         162
               163         163
               164         164
               165         165
               166         166
               167         167
               168         168
               169         169
               170         170
               171         171
               172         172
               173         173
               174         174
               175         175
               176         176
               177         177
               178         178
               179         179
               180         180
               181         181
               182         182
               183         183
               184         184
               185         185
               186         186
               187         187
               188         188
               189         189
               190         190
               191         191
               192         192
               193         193
               194         194
               195         195
               196         196
               197         197
               198         198
               199         199
               200         200
               201         201
               202         202
               203         203
               204         204
               205         205
               206         206
               207         207
               208         208
               209         209
               210         210
               211         211
               212         212
               213         213
               214         214
               215         215
               216         216
               217         217
               218         218
               219         219
               220         220
               221         221
               222         222
               223         223
               224         224
               225         225
               226         226
               227         227
               228         228
               229         229
               230         230
               231         231
               232         232
               233         233
               234         234
               235         235
               236         236
               237         237
               238         238
               239         239
               240         240
               241         241
               242         242
               243         243
               244         244
               245         245
               246         246
               247         247
               248         248
               249         249
               250         250
               251         251
               252         252
               253         253
               254         254
               255         255
               256         256
               257         257
               258         258
               259         259
               260         260
               261         261
               262         262
               263         263
               264         264
               265         265
               266         266
               267         267
               268         268
               269         269
               270         270
               271         271
               272         272
               273         273
               274         274
               275         275
               276         276
               277         277
               278         278
               279         279
               280         280
               281         281
               282         282
               283         283
               284         284
               285         285
               286         286
               287         287
               288         288
               289         289
               290         290
               291         291
               292         292
               293         293
               294         294
               295         295
               296         296
               297         297
               298         298
               299         299
               300         300
               301         301
               302         302
               303         303
               304         304
               305         305
               306         306
               307         307
               308         308
               309         309
               310         310
               311         311
               312         312
               313         313
               314         314
               315         315
               316         316
               317         317
               318         318
               319         319
               320         320
               321         321
               322         322
               323         323
               324         324
               325         325

----------------------------------------------------------------------------------------

 
 
 KPOINTS: Automatic Mesh                          

Automatic generation of k-mesh.
 Grid dimensions read from file:
 generate k-points for:    3    3    1

 Generating k-lattice:

  Cartesian coordinates                     Fractional coordinates (reciprocal lattice)
     0.018456177  0.000005026 -0.000000000     0.333333333  0.000000000  0.000000000
     0.000000000  0.018454135  0.000000000     0.000000000  0.333333333  0.000000000
     0.000000000 -0.000000000  0.016003201     0.000000000  0.000000000  1.000000000

  Length of vectors
     0.018456178  0.018454135  0.016003201

  Shift w.r.t. Gamma in fractional coordinates (k-lattice)
     0.000000000  0.000000000  0.000000000

 
 Subroutine IBZKPT returns following result:
 ===========================================
 
 Found      5 irreducible k-points:
 
 Following reciprocal coordinates:
            Coordinates               Weight
  0.000000  0.000000  0.000000      1.000000
  0.333333  0.000000  0.000000      2.000000
  0.000000  0.333333  0.000000      2.000000
  0.333333  0.333333  0.000000      2.000000
 -0.333333  0.333333  0.000000      2.000000
 
 Following cartesian coordinates:
            Coordinates               Weight
  0.000000  0.000000  0.000000      1.000000
  0.018456  0.000005  0.000000      2.000000
  0.000000  0.018454  0.000000      2.000000
  0.018456  0.018459  0.000000      2.000000
 -0.018456  0.018449  0.000000      2.000000
 


--------------------------------------------------------------------------------------------------------




 Dimension of arrays:
   k-points           NKPTS =      5   k-points in BZ     NKDIM =      5   number of bands    NBANDS=    732
   number of dos      NEDOS =    301   number of ions     NIONS =    325
   non local maximal  LDIM  =      5   non local SUM 2l+1 LMDIM =     13
   total plane-waves  NPLWV = ******
   max r-space proj   IRMAX =   3336   max aug-charges    IRDMAX=  19845
   dimension x,y,z NGX =   100 NGY =  100 NGZ =  350
   dimension x,y,z NGXF=   200 NGYF=  200 NGZF=  700
   support grid    NGXF=   200 NGYF=  200 NGZF=  700
   ions per type =             143  39  47  72  24
   NGX,Y,Z   is equivalent  to a cutoff of   9.20,  9.20,  9.31 a.u.
   NGXF,Y,Z  is equivalent  to a cutoff of  18.41, 18.41, 18.62 a.u.

 SYSTEM =  PSC                                     
 POSCAR =   H  C  N  I Pb                          

 Startparameter for this run:
   NWRITE =      2    write-flag & timer
   PREC   = normal    normal or accurate (medium, high low for compatibility)
   ISTART =      0    job   : 0-new  1-cont  2-samecut
   ICHARG =      1    charge: 1-file 2-atom 10-const
   ISPIN  =      1    spin polarized calculation?
   LNONCOLLINEAR =      F non collinear calculations
   LSORBIT =      F    spin-orbit coupling
   INIWAV =      1    electr: 0-lowe 1-rand  2-diag
   LASPH  =      F    aspherical Exc in radial PAW
 Electronic Relaxation 1
   ENCUT  =  500.0 eV  36.75 Ry    6.06 a.u.  32.93 32.93113.93*2*pi/ulx,y,z
   ENINI  =  500.0     initial cutoff
   ENAUG  =  644.9 eV  augmentation charge cutoff
   NELM   =    600;   NELMIN=  2; NELMDL=  0     # of ELM steps 
   EDIFF  = 0.1E-03   stopping-criterion for ELM
   LREAL  =      T    real-space projection
   NLSPLINE    = F    spline interpolate recip. space projectors
   LCOMPAT=      F    compatible to vasp.4.4
   GGA_COMPAT  = F    GGA compatible to vasp.4.4-vasp.4.6
   LMAXPAW     = -100 max onsite density
   LMAXMIX     =    2 max onsite mixed and CHGCAR
   VOSKOWN=      0    Vosko Wilk Nusair interpolation
   ROPT   =   -0.00050  -0.00050  -0.00050  -0.00050
   ROPT   =   -0.00050
 Ionic relaxation
   EDIFFG = 0.1E-02   stopping-criterion for IOM
   NSW    =      0    number of steps for IOM
   NBLOCK =      1;   KBLOCK =      1    inner block; outer block 
   IBRION =     -1    ionic relax: 0-MD 1-quasi-New 2-CG
   NFREE  =      0    steps in history (QN), initial steepest desc. (CG)
   ISIF   =      2    stress and relaxation
   IWAVPR =     10    prediction:  0-non 1-charg 2-wave 3-comb
   ISYM   =      0    0-nonsym 1-usesym 2-fastsym
   LCORR  =      T    Harris-Foulkes like correction to forces

   POTIM  = 0.5000    time-step for ionic-motion
   TEIN   =    0.0    initial temperature
   TEBEG  =    0.0;   TEEND  =   0.0 temperature during run
   SMASS  =  -3.00    Nose mass-parameter (am)
   estimated Nose-frequenzy (Omega)   =  0.10E-29 period in steps = 0.13E+47 mass=  -0.745E-26a.u.
   SCALEE = 1.0000    scale energy and forces
   NPACO  =    256;   APACO  = 16.0  distance and # of slots for P.C.
   PSTRESS=    0.0 pullay stress

  Mass of Ions in am
   POMASS =   1.00 12.01 14.00126.90207.20
  Ionic Valenz
   ZVAL   =   1.00  4.00  5.00  7.00  4.00
  Atomic Wigner-Seitz radii
   RWIGS  =  -1.00 -1.00 -1.00 -1.00 -1.00
  virtual crystal weights 
   VCA    =   1.00  1.00  1.00  1.00  1.00
   NELECT =    1134.0000    total number of electrons
   NUPDOWN=      -1.0000    fix difference up-down

 DOS related values:
   EMIN   =  10.00;   EMAX   =-10.00  energy-range for DOS
   EFERMI =   0.00
   ISMEAR =     0;   SIGMA  =   0.05  broadening in eV -4-tet -1-fermi 0-gaus

 Electronic relaxation 2 (details)
   IALGO  =     38    algorithm
   LDIAG  =      T    sub-space diagonalisation (order eigenvalues)
   LSUBROT=      F    optimize rotation matrix (better conditioning)
   TURBO    =      0    0=normal 1=particle mesh
   IRESTART =      0    0=no restart 2=restart with 2 vectors
   NREBOOT  =      0    no. of reboots
   NMIN     =      0    reboot dimension
   EREF     =   0.00    reference energy to select bands
   IMIX   =      4    mixing-type and parameters
     AMIX     =   0.40;   BMIX     =  0.01
     AMIX_MAG =   1.60;   BMIX_MAG =  0.01
     AMIN     =   0.01
     WC   =   100.;   INIMIX=   1;  MIXPRE=   1;  MAXMIX= -45

 Intra band minimization:
   WEIMIN = 0.0000     energy-eigenvalue tresh-hold
   EBREAK =  0.34E-07  absolut break condition
   DEPER  =   0.30     relativ break condition  

   TIME   =   0.40     timestep for ELM

  volume/ion in A,a.u.               =      62.72       423.28
  Fermi-wavevector in a.u.,A,eV,Ry     =   0.624944  1.180972  5.313816  0.390554
  Thomas-Fermi vector in A             =   1.685677
 
 Write flags
   LWAVE        =      F    write WAVECAR
   LDOWNSAMPLE  =      F    k-point downsampling of WAVECAR
   LCHARG       =      T    write CHGCAR
   LVTOT        =      T    write LOCPOT, total local potential
   LVHAR        =      F    write LOCPOT, Hartree potential only
   LELF         =      F    write electronic localiz. function (ELF)
   LORBIT       =      0    0 simple, 1 ext, 2 COOP (PROOUT), +10 PAW based schemes


 Dipole corrections
   LMONO  =      F    monopole corrections only (constant potential shift)
   LDIPOL =      T    correct potential (dipole corrections)
   IDIPOL =      3    1-x, 2-y, 3-z, 4-all directions 
   EPSILON=  1.0000000 bulk dielectric constant

 Exchange correlation treatment:
   GGA     =    --    GGA type
   LEXCH   =     8    internal setting for exchange type
   VOSKOWN=      0    Vosko Wilk Nusair interpolation
   LHFCALC =     F    Hartree Fock is set to
   LHFONE  =     F    Hartree Fock one center treatment
   AEXX    =    0.0000 exact exchange contribution

 Linear response parameters
   LEPSILON=     F    determine dielectric tensor
   LRPA    =     F    only Hartree local field effects (RPA)
   LNABLA  =     F    use nabla operator in PAW spheres
   LVEL    =     F    velocity operator in full k-point grid
   LINTERFAST=   F  fast interpolation
   KINTER  =     0    interpolate to denser k-point grid
   CSHIFT  =0.1000    complex shift for real part using Kramers Kronig
   OMEGAMAX=  -1.0    maximum frequency
   DEG_THRESHOLD= 0.2000000E-02 threshold for treating states as degnerate
   RTIME   =   -0.100 relaxation time in fs
  (WPLASMAI=    0.000 imaginary part of plasma frequency in eV, 0.658/RTIME)
   DFIELD  = 0.0000000 0.0000000 0.0000000 field for delta impulse in time
 
 Orbital magnetization related:
   ORBITALMAG=     F  switch on orbital magnetization
   LCHIMAG   =     F  perturbation theory with respect to B field
   DQ        =  0.001000  dq finite difference perturbation B field
   LLRAUG    =     F  two centre corrections for induced B field



--------------------------------------------------------------------------------------------------------


 Static calculation
 charge density and potential will be updated during run
 non-spin polarized calculation
 Variant of blocked Davidson
 Davidson routine will perform the subspace rotation
 perform sub-space diagonalisation
    after iterative eigenvector-optimisation
 modified Broyden-mixing scheme, WC =      100.0
 initial mixing is a Kerker type mixing with AMIX =  0.4000 and BMIX =      0.0100
 Hartree-type preconditioning will be used
 using additional bands           165
 real space projection scheme for non local part
[...]
     13.54561      0.00000     45.35368         0.001224      0.003315      0.013573
     13.54315      9.03140     45.35368         0.004652      0.000893      0.015948
     14.17241      9.60824     32.90025        -0.991709      0.399415     -1.482784
     15.75906      9.43949     33.54150         0.141857      0.288904      0.451915
     14.08078     11.43426     33.95943         0.215507      0.195137      0.587503
     14.09513     11.62175     35.73086        -0.049038     -0.319084     -0.081477
     12.46069      8.66240     35.28454        -0.778517     -0.843964      0.202221
     12.30760     10.35945     35.64052         0.126713     -0.020532      0.020496
     14.51071      7.94313     35.90626        -0.028207     -0.528540      0.574042
     15.74628      9.16262     36.21935        -0.073198      0.046383     -0.105805
     15.39620      7.16830     34.36058         0.644375     -0.061590     -0.008007
     13.71694      7.19044     33.90064         0.185297     -0.085874     -0.164660
     14.12816      7.33449     31.55521        -0.770889      0.387206     -0.297132
     15.72323      7.95978     31.76137         1.166197      1.024730     -0.713031
     16.50245     11.57767     33.83377        -0.204784     -0.009245      0.119438
     16.66351     10.91453     35.48928         0.289883     -0.271390      0.013636
     16.00273     12.47590     35.34402         0.267309      0.506238     -0.360548
     10.96505      9.98857     33.77847        -1.168031      0.254477      0.209198
     12.08266      9.04997     32.88993         0.153736      0.037301     -0.171534
     12.36859     10.80980     33.13900         0.145390      0.652374     -0.548393
     13.08562      8.67846     37.57574         0.759648      0.976101      0.073524
     13.42595     10.40529     37.26228         0.135828      0.313578     -0.324986
     14.56016      9.54641     38.20758         0.530976     -0.061403      0.828323
     15.06160      5.08197     32.57143        -0.399146     -0.549268      0.910866
     15.18280      5.42212     30.90067         0.079741      0.075064     -0.199166
     17.13236      3.55514     31.29023        -0.524655     -0.747108     -0.254160
     17.44098      7.55887     32.64985        -0.044431      0.442897      0.154295
      1.51069      3.28237     31.62658         0.257812     -0.685933     -0.204193
      1.80132      7.32369     33.03270        -0.085576     -0.102527     -0.119442
      2.90565      5.11102     32.50278        -0.576972      0.080603     -0.283499
     17.91132      4.31413     34.87141         0.572377      0.125214      1.961839
      0.21754     13.77228     34.71154        -0.379065     -0.265984     -0.552028
      9.08327      4.56867     34.73687        -2.516239      1.736666      1.436708
      9.07605     13.68266     34.73668        -3.386534      2.399955      1.173534
      4.51264      9.04505     34.80066         1.611365      1.984333     -0.881254
      4.56839     17.96099     34.73084        -0.532588      0.037928     -0.731657
     13.66906     17.97032     34.73665         0.268359      0.723256     -0.738750
     18.04626      4.48514     40.48928        -3.122689      3.447923     -1.674544
     18.04229     13.56981     40.58847        -3.664135      3.555456     -3.311416
      9.06863      4.56789     40.53344        -3.646039      3.920760     -2.582742
      8.99300     13.54419     40.57458        -2.831827      2.813402     -1.207105
      4.51462      9.03826     40.58767         3.887035      3.602525     -1.812254
      4.53165     17.99334     40.60756         1.815507      1.949813     -2.661382
     13.41811      8.92928     40.67319        -3.415067     -3.895239     -0.760646
     13.57372      0.03362     40.60059         3.571012      3.432939     -2.159193
      9.02897      4.51561     46.44552         0.013415      0.003097      0.035794
      9.02651     13.54701     46.44552         0.004327      0.011330      0.038495
     18.05937      4.51561     46.44552         0.013746      0.002230      0.036174
     18.05691     13.54701     46.44552         0.017220     -0.000228      0.043174
      4.51521      0.00002     46.44421         0.007445      0.005791      0.046052
      4.51275      9.03142     46.44421        -0.001313     -0.003500      0.048635
     13.54561      0.00002     46.44421         0.001295      0.001609      0.053118
     13.54315      9.03142     46.44421        -0.009540     -0.010994      0.058277
     17.10839      5.58953     31.94394        -1.876222      0.493851      0.221076
     17.70138      4.38117     31.64938         1.947978     -0.047727      0.099565
     17.92068      6.62903     32.40950        -0.238313      0.033160     -0.121947
      1.05632      4.22967     31.83138        -1.771485     -0.221458     -0.650155
      1.22470      6.49481     32.61365         0.218510     -0.632393     -0.498555
      1.82862      5.26572     32.27817         1.065491      0.949728      0.914048
     14.71303      9.15743     33.67154         1.365659     -3.504686      1.186164
     14.57291     11.10470     34.89207         0.190469      0.311271     -0.758457
     12.67925      9.63903     34.90170        -1.011143     -0.110654      0.059422
     14.66820      8.97239     36.19100        -0.147281      0.547873     -1.670842
     14.71638      7.56854     33.62096        -1.235127      1.995667     -1.377202
     15.02602      7.27237     32.14085        -0.165742     -3.645115      1.136143
     16.05636     11.51863     34.83626        -1.366272     -0.331208      0.247188
     12.00336      9.89902     33.57631         0.994285     -0.697426      0.091600
     13.90421      9.45055     37.37705        -1.038664     -1.896111     -0.264089
     15.53072      5.75295     31.88707         1.796416      2.081280     -0.880158
      0.83852      3.66008     35.45575        -1.273880      1.223433      1.171962
      0.93957     12.83518     35.31017        -0.463764      1.141860     -2.009206
      9.93258      3.79528     35.35155        -0.458846      0.258545      0.323505
      9.88241     12.92251     35.37228         1.395103     -1.481463      0.731210
      8.10755      5.30351     35.37481         1.924387     -1.341665     -2.539397
      8.04137     14.36186     35.35231         2.428453     -0.959756     -4.371895
     17.06912      5.13476     35.45066         0.163336     -0.002046      0.695476
     17.35980     14.52267     35.31310         1.297176     -0.668403     -2.192869
      3.84577      8.18484     35.49620         1.674334      2.078933      3.765510
      3.55566     17.31025     35.27930         2.495653      2.430687      3.638840
     12.83501     17.12012     35.29053         1.451182      2.858609      3.359012
      5.43780      0.72084     35.28769        -2.919593     -1.678297      3.391275
      5.31118     10.04695     35.22711        -2.637774     -3.320197      3.378030
     14.33579      0.91551     35.28665        -2.589563     -2.595034      3.564737
      0.71414      3.71895     41.16426         3.324096     -3.493338     -0.092198
      0.79687     12.80651     41.14735         3.698549     -3.488537      0.129814
      9.76673      3.74161     41.16256         3.553106     -3.604345     -0.519751
      9.82345     12.75188     41.14418        -0.324890      0.218089      1.612818
      3.72784      8.27739     41.20958        -3.475449     -3.223851     -2.315090
      3.75281     17.20303     41.20623        -3.438445     -3.793562     -2.453981
     12.69017      8.05656     41.41486         3.553100      4.201642      1.722723
     12.78942     17.39092     41.29130        -3.630257     -3.490654     -2.006096
      8.15984      5.44516     41.05786         1.685084     -1.335284     -3.378519
      8.09935     14.37770     41.18801         1.673596     -1.430295     -3.686655
     17.16161      5.39919     40.95315         2.678920     -2.808990      0.851570
     17.15000     14.39435     41.15865         1.255579     -1.176394      1.094415
      5.31468      0.79682     41.19407         2.085287      1.985894     -3.341479
      5.42944      9.88705     41.15587        -1.618904     -1.380030     -3.777768
     14.50550      0.90293     41.08994        -2.380363     -2.298896     -2.932367
     14.22201      9.82144     41.05929         2.015088      2.506286      0.647897
      0.82731      3.68697     47.03596         0.019085     -0.022587     -0.087450
      0.82485     12.71837     47.03596         0.017575     -0.020148     -0.090534
      9.85771      3.68697     47.03596         0.021110     -0.021954     -0.085176
      9.85525     12.71837     47.03596         0.028555     -0.026281     -0.086122
      3.68432      8.20234     47.03465        -0.011947     -0.008136     -0.076768
      3.68186     17.23373     47.03465        -0.016261     -0.016174     -0.072279
     12.71472      8.20234     47.03465        -0.004598     -0.003236     -0.080087
     12.71226     17.23373     47.03465        -0.008413     -0.015128     -0.073588
      8.20068      5.34457     47.03603        -0.018916      0.019090     -0.085406
      8.19822     14.37597     47.03603        -0.015104      0.011799     -0.090137
     17.23108      5.34457     47.03603        -0.019481      0.020360     -0.090075
     17.22862     14.37597     47.03603        -0.023570      0.018989     -0.091068
      5.34365      0.82909     47.03465         0.006257      0.006949     -0.072729
      5.34119      9.86049     47.03465         0.010811      0.013938     -0.073157
     14.37405      0.82909     47.03465         0.011250      0.007989     -0.073592
     14.37159      9.86049     47.03465         0.015260      0.018562     -0.074839
     14.14324      9.66132     34.92464         2.206671      1.829546      0.375019
      8.98926      0.04981     34.54068        -0.010920     -0.022495      0.049019
      8.78788      8.80079     34.58022        -0.332140      0.018502      0.083079
     18.00740     18.05855     34.50488        -0.011769     -0.021350      0.013666
      0.22326      9.04047     34.69930         0.699008     -0.009304      0.385692
      4.70687      4.47018     34.62416        -0.070931     -0.012768     -0.026279
      4.54154     13.60396     34.52055        -0.075044      0.015528     -0.133517
     13.34257      4.29873     34.67293         0.054418     -0.102319     -0.149622
     13.31507     13.77463     34.27881        -0.644991      1.389039      0.029198
     18.01867     18.02026     40.88702         0.095877      0.036594     -0.004942
      0.00164      8.98608     40.92696         0.038540      0.069626      0.066791
      8.99395     18.02171     40.90930         0.067129      0.042061      0.018940
      8.99947      8.99058     40.87546         0.051783      0.077567      0.200040
      4.52913      4.45992     40.89623        -0.066633      0.028311      0.114428
      4.51895     13.50807     40.84237        -0.072183      0.029444      0.068465
     13.51225      4.45889     40.89846        -0.071788      0.007244      0.222487
     13.53550     13.54759     40.90271        -0.034341      0.048895     -0.228297
      2.61738      1.88207     37.96256         0.027240     -0.037810      0.052759
      2.64126     11.00534     37.96516        -0.040541     -0.124727      0.044189
     11.66093      1.97342     38.01020        -0.168806     -0.148532      0.022025
     11.38097     11.19129     38.18528        -0.818804      0.769783      0.330416
      6.47643      7.13267     38.02268        -0.190228     -0.116710      0.049098
      6.45848     16.16236     38.01012        -0.156386     -0.148718     -0.003439
     15.70640      6.87193     38.18332         0.494220     -0.383120      0.308427
     15.49948     16.16909     37.96170        -0.131569     -0.060064      0.007574
      1.99386      6.38897     37.95086        -0.151768      0.180142      0.076301
      1.88312     15.50402     37.98689         0.170743     -0.124513      0.006533
     11.04757      6.58150     37.89759         0.066157     -0.064573      0.000248
     10.91388     15.53299     37.98154         0.262807     -0.119061      0.037813
      7.13529      2.62090     38.01485        -0.061035     -0.089896      0.005422
      7.12366     11.57646     37.97966        -0.340530      0.309409     -0.041393
     16.07224      2.58567     38.01507         0.192189     -0.264672     -0.010573
     16.32848     11.82569     38.18230         0.030621      0.025741      0.214936
      0.00000      0.00000     47.17356        -0.000908     -0.004149      0.419230
     -0.00246      9.03140     47.17356        -0.000877      0.003577      0.436669
      9.03040      0.00000     47.17356         0.000922     -0.003109      0.476190
      9.02794      9.03140     47.17356         0.002825      0.002814      0.450818
      4.51398      4.51570     47.17425        -0.001579     -0.000813      0.451594
      4.51152     13.54710     47.17425        -0.002163     -0.001676      0.387383
     13.54438      4.51570     47.17425         0.001999     -0.000007      0.456691
     13.54192     13.54710     47.17425         0.002860     -0.001592      0.343840
      2.45192      2.06295     44.04013        -0.023535     -0.019870     -0.054188
      2.44946     11.09435     44.04013        -0.012185      0.007580     -0.059408
     11.48232      2.06295     44.04013        -0.006893     -0.006740     -0.046301
     11.47986     11.09435     44.04013         0.025548      0.020124     -0.052734
      6.57602      6.96845     44.04013        -0.025208      0.022570     -0.010579
      6.57356     15.99985     44.04013        -0.058536      0.007151      0.023060
     15.60642      6.96845     44.04013         0.009015      0.008014     -0.047792
     15.60396     15.99985     44.04013        -0.041294      0.003142      0.004982
      2.06108      6.57881     44.04000        -0.010454      0.010897     -0.042275
      2.05862     15.61021     44.04000        -0.010274     -0.023802     -0.026152
     11.09148      6.57881     44.04000        -0.102980     -0.103419      0.147059
     11.08902     15.61021     44.04000         0.023501     -0.037319     -0.032080
      6.96686      2.45259     44.04007         0.020590      0.017814     -0.017980
      6.96440     11.48399     44.04007         0.034126      0.048344      0.004604
     15.99726      2.45259     44.04007         0.042716      0.017519      0.001294
     15.99481     11.48399     44.04007        -0.040918     -0.010729     -0.102141
      2.43163      2.08322     50.06849         0.004730     -0.016921      0.022355
      2.42917     11.11462     50.06849         0.011451     -0.007501      0.020443
     11.46203      2.08322     50.06849         0.012017     -0.011161      0.023175
     11.45957     11.11462     50.06849         0.021514     -0.000067      0.020474
      6.59631      6.94818     50.06849        -0.008468      0.013148      0.023353
      6.59385     15.97958     50.06849        -0.016872      0.002720      0.022090
     15.62671      6.94818     50.06849        -0.005638      0.015765      0.021538
     15.62425     15.97958     50.06849        -0.015969      0.002822      0.019234
      2.08113      6.59901     50.06905        -0.014881     -0.004631      0.022619
      2.07867     15.63041     50.06905        -0.009407     -0.012417      0.020541
     11.11153      6.59901     50.06905        -0.009776     -0.007186      0.022445
     11.10907     15.63041     50.06905         0.003054     -0.022910      0.021424
      6.94681      2.43239     50.06905         0.009993      0.009090      0.023856
      6.94435     11.46379     50.06905         0.005952      0.015383      0.021771
     15.97721      2.43239     50.06905         0.015659      0.003866      0.021759
     15.97475     11.46379     50.06905         0.003925      0.017938      0.019646
      0.01829     18.02629     37.69399        -0.109327      0.281379     -0.074339
      0.17823      9.02500     37.81184        -0.187173     -0.023882     -0.001857
      8.98162     18.03434     37.68492         0.067641      0.267718     -0.133126
      8.99972      9.06290     37.69255         0.145563     -0.300522     -0.157447
      4.49515      4.49966     37.72995         0.358509     -0.065089     -0.020241
      4.46357     13.53500     37.63575         0.248166      0.209747      0.137705
     13.59415      4.50589     37.75706        -0.291990      0.117069      0.037041
     13.55123     13.68149     37.75573        -0.093579     -0.026639     -0.025178
      0.00001      0.00001     44.04300         0.015354      0.019424      0.030130
     -0.00245      9.03141     44.04300         0.013756     -0.035374      0.153275
      9.03041      0.00001     44.04300        -0.021841      0.002204      0.006165
      9.02795      9.03141     44.04300        -0.031673     -0.038440     -0.081100
      4.51397      4.51569     44.04275         0.017530      0.005866      0.014328
      4.51151     13.54709     44.04275         0.026454      0.011968     -0.019003
     13.54437      4.51569     44.04275        -0.003564     -0.008905     -0.007402
     13.54191     13.54709     44.04275        -0.023050      0.037279      0.219041
      0.00000      0.00000     50.44728         0.005370      0.011615     -0.630826
     -0.00246      9.03140     50.44728         0.003760     -0.012210     -0.634450
      9.03040      0.00000     50.44728        -0.002638      0.011936     -0.647439
      9.02794      9.03140     50.44728        -0.004383     -0.011579     -0.639863
      4.51397      4.51570     50.44728         0.006192     -0.000880     -0.641543
      4.51151     13.54710     50.44728         0.006164      0.001412     -0.623495
     13.54437      4.51570     50.44728        -0.005150     -0.001650     -0.641829
     13.54191     13.54710     50.44728        -0.005496      0.000722     -0.608259
 -----------------------------------------------------------------------------------
    total drift:                               -0.157613      0.015117      0.371284


--------------------------------------------------------------------------------------------------------



  FREE ENERGIE OF THE ION-ELECTRON SYSTEM (eV)
  ---------------------------------------------------
  free  energy   TOTEN  =     -1566.44909623 eV

  energy  without entropy=    -1566.44909623  energy(sigma->0) =    -1566.44909623
 


--------------------------------------------------------------------------------------------------------


    POTLOK:  cpu time    0.5026: real time    0.5025


--------------------------------------------------------------------------------------------------------


     LOOP+:  cpu time  326.8757: real time  327.4359
 vacuum level on the upper side and lower side of the slab         2.415         1.454
    4ORBIT:  cpu time    0.0000: real time    0.0000

 total amount of memory used by VASP MPI-rank0  8653570. kBytes
=======================================================================

   base      :      30000. kBytes
   nonlr-proj:      53608. kBytes
   fftplans  :     249280. kBytes
   grid      :     701440. kBytes
   one-center:       2636. kBytes
   wavefun   :    7616606. kBytes
 
  
  
 General timing and accounting informations for this job:
 ========================================================
  
                  Total CPU time used (sec):      538.995
                            User time (sec):      432.047
                          System time (sec):      106.948
                         Elapsed time (sec):      541.059
  
                   Maximum memory used (kb):    10309036.
                   Average memory used (kb):          N/A
  
                          Minor page faults:      3757142
                          Major page faults:           12
                 Voluntary context switches:        11637
