<?xml version="1.0" encoding="ISO-8859-1"?>
<modeling>
 <generator>
  <i name="program" type="string">vasp </i>
  <i name="version" type="string">6.2.1  </i>
  <i name="subversion" type="string">16May21 (build Nov 15 2021 14:57:28) complex                          parallel </i>
  <i name="platform" type="string">LinuxPGI </i>
  <i name="date" type="string">2023 07 30 </i>
  <i name="time" type="string">09:01:39 </i>
 </generator>
 <incar>
  <i type="string" name="SYSTEM">PSC</i>
  <i type="int" name="ISTART">     1</i>
  <i type="string" name="PREC">Normal</i>
  <i name="BMIX">      0.01000000</i>
  <i name="AMIN">      0.01000000</i>
  <i type="int" name="ICHARG">     1</i>
  <i type="int" name="NELM">   600</i>
  <i type="int" name="ISYM">     0</i>
  <i name="ENCUT">    500.00000000</i>
  <i type="string" name="LREAL">Auto</i>
  <i type="int" name="ISMEAR">     0</i>
  <i name="SIGMA">      0.05000000</i>
  <i type="logical" name="LWAVE"> F  </i>
  <i type="logical" name="LVTOT"> T  </i>
  <i type="logical" name="GGA_COMPAT"> F  </i>
  <i type="logical" name="LDIPOL"> T  </i>
  <i type="int" name="IDIPOL">     3</i>
  <i type="int" name="IVDW">    12</i>
 </incar>
 <primitive_cell>
  <structure name="primitive_cell" >
   <crystal>
    <varray name="basis" >
     <v>      18.06080055       0.00000000       0.00000000 </v>
     <v>      -0.00491865      18.06279945       0.00000000 </v>
     <v>       0.00000000       0.00000000      62.48749924 </v>
    </varray>
    <i name="volume">  20385.21054034 </i>
    <varray name="rec_basis" >
     <v>       0.05536853       0.00001508      -0.00000000 </v>
     <v>       0.00000000       0.05536240       0.00000000 </v>
     <v>       0.00000000      -0.00000000       0.01600320 </v>
    </varray>
   </crystal>
   <varray name="positions" >
    <v>       0.44480144       0.29548205       0.58208530 </v>
    <v>       0.43760248       0.79072817       0.58111104 </v>
    <v>       0.94321874       0.29617436       0.58358944 </v>
    <v>       0.95377888       0.80012553       0.58065148 </v>
    <v>       0.30076061       0.05061411       0.58143282 </v>
    <v>       0.30334421       0.56619148       0.58030790 </v>
    <v>       0.79063297       0.06178470       0.58137501 </v>
    <v>       0.07982767       0.17297630       0.55841033 </v>
    <v>       0.08860224       0.67940564       0.55648783 </v>
    <v>       0.59082522       0.18574810       0.55751117 </v>
    <v>       0.58809851       0.69087700       0.55700588 </v>
    <v>       0.33900631       0.06416215       0.55663031 </v>
    <v>       0.31927797       0.58879106       0.55410308 </v>
    <v>       0.82520828       0.08259870       0.55657684 </v>
    <v>       0.05888053       0.20603905       0.58351002 </v>
    <v>       0.04705319       0.70247064       0.58056833 </v>
    <v>       0.55247542       0.20452760       0.58201100 </v>
    <v>       0.54636343       0.70504004       0.58253992 </v>
    <v>       0.21395581       0.45340613       0.58503260 </v>
    <v>       0.18662546       0.96096343       0.58129968 </v>
    <v>       0.69991299       0.94872685       0.58143282 </v>
    <v>       0.41276494       0.32474096       0.55706772 </v>
    <v>       0.41364959       0.82915756       0.55625860 </v>
    <v>       0.90790114       0.31148987       0.55813751 </v>
    <v>       0.93107816       0.84068082       0.55646170 </v>
    <v>       0.18333213       0.41592433       0.56142485 </v>
    <v>       0.16464261       0.92761345       0.55641604 </v>
    <v>       0.68680927       0.90960581       0.55665211 </v>
    <v>       0.50337159       0.25741346       0.53849711 </v>
    <v>       0.51015061       0.76383487       0.53878080 </v>
    <v>       0.98525561       0.23052071       0.54162322 </v>
    <v>       0.01828155       0.76744935       0.53767993 </v>
    <v>       0.24516445       0.49554852       0.53956855 </v>
    <v>       0.25639410       0.98752354       0.53840615 </v>
    <v>       0.76506620       0.99107689       0.53854692 </v>
    <v>       0.44477223       0.30340181       0.67251897 </v>
    <v>       0.44538959       0.79675868       0.67466479 </v>
    <v>       0.94316243       0.30592465       0.67128844 </v>
    <v>       0.94564374       0.80024390       0.67522490 </v>
    <v>       0.29867692       0.05196233       0.67469067 </v>
    <v>       0.30539317       0.55017276       0.67410663 </v>
    <v>       0.80951391       0.05704433       0.67284142 </v>
    <v>       0.79687030       0.55546869       0.67282055 </v>
    <v>       0.07652489       0.16774575       0.65087841 </v>
    <v>       0.08131276       0.67491061       0.64925687 </v>
    <v>       0.57879547       0.17181838       0.65001533 </v>
    <v>       0.57375578       0.67356411       0.64914894 </v>
    <v>       0.16881177       0.42357139       0.64991704 </v>
    <v>       0.17452828       0.91433404       0.64962194 </v>
    <v>       0.67268526       0.41056040       0.65564273 </v>
    <v>       0.66961364       0.92629235       0.65221480 </v>
    <v>       0.04044260       0.20204022       0.67460508 </v>
    <v>       0.04971618       0.70164852       0.67433495 </v>
    <v>       0.54234914       0.19936439       0.67444520 </v>
    <v>       0.54689103       0.69916671       0.67463884 </v>
    <v>       0.20232764       0.45288333       0.67501099 </v>
    <v>       0.20103954       0.94835841       0.67491557 </v>
    <v>       0.70433725       0.44707289       0.67934388 </v>
    <v>       0.70564828       0.96128193       0.67639505 </v>
    <v>       0.42348734       0.33668620       0.64660846 </v>
    <v>       0.41572526       0.82949721       0.64952988 </v>
    <v>       0.92229661       0.32826776       0.64502660 </v>
    <v>       0.91541075       0.82907113       0.64995617 </v>
    <v>       0.33003914       0.07969753       0.64924552 </v>
    <v>       0.33359151       0.57940151       0.64846570 </v>
    <v>       0.83229205       0.07897924       0.64669258 </v>
    <v>       0.81414376       0.57910411       0.64641854 </v>
    <v>       0.00437688       0.24588922       0.63059421 </v>
    <v>       0.99677303       0.75319212       0.63127403 </v>
    <v>       0.50705974       0.25441785       0.63058474 </v>
    <v>       0.49687334       0.75305807       0.63122189 </v>
    <v>       0.25403232       0.99612721       0.63168549 </v>
    <v>       0.25055682       0.50140669       0.63141395 </v>
    <v>       0.74897896       0.99980199       0.63161901 </v>
    <v>       0.73217876       0.48485619       0.63386183 </v>
    <v>       0.44874502       0.30128397       0.76888902 </v>
    <v>       0.44874501       0.80128391       0.76888902 </v>
    <v>       0.94874497       0.30128397       0.76888902 </v>
    <v>       0.94874501       0.80128391       0.76888902 </v>
    <v>       0.30127600       0.05129450       0.76887296 </v>
    <v>       0.30127601       0.55129450       0.76887296 </v>
    <v>       0.80127594       0.05129450       0.76887296 </v>
    <v>       0.80127598       0.55129450       0.76887296 </v>
    <v>       0.07877100       0.17118050       0.74344197 </v>
    <v>       0.07877101       0.67118045       0.74344197 </v>
    <v>       0.57877100       0.17118050       0.74344197 </v>
    <v>       0.57877099       0.67118045       0.74344197 </v>
    <v>       0.17119950       0.42117448       0.74342103 </v>
    <v>       0.17119950       0.92117451       0.74342103 </v>
    <v>       0.67119951       0.42117448       0.74342103 </v>
    <v>       0.67119950       0.92117451       0.74342103 </v>
    <v>       0.05125600       0.19871499       0.76888902 </v>
    <v>       0.05125600       0.69871493       0.76888902 </v>
    <v>       0.55125603       0.19871499       0.76888902 </v>
    <v>       0.55125602       0.69871493       0.76888902 </v>
    <v>       0.19872349       0.44870397       0.76887205 </v>
    <v>       0.19872349       0.94870397       0.76887205 </v>
    <v>       0.69872352       0.44870397       0.76887205 </v>
    <v>       0.69872351       0.94870397       0.76887205 </v>
    <v>       0.42123152       0.32881747       0.74344197 </v>
    <v>       0.42123151       0.82881744       0.74344197 </v>
    <v>       0.92123147       0.32881747       0.74344197 </v>
    <v>       0.92123151       0.82881744       0.74344197 </v>
    <v>       0.32880050       0.07882500       0.74342103 </v>
    <v>       0.32880049       0.57882496       0.74342103 </v>
    <v>       0.82880048       0.07882500       0.74342103 </v>
    <v>       0.82880052       0.57882496       0.74342103 </v>
    <v>       0.00000350       0.25000148       0.72582199 </v>
    <v>       0.00000350       0.75000145       0.72582199 </v>
    <v>       0.50000351       0.25000148       0.72582199 </v>
    <v>       0.50000350       0.75000145       0.72582199 </v>
    <v>       0.25000050       0.00000000       0.72580398 </v>
    <v>       0.25000052       0.50000000       0.72580398 </v>
    <v>       0.75000050       0.00000000       0.72580398 </v>
    <v>       0.75000049       0.50000000       0.72580398 </v>
    <v>       0.78485023       0.53193517       0.52650924 </v>
    <v>       0.87269838       0.52259293       0.53677136 </v>
    <v>       0.77980461       0.63302788       0.54345953 </v>
    <v>       0.78060160       0.64340806       0.57180816 </v>
    <v>       0.69006063       0.47957151       0.56466555 </v>
    <v>       0.68160988       0.57352413       0.57036237 </v>
    <v>       0.80355624       0.43975101       0.57461511 </v>
    <v>       0.87198653       0.50726449       0.57962545 </v>
    <v>       0.85257312       0.39685443       0.54987933 </v>
    <v>       0.75959549       0.39807984       0.54251879 </v>
    <v>       0.78236592       0.40605512       0.50498440 </v>
    <v>       0.87069240       0.44067265       0.50828364 </v>
    <v>       0.91389071       0.64096781       0.54144869 </v>
    <v>       0.92279881       0.60425482       0.56794215 </v>
    <v>       0.88623583       0.69069559       0.56561746 </v>
    <v>       0.60726930       0.55299152       0.54056356 </v>
    <v>       0.66913547       0.50102829       0.52634423 </v>
    <v>       0.68499361       0.59845636       0.53033013 </v>
    <v>       0.72466251       0.48046057       0.60133207 </v>
    <v>       0.74353228       0.57606211       0.59631568 </v>
    <v>       0.80631880       0.52851234       0.61144365 </v>
    <v>       0.83401523       0.28134985       0.52124714 </v>
    <v>       0.84073116       0.30018176       0.49450958 </v>
    <v>       0.94864724       0.19682131       0.50074377 </v>
    <v>       0.96579515       0.41847739       0.52250203 </v>
    <v>       0.08369432       0.18171998       0.50612647 </v>
    <v>       0.09984671       0.40545695       0.52862899 </v>
    <v>       0.16095890       0.28295820       0.52014847 </v>
    <v>       0.99178872       0.23884041       0.55805412 </v>
    <v>       0.01225277       0.76246636       0.55549569 </v>
    <v>       0.50299626       0.25293260       0.55590104 </v>
    <v>       0.50273411       0.75750522       0.55589805 </v>
    <v>       0.24999473       0.50075569       0.55692194 </v>
    <v>       0.25321610       0.99436357       0.55580459 </v>
    <v>       0.75710652       0.99488002       0.55589762 </v>
    <v>       0.99926229       0.24830802       0.64795803 </v>
    <v>       0.99917974       0.75125740       0.64954551 </v>
    <v>       0.50218561       0.25288922       0.64866478 </v>
    <v>       0.49813336       0.74983889       0.64932317 </v>
    <v>       0.25010417       0.50037956       0.64953256 </v>
    <v>       0.25118202       0.99615443       0.64985093 </v>
    <v>       0.74307572       0.49434616       0.65090118 </v>
    <v>       0.75155760       0.00186130       0.64973933 </v>
    <v>       0.49998898       0.24999498       0.74327702 </v>
    <v>       0.49998903       0.74999496       0.74327702 </v>
    <v>       0.99998898       0.24999498       0.74327702 </v>
    <v>       0.99998903       0.74999496       0.74327702 </v>
    <v>       0.25000050       0.00000100       0.74325596 </v>
    <v>       0.25000052       0.50000100       0.74325596 </v>
    <v>       0.75000050       0.00000100       0.74325596 </v>
    <v>       0.75000049       0.50000100       0.74325596 </v>
    <v>       0.94735064       0.30944955       0.51120524 </v>
    <v>       0.98016524       0.24255204       0.50649144 </v>
    <v>       0.99234163       0.36699894       0.51865574 </v>
    <v>       0.05855046       0.23416444       0.50940395 </v>
    <v>       0.06790750       0.35956849       0.52192281 </v>
    <v>       0.10132713       0.29152294       0.51655400 </v>
    <v>       0.81477687       0.50697759       0.53885241 </v>
    <v>       0.80704796       0.61478289       0.55838482 </v>
    <v>       0.70217661       0.53363969       0.55853884 </v>
    <v>       0.81229216       0.49673319       0.57917181 </v>
    <v>       0.81493857       0.41901244       0.53804304 </v>
    <v>       0.83207841       0.40261567       0.51435648 </v>
    <v>       0.88919086       0.63769889       0.55749169 </v>
    <v>       0.66475739       0.54803371       0.53732836 </v>
    <v>       0.76999839       0.52320496       0.59815247 </v>
    <v>       0.85999967       0.31849702       0.51029512 </v>
    <v>       0.04648291       0.20263097       0.56740554 </v>
    <v>       0.05221621       0.71058622       0.56507573 </v>
    <v>       0.55000954       0.21011556       0.56573797 </v>
    <v>       0.54736931       0.71542144       0.56606964 </v>
    <v>       0.44898319       0.29361513       0.56611018 </v>
    <v>       0.44545530       0.79510706       0.56575012 </v>
    <v>       0.94516965       0.28427284       0.56732410 </v>
    <v>       0.96140572       0.80401007       0.56512261 </v>
    <v>       0.21305825       0.45313243       0.56805277 </v>
    <v>       0.19713248       0.95833692       0.56458167 </v>
    <v>       0.71091404       0.94781125       0.56476140 </v>
    <v>       0.30109365       0.03990761       0.56471604 </v>
    <v>       0.29422393       0.55622306       0.56374648 </v>
    <v>       0.79376558       0.05068484       0.56469937 </v>
    <v>       0.03959718       0.20588997       0.65875993 </v>
    <v>       0.04431481       0.70899902       0.65848931 </v>
    <v>       0.54082603       0.20714476       0.65873265 </v>
    <v>       0.54410237       0.70597493       0.65843858 </v>
    <v>       0.20652996       0.45825613       0.65948524 </v>
    <v>       0.20804679       0.95240097       0.65943152 </v>
    <v>       0.70275740       0.44603029       0.66277026 </v>
    <v>       0.70839343       0.96280298       0.66079299 </v>
    <v>       0.45188043       0.30145706       0.65705714 </v>
    <v>       0.44866589       0.79598397       0.65913995 </v>
    <v>       0.95029430       0.29891211       0.65538151 </v>
    <v>       0.94978749       0.79690577       0.65867007 </v>
    <v>       0.29427791       0.04411403       0.65923690 </v>
    <v>       0.30076922       0.54737100       0.65862569 </v>
    <v>       0.80316157       0.04998860       0.65757049 </v>
    <v>       0.78759992       0.54373851       0.65708009 </v>
    <v>       0.04586250       0.20411950       0.75272599 </v>
    <v>       0.04586250       0.70411946       0.75272599 </v>
    <v>       0.54586251       0.20411950       0.75272599 </v>
    <v>       0.54586250       0.70411946       0.75272599 </v>
    <v>       0.20411900       0.45410100       0.75270499 </v>
    <v>       0.20411899       0.95410095       0.75270499 </v>
    <v>       0.70411898       0.45410100       0.75270499 </v>
    <v>       0.70411896       0.95410095       0.75270499 </v>
    <v>       0.45414002       0.29588849       0.75272697 </v>
    <v>       0.45414001       0.79588852       0.75272697 </v>
    <v>       0.95414002       0.29588849       0.75272697 </v>
    <v>       0.95414006       0.79588852       0.75272697 </v>
    <v>       0.29588249       0.04590050       0.75270499 </v>
    <v>       0.29588248       0.54590053       0.75270499 </v>
    <v>       0.79588244       0.04590050       0.75270499 </v>
    <v>       0.79588248       0.54590053       0.75270499 </v>
    <v>       0.78323593       0.53487410       0.55890610 </v>
    <v>       0.49772281       0.00275768       0.55276138 </v>
    <v>       0.48670459       0.48723267       0.55339425 </v>
    <v>       0.99731534       0.99976480       0.55218845 </v>
    <v>       0.01249799       0.50050200       0.55529979 </v>
    <v>       0.26068012       0.24747968       0.55409746 </v>
    <v>       0.25166373       0.75314783       0.55243923 </v>
    <v>       0.73882349       0.23798823       0.55487783 </v>
    <v>       0.73744351       0.76259640       0.54857072 </v>
    <v>       0.99793892       0.99764509       0.65432326 </v>
    <v>       0.00022652       0.49749074       0.65496236 </v>
    <v>       0.49825343       0.99772516       0.65467971 </v>
    <v>       0.49842324       0.49774005       0.65413816 </v>
    <v>       0.25083860       0.24691165       0.65447056 </v>
    <v>       0.25041126       0.74783944       0.65360863 </v>
    <v>       0.74822093       0.24685503       0.65450621 </v>
    <v>       0.74964505       0.75002701       0.65457428 </v>
    <v>       0.14494904       0.10419594       0.60752251 </v>
    <v>       0.14640852       0.60928211       0.60756415 </v>
    <v>       0.64567846       0.10925330       0.60828481 </v>
    <v>       0.63031612       0.61957687       0.61108670 </v>
    <v>       0.35869798       0.39488160       0.60848462 </v>
    <v>       0.35784015       0.89478685       0.60828359 </v>
    <v>       0.86974396       0.38044670       0.61105532 </v>
    <v>       0.85842719       0.89515971       0.60750866 </v>
    <v>       0.11049369       0.35370879       0.60733528 </v>
    <v>       0.10449922       0.85833996       0.60791187 </v>
    <v>       0.61178702       0.36436777       0.60648282 </v>
    <v>       0.60451967       0.85994343       0.60782622 </v>
    <v>       0.39510981       0.14509937       0.60835923 </v>
    <v>       0.39460103       0.64090081       0.60779613 </v>
    <v>       0.88993525       0.14314887       0.60836283 </v>
    <v>       0.90426224       0.65469885       0.61103909 </v>
    <v>       0.00000000       0.00000000       0.75492797 </v>
    <v>       0.00000000       0.50000000       0.75492797 </v>
    <v>       0.50000000       0.00000000       0.75492797 </v>
    <v>       0.49999999       0.50000000       0.75492797 </v>
    <v>       0.25000050       0.25000000       0.75493902 </v>
    <v>       0.25000051       0.74999997       0.75493902 </v>
    <v>       0.75000047       0.25000000       0.75493902 </v>
    <v>       0.75000046       0.74999997       0.75493902 </v>
    <v>       0.13579050       0.11421000       0.70478299 </v>
    <v>       0.13579050       0.61420998       0.70478299 </v>
    <v>       0.63579045       0.11421000       0.70478299 </v>
    <v>       0.63579049       0.61420998       0.70478299 </v>
    <v>       0.36420952       0.38578999       0.70478299 </v>
    <v>       0.36420950       0.88578996       0.70478299 </v>
    <v>       0.86420954       0.38578999       0.70478299 </v>
    <v>       0.86420953       0.88578996       0.70478299 </v>
    <v>       0.11421799       0.36421899       0.70478098 </v>
    <v>       0.11421799       0.86421899       0.70478098 </v>
    <v>       0.61421800       0.36421899       0.70478098 </v>
    <v>       0.61421799       0.86421899       0.70478098 </v>
    <v>       0.38578201       0.13578149       0.70478202 </v>
    <v>       0.38578200       0.63578149       0.70478202 </v>
    <v>       0.88578199       0.13578149       0.70478202 </v>
    <v>       0.88578203       0.63578149       0.70478202 </v>
    <v>       0.13466700       0.11533200       0.80125603 </v>
    <v>       0.13466699       0.61533199       0.80125603 </v>
    <v>       0.63466699       0.11533200       0.80125603 </v>
    <v>       0.63466698       0.61533199       0.80125603 </v>
    <v>       0.36533300       0.38466799       0.80125603 </v>
    <v>       0.36533299       0.88466796       0.80125603 </v>
    <v>       0.86533295       0.38466799       0.80125603 </v>
    <v>       0.86533294       0.88466796       0.80125603 </v>
    <v>       0.11532850       0.36533700       0.80126500 </v>
    <v>       0.11532850       0.86533698       0.80126500 </v>
    <v>       0.61532850       0.36533700       0.80126500 </v>
    <v>       0.61532849       0.86533698       0.80126500 </v>
    <v>       0.38467151       0.13466300       0.80126500 </v>
    <v>       0.38467150       0.63466297       0.80126500 </v>
    <v>       0.88467149       0.13466300       0.80126500 </v>
    <v>       0.88467153       0.63466297       0.80126500 </v>
    <v>       0.00128447       0.99797889       0.60322453 </v>
    <v>       0.01000420       0.49964557       0.60511047 </v>
    <v>       0.49757119       0.99842440       0.60307936 </v>
    <v>       0.49843785       0.50174386       0.60320146 </v>
    <v>       0.24895760       0.24911181       0.60379997 </v>
    <v>       0.24734547       0.74933018       0.60229246 </v>
    <v>       0.75275619       0.24945684       0.60423377 </v>
    <v>       0.75051811       0.75744007       0.60421246 </v>
    <v>       0.00000050       0.00000050       0.70482896 </v>
    <v>       0.00000050       0.50000048       0.70482896 </v>
    <v>       0.50000048       0.00000050       0.70482896 </v>
    <v>       0.50000046       0.50000048       0.70482896 </v>
    <v>       0.24999999       0.24999947       0.70482499 </v>
    <v>       0.25000001       0.74999950       0.70482499 </v>
    <v>       0.74999999       0.24999947       0.70482499 </v>
    <v>       0.74999998       0.74999950       0.70482499 </v>
    <v>       0.00000000       0.00000000       0.80731797 </v>
    <v>       0.00000000       0.50000000       0.80731797 </v>
    <v>       0.50000000       0.00000000       0.80731797 </v>
    <v>       0.49999999       0.50000000       0.80731797 </v>
    <v>       0.24999999       0.25000000       0.80731797 </v>
    <v>       0.25000001       0.74999997       0.80731797 </v>
    <v>       0.74999999       0.25000000       0.80731797 </v>
    <v>       0.74999998       0.74999997       0.80731797 </v>
   </varray>
  </structure>
  <varray name="primitive_index" >
   <v type="int" >        1 </v>
   <v type="int" >        2 </v>
   <v type="int" >        3 </v>
   <v type="int" >        4 </v>
   <v type="int" >        5 </v>
   <v type="int" >        6 </v>
   <v type="int" >        7 </v>
   <v type="int" >        8 </v>
   <v type="int" >        9 </v>
   <v type="int" >       10 </v>
   <v type="int" >       11 </v>
   <v type="int" >       12 </v>
   <v type="int" >       13 </v>
   <v type="int" >       14 </v>
   <v type="int" >       15 </v>
   <v type="int" >       16 </v>
   <v type="int" >       17 </v>
   <v type="int" >       18 </v>
   <v type="int" >       19 </v>
   <v type="int" >       20 </v>
   <v type="int" >       21 </v>
   <v type="int" >       22 </v>
   <v type="int" >       23 </v>
   <v type="int" >       24 </v>
   <v type="int" >       25 </v>
   <v type="int" >       26 </v>
   <v type="int" >       27 </v>
   <v type="int" >       28 </v>
   <v type="int" >       29 </v>
   <v type="int" >       30 </v>
   <v type="int" >       31 </v>
   <v type="int" >       32 </v>
   <v type="int" >       33 </v>
   <v type="int" >       34 </v>
   <v type="int" >       35 </v>
   <v type="int" >       36 </v>
   <v type="int" >       37 </v>
   <v type="int" >       38 </v>
   <v type="int" >       39 </v>
   <v type="int" >       40 </v>
   <v type="int" >       41 </v>
   <v type="int" >       42 </v>
   <v type="int" >       43 </v>
   <v type="int" >       44 </v>
   <v type="int" >       45 </v>
   <v type="int" >       46 </v>
   <v type="int" >       47 </v>
   <v type="int" >       48 </v>
   <v type="int" >       49 </v>
   <v type="int" >       50 </v>
   <v type="int" >       51 </v>
   <v type="int" >       52 </v>
   <v type="int" >       53 </v>
   <v type="int" >       54 </v>
   <v type="int" >       55 </v>
   <v type="int" >       56 </v>
   <v type="int" >       57 </v>
   <v type="int" >       58 </v>
   <v type="int" >       59 </v>
   <v type="int" >       60 </v>
   <v type="int" >       61 </v>
   <v type="int" >       62 </v>
   <v type="int" >       63 </v>
   <v type="int" >       64 </v>
   <v type="int" >       65 </v>
   <v type="int" >       66 </v>
   <v type="int" >       67 </v>
   <v type="int" >       68 </v>
   <v type="int" >       69 </v>
   <v type="int" >       70 </v>
   <v type="int" >       71 </v>
   <v type="int" >       72 </v>
   <v type="int" >       73 </v>
   <v type="int" >       74 </v>
   <v type="int" >       75 </v>
   <v type="int" >       76 </v>
   <v type="int" >       77 </v>
   <v type="int" >       78 </v>
   <v type="int" >       79 </v>
   <v type="int" >       80 </v>
   <v type="int" >       81 </v>
   <v type="int" >       82 </v>
   <v type="int" >       83 </v>
   <v type="int" >       84 </v>
   <v type="int" >       85 </v>
   <v type="int" >       86 </v>
   <v type="int" >       87 </v>
   <v type="int" >       88 </v>
   <v type="int" >       89 </v>
   <v type="int" >       90 </v>
   <v type="int" >       91 </v>
   <v type="int" >       92 </v>
   <v type="int" >       93 </v>
   <v type="int" >       94 </v>
   <v type="int" >       95 </v>
   <v type="int" >       96 </v>
   <v type="int" >       97 </v>
   <v type="int" >       98 </v>
   <v type="int" >       99 </v>
   <v type="int" >      100 </v>
   <v type="int" >      101 </v>
   <v type="int" >      102 </v>
   <v type="int" >      103 </v>
   <v type="int" >      104 </v>
   <v type="int" >      105 </v>
   <v type="int" >      106 </v>
   <v type="int" >      107 </v>
   <v type="int" >      108 </v>
   <v type="int" >      109 </v>
   <v type="int" >      110 </v>
   <v type="int" >      111 </v>
   <v type="int" >      112 </v>
   <v type="int" >      113 </v>
   <v type="int" >      114 </v>
   <v type="int" >      115 </v>
   <v type="int" >      116 </v>
   <v type="int" >      117 </v>
   <v type="int" >      118 </v>
   <v type="int" >      119 </v>
   <v type="int" >      120 </v>
   <v type="int" >      121 </v>
   <v type="int" >      122 </v>
   <v type="int" >      123 </v>
   <v type="int" >      124 </v>
   <v type="int" >      125 </v>
   <v type="int" >      126 </v>
   <v type="int" >      127 </v>
   <v type="int" >      128 </v>
   <v type="int" >      129 </v>
   <v type="int" >      130 </v>
   <v type="int" >      131 </v>
   <v type="int" >      132 </v>
   <v type="int" >      133 </v>
   <v type="int" >      134 </v>
   <v type="int" >      135 </v>
   <v type="int" >      136 </v>
   <v type="int" >      137 </v>
   <v type="int" >      138 </v>
   <v type="int" >      139 </v>
   <v type="int" >      140 </v>
   <v type="int" >      141 </v>
   <v type="int" >      142 </v>
   <v type="int" >      143 </v>
   <v type="int" >      144 </v>
   <v type="int" >      145 </v>
   <v type="int" >      146 </v>
   <v type="int" >      147 </v>
   <v type="int" >      148 </v>
   <v type="int" >      149 </v>
   <v type="int" >      150 </v>
   <v type="int" >      151 </v>
   <v type="int" >      152 </v>
   <v type="int" >      153 </v>
   <v type="int" >      154 </v>
   <v type="int" >      155 </v>
   <v type="int" >      156 </v>
   <v type="int" >      157 </v>
   <v type="int" >      158 </v>
   <v type="int" >      159 </v>
   <v type="int" >      160 </v>
   <v type="int" >      161 </v>
   <v type="int" >      162 </v>
   <v type="int" >      163 </v>
   <v type="int" >      164 </v>
   <v type="int" >      165 </v>
   <v type="int" >      166 </v>
   <v type="int" >      167 </v>
   <v type="int" >      168 </v>
   <v type="int" >      169 </v>
   <v type="int" >      170 </v>
   <v type="int" >      171 </v>
   <v type="int" >      172 </v>
   <v type="int" >      173 </v>
   <v type="int" >      174 </v>
   <v type="int" >      175 </v>
   <v type="int" >      176 </v>
   <v type="int" >      177 </v>
   <v type="int" >      178 </v>
   <v type="int" >      179 </v>
   <v type="int" >      180 </v>
   <v type="int" >      181 </v>
   <v type="int" >      182 </v>
   <v type="int" >      183 </v>
   <v type="int" >      184 </v>
   <v type="int" >      185 </v>
   <v type="int" >      186 </v>
   <v type="int" >      187 </v>
   <v type="int" >      188 </v>
   <v type="int" >      189 </v>
   <v type="int" >      190 </v>
   <v type="int" >      191 </v>
   <v type="int" >      192 </v>
   <v type="int" >      193 </v>
   <v type="int" >      194 </v>
   <v type="int" >      195 </v>
   <v type="int" >      196 </v>
   <v type="int" >      197 </v>
   <v type="int" >      198 </v>
   <v type="int" >      199 </v>
   <v type="int" >      200 </v>
   <v type="int" >      201 </v>
   <v type="int" >      202 </v>
   <v type="int" >      203 </v>
   <v type="int" >      204 </v>
   <v type="int" >      205 </v>
   <v type="int" >      206 </v>
   <v type="int" >      207 </v>
   <v type="int" >      208 </v>
   <v type="int" >      209 </v>
   <v type="int" >      210 </v>
   <v type="int" >      211 </v>
   <v type="int" >      212 </v>
   <v type="int" >      213 </v>
   <v type="int" >      214 </v>
   <v type="int" >      215 </v>
   <v type="int" >      216 </v>
   <v type="int" >      217 </v>
   <v type="int" >      218 </v>
   <v type="int" >      219 </v>
   <v type="int" >      220 </v>
   <v type="int" >      221 </v>
   <v type="int" >      222 </v>
   <v type="int" >      223 </v>
   <v type="int" >      224 </v>
   <v type="int" >      225 </v>
   <v type="int" >      226 </v>
   <v type="int" >      227 </v>
   <v type="int" >      228 </v>
   <v type="int" >      229 </v>
   <v type="int" >      230 </v>
   <v type="int" >      231 </v>
   <v type="int" >      232 </v>
   <v type="int" >      233 </v>
   <v type="int" >      234 </v>
   <v type="int" >      235 </v>
   <v type="int" >      236 </v>
   <v type="int" >      237 </v>
   <v type="int" >      238 </v>
   <v type="int" >      239 </v>
   <v type="int" >      240 </v>
   <v type="int" >      241 </v>
   <v type="int" >      242 </v>
   <v type="int" >      243 </v>
   <v type="int" >      244 </v>
   <v type="int" >      245 </v>
   <v type="int" >      246 </v>
   <v type="int" >      247 </v>
   <v type="int" >      248 </v>
   <v type="int" >      249 </v>
   <v type="int" >      250 </v>
   <v type="int" >      251 </v>
   <v type="int" >      252 </v>
   <v type="int" >      253 </v>
   <v type="int" >      254 </v>
   <v type="int" >      255 </v>
   <v type="int" >      256 </v>
   <v type="int" >      257 </v>
   <v type="int" >      258 </v>
   <v type="int" >      259 </v>
   <v type="int" >      260 </v>
   <v type="int" >      261 </v>
   <v type="int" >      262 </v>
   <v type="int" >      263 </v>
   <v type="int" >      264 </v>
   <v type="int" >      265 </v>
   <v type="int" >      266 </v>
   <v type="int" >      267 </v>
   <v type="int" >      268 </v>
   <v type="int" >      269 </v>
   <v type="int" >      270 </v>
   <v type="int" >      271 </v>
   <v type="int" >      272 </v>
   <v type="int" >      273 </v>
   <v type="int" >      274 </v>
   <v type="int" >      275 </v>
   <v type="int" >      276 </v>
   <v type="int" >      277 </v>
   <v type="int" >      278 </v>
   <v type="int" >      279 </v>
   <v type="int" >      280 </v>
   <v type="int" >      281 </v>
   <v type="int" >      282 </v>
   <v type="int" >      283 </v>
   <v type="int" >      284 </v>
   <v type="int" >      285 </v>
   <v type="int" >      286 </v>
   <v type="int" >      287 </v>
   <v type="int" >      288 </v>
   <v type="int" >      289 </v>
   <v type="int" >      290 </v>
   <v type="int" >      291 </v>
   <v type="int" >      292 </v>
   <v type="int" >      293 </v>
   <v type="int" >      294 </v>
   <v type="int" >      295 </v>
   <v type="int" >      296 </v>
   <v type="int" >      297 </v>
   <v type="int" >      298 </v>
   <v type="int" >      299 </v>
   <v type="int" >      300 </v>
   <v type="int" >      301 </v>
   <v type="int" >      302 </v>
   <v type="int" >      303 </v>
   <v type="int" >      304 </v>
   <v type="int" >      305 </v>
   <v type="int" >      306 </v>
   <v type="int" >      307 </v>
   <v type="int" >      308 </v>
   <v type="int" >      309 </v>
   <v type="int" >      310 </v>
   <v type="int" >      311 </v>
   <v type="int" >      312 </v>
   <v type="int" >      313 </v>
   <v type="int" >      314 </v>
   <v type="int" >      315 </v>
   <v type="int" >      316 </v>
   <v type="int" >      317 </v>
   <v type="int" >      318 </v>
   <v type="int" >      319 </v>
   <v type="int" >      320 </v>
   <v type="int" >      321 </v>
   <v type="int" >      322 </v>
   <v type="int" >      323 </v>
   <v type="int" >      324 </v>
   <v type="int" >      325 </v>
  </varray>
 </primitive_cell>
 <kpoints>
  <generation param="Gamma">
   <v type="int" name="divisions">       3        3        1 </v>
   <v name="usershift">      0.00000000       0.00000000       0.00000000 </v>
   <v name="genvec1">      0.33333333       0.00000000       0.00000000 </v>
   <v name="genvec2">      0.00000000       0.33333333       0.00000000 </v>
   <v name="genvec3">      0.00000000       0.00000000       1.00000000 </v>
   <v name="shift">      0.00000000       0.00000000       0.00000000 </v>
  </generation>
  <varray name="kpointlist" >
   <v>       0.00000000       0.00000000       0.00000000 </v>
   <v>       0.33333333       0.00000000       0.00000000 </v>
   <v>       0.00000000       0.33333333       0.00000000 </v>
   <v>       0.33333333       0.33333333       0.00000000 </v>
   <v>      -0.33333333       0.33333333       0.00000000 </v>
  </varray>
  <varray name="weights" >
   <v>       0.11111111 </v>
   <v>       0.22222222 </v>
   <v>       0.22222222 </v>
   <v>       0.22222222 </v>
   <v>       0.22222222 </v>
  </varray>
 </kpoints>
 <parameters>
  <separator name="general" >
   <i type="string" name="SYSTEM">PSC</i>
   <i type="logical" name="LCOMPAT"> F  </i>
  </separator>
  <separator name="electronic" >
   <i type="string" name="PREC">normal</i>
   <i name="ENMAX">    500.00000000</i>
   <i name="ENAUG">    644.87300000</i>
   <i name="EDIFF">      0.00010000</i>
   <i type="int" name="IALGO">    38</i>
   <i type="int" name="IWAVPR">    10</i>
   <i type="int" name="NBANDS">   732</i>
   <i type="int" name="NBANDSLOW">    -1</i>
   <i type="int" name="NBANDSHIGH">    -1</i>
   <i name="NELECT">   1134.00000000</i>
   <i type="int" name="TURBO">     0</i>
   <i type="int" name="IRESTART">     0</i>
   <i type="int" name="NREBOOT">     0</i>
   <i type="int" name="NMIN">     0</i>
   <i name="EREF">      0.00000000</i>
   <separator name="electronic smearing" >
    <i type="int" name="ISMEAR">     0</i>
    <i name="SIGMA">      0.05000000</i>
    <i name="KSPACING">      0.50000000</i>
    <i type="logical" name="KGAMMA"> T  </i>
    <i type="logical" name="KBLOWUP"> T  </i>
   </separator>
   <separator name="electronic projectors" >
    <i type="logical" name="LREAL"> T  </i>
    <v name="ROPT">     -0.00050000     -0.00050000     -0.00050000     -0.00050000     -0.00050000</v>
    <i type="int" name="LMAXPAW">  -100</i>
    <i type="int" name="LMAXMIX">     2</i>
    <i type="logical" name="NLSPLINE"> F  </i>
   </separator>
   <separator name="electronic startup" >
    <i type="int" name="ISTART">     0</i>
    <i type="int" name="ICHARG">     1</i>
    <i type="int" name="INIWAV">     1</i>
   </separator>
   <separator name="electronic spin" >
    <i type="int" name="ISPIN">     1</i>
    <i type="logical" name="LNONCOLLINEAR"> F  </i>
    <v name="MAGMOM">      1.00000000      1.00000000      1.00000000      1.00000000      1.00000000      1.00000000      1.00000000      1.00000000      1.00000000      1.00000000      1.00000000      1.00000000      1.00000000      1.00000000      1.00000000      1.00000000      1.00000000      1.00000000      1.00000000      1.00000000
      1.00000000      1.00000000      1.00000000      1.00000000      1.00000000      1.00000000      1.00000000      1.00000000      1.00000000      1.00000000      1.00000000      1.00000000      1.00000000      1.00000000      1.00000000      1.00000000      1.00000000      1.00000000      1.00000000      1.00000000
      1.00000000      1.00000000      1.00000000      1.00000000      1.00000000      1.00000000      1.00000000      1.00000000      1.00000000      1.00000000      1.00000000      1.00000000      1.00000000      1.00000000      1.00000000      1.00000000      1.00000000      1.00000000      1.00000000      1.00000000
      1.00000000      1.00000000      1.00000000      1.00000000      1.00000000      1.00000000      1.00000000      1.00000000      1.00000000      1.00000000      1.00000000      1.00000000      1.00000000      1.00000000      1.00000000      1.00000000      1.00000000      1.00000000      1.00000000      1.00000000
      1.00000000      1.00000000      1.00000000      1.00000000      1.00000000      1.00000000      1.00000000      1.00000000      1.00000000      1.00000000      1.00000000      1.00000000      1.00000000      1.00000000      1.00000000      1.00000000      1.00000000      1.00000000      1.00000000      1.00000000
      1.00000000      1.00000000      1.00000000      1.00000000      1.00000000      1.00000000      1.00000000      1.00000000      1.00000000      1.00000000      1.00000000      1.00000000      1.00000000      1.00000000      1.00000000      1.00000000      1.00000000      1.00000000      1.00000000      1.00000000
      1.00000000      1.00000000      1.00000000      1.00000000      1.00000000      1.00000000      1.00000000      1.00000000      1.00000000      1.00000000      1.00000000      1.00000000      1.00000000      1.00000000      1.00000000      1.00000000      1.00000000      1.00000000      1.00000000      1.00000000
      1.00000000      1.00000000      1.00000000      1.00000000      1.00000000      1.00000000      1.00000000      1.00000000      1.00000000      1.00000000      1.00000000      1.00000000      1.00000000      1.00000000      1.00000000      1.00000000      1.00000000      1.00000000      1.00000000      1.00000000
      1.00000000      1.00000000      1.00000000      1.00000000      1.00000000      1.00000000      1.00000000      1.00000000      1.00000000      1.00000000      1.00000000      1.00000000      1.00000000      1.00000000      1.00000000      1.00000000      1.00000000      1.00000000      1.00000000      1.00000000
      1.00000000      1.00000000      1.00000000      1.00000000      1.00000000      1.00000000      1.00000000      1.00000000      1.00000000      1.00000000      1.00000000      1.00000000      1.00000000      1.00000000      1.00000000      1.00000000      1.00000000      1.00000000      1.00000000      1.00000000
      1.00000000      1.00000000      1.00000000      1.00000000      1.00000000      1.00000000      1.00000000      1.00000000      1.00000000      1.00000000      1.00000000      1.00000000      1.00000000      1.00000000      1.00000000      1.00000000      1.00000000      1.00000000      1.00000000      1.00000000
      1.00000000      1.00000000      1.00000000      1.00000000      1.00000000      1.00000000      1.00000000      1.00000000      1.00000000      1.00000000      1.00000000      1.00000000      1.00000000      1.00000000      1.00000000      1.00000000      1.00000000      1.00000000      1.00000000      1.00000000
      1.00000000      1.00000000      1.00000000      1.00000000      1.00000000      1.00000000      1.00000000      1.00000000      1.00000000      1.00000000      1.00000000      1.00000000      1.00000000      1.00000000      1.00000000      1.00000000      1.00000000      1.00000000      1.00000000      1.00000000
      1.00000000      1.00000000      1.00000000      1.00000000      1.00000000      1.00000000      1.00000000      1.00000000      1.00000000      1.00000000      1.00000000      1.00000000      1.00000000      1.00000000      1.00000000      1.00000000      1.00000000      1.00000000      1.00000000      1.00000000
      1.00000000      1.00000000      1.00000000      1.00000000      1.00000000      1.00000000      1.00000000      1.00000000      1.00000000      1.00000000      1.00000000      1.00000000      1.00000000      1.00000000      1.00000000      1.00000000      1.00000000      1.00000000      1.00000000      1.00000000
      1.00000000      1.00000000      1.00000000      1.00000000      1.00000000      1.00000000      1.00000000      1.00000000      1.00000000      1.00000000      1.00000000      1.00000000      1.00000000      1.00000000      1.00000000      1.00000000      1.00000000      1.00000000      1.00000000      1.00000000
      1.00000000      1.00000000      1.00000000      1.00000000      1.00000000</v>
    <i name="NUPDOWN">     -1.00000000</i>
    <i type="logical" name="LSORBIT"> F  </i>
    <v name="SAXIS">      0.00000000      0.00000000      1.00000000</v>
    <i type="logical" name="LSPIRAL"> F  </i>
    <v name="QSPIRAL">      0.00000000      0.00000000      0.00000000</v>
    <i type="logical" name="LZEROZ"> F  </i>
   </separator>
   <separator name="electronic exchange-correlation" >
    <i type="logical" name="LASPH"> F  </i>
    <i type="logical" name="LMETAGGA"> F  </i>
   </separator>
   <separator name="electronic convergence" >
    <i type="int" name="NELM">   600</i>
    <i type="int" name="NELMDL">     0</i>
    <i type="int" name="NELMIN">     2</i>
    <i name="ENINI">    500.00000000</i>
    <separator name="electronic convergence detail" >
     <i type="logical" name="LDIAG"> T  </i>
     <i type="logical" name="LSUBROT"> F  </i>
     <i name="WEIMIN">      0.00000000</i>
     <i name="EBREAK">      0.00000003</i>
     <i name="DEPER">      0.30000000</i>
     <i type="int" name="NRMM">     4</i>
     <i name="TIME">      0.40000000</i>
    </separator>
   </separator>
   <separator name="electronic mixer" >
    <i name="AMIX">      0.40000000</i>
    <i name="BMIX">      0.01000000</i>
    <i name="AMIN">      0.01000000</i>
    <i name="AMIX_MAG">      1.60000000</i>
    <i name="BMIX_MAG">      0.01000000</i>
    <separator name="electronic mixer details" >
     <i type="int" name="IMIX">     4</i>
     <i type="logical" name="MIXFIRST"> F  </i>
     <i type="int" name="MAXMIX">   -45</i>
     <i name="WC">    100.00000000</i>
     <i type="int" name="INIMIX">     1</i>
     <i type="int" name="MIXPRE">     1</i>
     <i type="int" name="MREMOVE">     5</i>
    </separator>
   </separator>
   <separator name="electronic dipolcorrection" >
    <i type="logical" name="LDIPOL"> T  </i>
    <i type="logical" name="LMONO"> F  </i>
    <i type="int" name="IDIPOL">     3</i>
    <i name="EPSILON">      1.00000000</i>
    <v name="DIPOL">   -100.00000000   -100.00000000   -100.00000000</v>
    <i name="EFIELD">      0.00000000</i>
   </separator>
  </separator>
  <separator name="grids" >
   <i type="int" name="NGX">   100</i>
   <i type="int" name="NGY">   100</i>
   <i type="int" name="NGZ">   350</i>
   <i type="int" name="NGXF">   200</i>
   <i type="int" name="NGYF">   200</i>
   <i type="int" name="NGZF">   700</i>
   <i type="logical" name="ADDGRID"> F  </i>
  </separator>
  <separator name="ionic" >
   <i type="int" name="NSW">     0</i>
   <i type="int" name="IBRION">    -1</i>
   <i type="int" name="MDALGO">     0</i>
   <i type="int" name="ISIF">     2</i>
   <i name="PSTRESS">      0.00000000</i>
   <i name="EDIFFG">      0.00100000</i>
   <i type="int" name="NFREE">     0</i>
   <i name="POTIM">      0.50000000</i>
   <i name="SMASS">     -3.00000000</i>
   <i name="SCALEE">      1.00000000</i>
  </separator>
  <separator name="ionic md" >
   <i name="TEBEG">      0.00010000</i>
   <i name="TEEND">      0.00010000</i>
   <i type="int" name="NBLOCK">     1</i>
   <i type="int" name="KBLOCK">     1</i>
   <i type="int" name="NPACO">   256</i>
   <i name="APACO">     16.00000000</i>
  </separator>
  <separator name="symmetry" >
   <i type="int" name="ISYM">     0</i>
   <i name="SYMPREC">      0.00001000</i>
  </separator>
  <separator name="dos" >
   <i type="int" name="LORBIT">     0</i>
   <v name="RWIGS">     -1.00000000     -1.00000000     -1.00000000     -1.00000000     -1.00000000</v>
   <i type="int" name="NEDOS">   301</i>
   <i name="EMIN">     10.00000000</i>
   <i name="EMAX">    -10.00000000</i>
   <i name="EFERMI">      0.00000000</i>
  </separator>
  <separator name="writing" >
   <i type="int" name="NWRITE">     2</i>
   <i type="logical" name="LWAVE"> F  </i>
   <i type="logical" name="LDOWNSAMPLE"> F  </i>
   <i type="logical" name="LCHARG"> T  </i>
   <i type="logical" name="LPARD"> F  </i>
   <i type="logical" name="LVTOT"> T  </i>
   <i type="logical" name="LVHAR"> F  </i>
   <i type="logical" name="LELF"> F  </i>
   <i type="logical" name="LOPTICS"> F  </i>
   <v name="STM">      0.00000000      0.00000000      0.00000000      0.00000000      0.00000000      0.00000000      0.00000000</v>
  </separator>
  <separator name="performance" >
   <i type="int" name="NPAR">     4</i>
   <i type="int" name="NSIM">     4</i>
   <i type="int" name="NBLK">    -1</i>
   <i type="logical" name="LPLANE"> T  </i>
   <i type="logical" name="LSCALAPACK"> T  </i>
   <i type="logical" name="LSCAAWARE"> F  </i>
   <i type="logical" name="LSCALU"> F  </i>
   <i type="logical" name="LASYNC"> F  </i>
   <i type="logical" name="LORBITALREAL"> F  </i>
  </separator>
  <separator name="miscellaneous" >
   <i type="int" name="IDIOT">     3</i>
   <i type="int" name="PHON_NSTRUCT">    -1</i>
   <i type="logical" name="LMUSIC"> F  </i>
   <v name="POMASS">      1.00000000     12.01100000     14.00100000    126.90400000    207.20000000</v>
   <v name="DARWINR">      0.00000000      0.00000000      0.00000000      0.00000000      0.00000000</v>
   <v name="DARWINV">      1.00000000      1.00000000      1.00000000      1.00000000      1.00000000</v>
   <i type="logical" name="LCORR"> T  </i>
  </separator>
  <i type="logical" name="GGA_COMPAT"> F  </i>
  <i type="logical" name="LBERRY"> F  </i>
  <i type="int" name="ICORELEVEL">     0</i>
  <i type="logical" name="LDAU"> F  </i>
  <i type="int" name="I_CONSTRAINED_M">     0</i>
  <separator name="electronic exchange-correlation" >
   <i type="string" name="GGA">--</i>
   <i type="int" name="VOSKOWN">     0</i>
   <i type="logical" name="LHFCALC"> F  </i>
   <i type="string" name="PRECFOCK"></i>
   <i type="logical" name="LSYMGRAD"> F  </i>
   <i type="logical" name="LHFONE"> F  </i>
   <i type="logical" name="LRHFCALC"> F  </i>
   <i type="logical" name="LTHOMAS"> F  </i>
   <i type="logical" name="LMODELHF"> F  </i>
   <i type="logical" name="LFOCKACE"> F  </i>
   <i name="ENCUT4O">     -1.00000000</i>
   <i type="int" name="EXXOEP">     0</i>
   <i type="int" name="FOURORBIT">     0</i>
   <i name="AEXX">      0.00000000</i>
   <i name="HFALPHA">      0.00000000</i>
   <i name="MCALPHA">      0.00000000</i>
   <i name="ALDAX">      1.00000000</i>
   <i name="AGGAX">      1.00000000</i>
   <i name="ALDAC">      1.00000000</i>
   <i name="AGGAC">      1.00000000</i>
   <i type="int" name="NKREDX">     1</i>
   <i type="int" name="NKREDY">     1</i>
   <i type="int" name="NKREDZ">     1</i>
   <i type="logical" name="SHIFTRED"> F  </i>
   <i type="logical" name="ODDONLY"> F  </i>
   <i type="logical" name="EVENONLY"> F  </i>
   <i type="int" name="LMAXFOCK">     0</i>
   <i type="int" name="NMAXFOCKAE">     0</i>
   <i type="logical" name="LFOCKAEDFT"> F  </i>
   <i name="HFSCREEN">      0.00000000</i>
   <i name="HFSCREENC">      0.00000000</i>
   <i type="int" name="NBANDSGWLOW">     0</i>
  </separator>
  <separator name="vdW DFT" >
   <i type="logical" name="LUSE_VDW"> F  </i>
   <i name="Zab_VDW">     -0.84910000</i>
   <i name="PARAM1">      0.12340000</i>
   <i name="PARAM2">      1.00000000</i>
   <i name="PARAM3">      0.00000000</i>
  </separator>
  <separator name="model GW" >
   <i type="int" name="MODEL_GW">     0</i>
   <i name="MODEL_EPS0">     37.63423484</i>
   <i name="MODEL_ALPHA">      1.00000000</i>
  </separator>
  <separator name="linear response parameters" >
   <i type="logical" name="LEPSILON"> F  </i>
   <i type="logical" name="LRPA"> F  </i>
   <i type="logical" name="LNABLA"> F  </i>
   <i type="logical" name="LVEL"> F  </i>
   <i type="int" name="KINTER">     0</i>
   <i name="CSHIFT">      0.10000000</i>
   <i name="OMEGAMAX">     -1.00000000</i>
   <i name="DEG_THRESHOLD">      0.00200000</i>
   <i name="RTIME">     -0.10000000</i>
   <i name="WPLASMAI">      0.00000000</i>
   <v name="DFIELD">      0.00000000      0.00000000      0.00000000</v>
   <v name="WPLASMA">      0.00000000      0.00000000      0.00000000      0.00000000      0.00000000      0.00000000      0.00000000      0.00000000      0.00000000</v>
  </separator>
  <separator name="orbital magnetization" >
   <i type="logical" name="NUCIND"> F  </i>
   <v name="MAGPOS">      0.00000000      0.00000000      0.00000000</v>
   <i type="logical" name="LNICSALL"> T  </i>
   <i type="logical" name="ORBITALMAG"> F  </i>
   <i type="logical" name="LMAGBLOCH"> F  </i>
   <i type="logical" name="LCHIMAG"> F  </i>
   <i type="logical" name="LGAUGE"> T  </i>
   <i type="int" name="MAGATOM">     0</i>
   <v name="MAGDIPOL">      0.00000000      0.00000000      0.00000000</v>
   <v name="AVECCONST">      0.00000000      0.00000000      0.00000000</v>
  </separator>
  <separator name="response functions" >
   <i type="logical" name="LFINITE_TEMPERATURE"> F  </i>
   <i type="logical" name="LADDER"> F  </i>
   <i type="logical" name="LRPAFORCE"> F  </i>
   <i type="logical" name="LFXC"> F  </i>
   <i type="logical" name="LHARTREE"> T  </i>
   <i type="int" name="IBSE">     0</i>
   <v type="int" name="KPOINT">    -1     0     0     0</v>
   <i type="logical" name="LTCTC"> F  </i>
   <i type="logical" name="LTCTE"> F  </i>
   <i type="logical" name="LTETE"> F  </i>
   <i type="logical" name="LTRIPLET"> F  </i>
   <i type="logical" name="LFXCEPS"> F  </i>
   <i type="logical" name="LFXHEG"> F  </i>
   <i type="int" name="NATURALO">     2</i>
   <i type="logical" name="LHOLEGF"> F  </i>
   <i type="logical" name="L2ORDER"> F  </i>
   <i type="logical" name="LDMP1"> F  </i>
   <i type="logical" name="LMP2LT"> F  </i>
   <i type="logical" name="LSMP2LT"> F  </i>
   <i type="logical" name="LGWLF"> F  </i>
   <i name="ENCUTGW">     -2.00000000</i>
   <i name="ENCUTGWSOFT">     -2.00000000</i>
   <i name="ENCUTLF">     -1.00000000</i>
   <i type="logical" name="LESF_SPLINES"> F  </i>
   <i type="int" name="LMAXMP2">    -1</i>
   <i name="SCISSOR">      0.00000000</i>
   <i type="int" name="NOMEGA">     0</i>
   <i type="int" name="NOMEGAR">     0</i>
   <i type="int" name="NBANDSGW">    -1</i>
   <i type="int" name="NBANDSO">    -1</i>
   <i type="int" name="NBANDSV">    -1</i>
   <i type="int" name="NELM">   600</i>
   <i type="int" name="NELMHF">     1</i>
   <i type="int" name="DIM">     3</i>
   <i type="int" name="IESPILON">     4</i>
   <i type="int" name="ANTIRES">     0</i>
   <i name="OMEGAMAX">    -30.00000000</i>
   <i name="OMEGAMIN">    -30.00000000</i>
   <i name="OMEGATL">   -200.00000000</i>
   <i type="int" name="OMEGAGRID">     0</i>
   <i name="CSHIFT">     -0.10000000</i>
   <i type="logical" name="LSELFENERGY"> F  </i>
   <i type="logical" name="LSPECTRAL"> F  </i>
   <i type="logical" name="LSPECTRALGW"> F  </i>
   <i type="logical" name="LSINGLES"> F  </i>
   <i type="logical" name="LFERMIGW"> F  </i>
   <i type="logical" name="ODDONLYGW"> F  </i>
   <i type="logical" name="EVENONLYGW"> F  </i>
   <i type="int" name="NKREDLFX">     1</i>
   <i type="int" name="NKREDLFY">     1</i>
   <i type="int" name="NKREDLFZ">     1</i>
   <i type="int" name="MAXMEM">  2800</i>
   <i type="int" name="TELESCOPE">     0</i>
   <i type="int" name="NTAUPAR">    -1</i>
   <i type="int" name="NOMEGAPAR">    -1</i>
   <i name="DAMP_NEWTON">      0.80000001</i>
   <i name="LAMBDA">      1.00000000</i>
  </separator>
  <separator name="External order field" >
   <i name="OFIELD_KAPPA">      0.00000000</i>
   <v name="OFIELD_K">      0.00000000      0.00000000      0.00000000</v>
   <i name="OFIELD_Q6_NEAR">      0.00000000</i>
   <i name="OFIELD_Q6_FAR">      0.00000000</i>
   <i name="OFIELD_A">      0.00000000</i>
  </separator>
 </parameters>
 <atominfo>
  <atoms>     325 </atoms>
  <types>       5 </types>
  <array name="atoms" >
   <dimension dim="1">ion</dimension>
   <field type="string">element</field>
   <field type="int">atomtype</field>
   <set>
    <rc><c>H </c><c>   1</c></rc>
    <rc><c>H </c><c>   1</c></rc>
    <rc><c>H </c><c>   1</c></rc>
    <rc><c>H </c><c>   1</c></rc>
    <rc><c>H </c><c>   1</c></rc>
    <rc><c>H </c><c>   1</c></rc>
    <rc><c>H </c><c>   1</c></rc>
    <rc><c>H </c><c>   1</c></rc>
    <rc><c>H </c><c>   1</c></rc>
    <rc><c>H </c><c>   1</c></rc>
    <rc><c>H </c><c>   1</c></rc>
    <rc><c>H </c><c>   1</c></rc>
    <rc><c>H </c><c>   1</c></rc>
    <rc><c>H </c><c>   1</c></rc>
    <rc><c>H </c><c>   1</c></rc>
    <rc><c>H </c><c>   1</c></rc>
    <rc><c>H </c><c>   1</c></rc>
    <rc><c>H </c><c>   1</c></rc>
    <rc><c>H </c><c>   1</c></rc>
    <rc><c>H </c><c>   1</c></rc>
    <rc><c>H </c><c>   1</c></rc>
    <rc><c>H </c><c>   1</c></rc>
    <rc><c>H </c><c>   1</c></rc>
    <rc><c>H </c><c>   1</c></rc>
    <rc><c>H </c><c>   1</c></rc>
    <rc><c>H </c><c>   1</c></rc>
    <rc><c>H </c><c>   1</c></rc>
    <rc><c>H </c><c>   1</c></rc>
    <rc><c>H </c><c>   1</c></rc>
    <rc><c>H </c><c>   1</c></rc>
    <rc><c>H </c><c>   1</c></rc>
    <rc><c>H </c><c>   1</c></rc>
    <rc><c>H </c><c>   1</c></rc>
    <rc><c>H </c><c>   1</c></rc>
    <rc><c>H </c><c>   1</c></rc>
    <rc><c>H </c><c>   1</c></rc>
    <rc><c>H </c><c>   1</c></rc>
    <rc><c>H </c><c>   1</c></rc>
    <rc><c>H </c><c>   1</c></rc>
    <rc><c>H </c><c>   1</c></rc>
    <rc><c>H </c><c>   1</c></rc>
    <rc><c>H </c><c>   1</c></rc>
    <rc><c>H </c><c>   1</c></rc>
    <rc><c>H </c><c>   1</c></rc>
    <rc><c>H </c><c>   1</c></rc>
    <rc><c>H </c><c>   1</c></rc>
    <rc><c>H </c><c>   1</c></rc>
    <rc><c>H </c><c>   1</c></rc>
    <rc><c>H </c><c>   1</c></rc>
    <rc><c>H </c><c>   1</c></rc>
    <rc><c>H </c><c>   1</c></rc>
    <rc><c>H </c><c>   1</c></rc>
    <rc><c>H </c><c>   1</c></rc>
    <rc><c>H </c><c>   1</c></rc>
    <rc><c>H </c><c>   1</c></rc>
    <rc><c>H </c><c>   1</c></rc>
    <rc><c>H </c><c>   1</c></rc>
    <rc><c>H </c><c>   1</c></rc>
    <rc><c>H </c><c>   1</c></rc>
    <rc><c>H </c><c>   1</c></rc>
    <rc><c>H </c><c>   1</c></rc>
    <rc><c>H </c><c>   1</c></rc>
    <rc><c>H </c><c>   1</c></rc>
    <rc><c>H </c><c>   1</c></rc>
    <rc><c>H </c><c>   1</c></rc>
    <rc><c>H </c><c>   1</c></rc>
    <rc><c>H </c><c>   1</c></rc>
    <rc><c>H </c><c>   1</c></rc>
    <rc><c>H </c><c>   1</c></rc>
    <rc><c>H </c><c>   1</c></rc>
    <rc><c>H </c><c>   1</c></rc>
    <rc><c>H </c><c>   1</c></rc>
    <rc><c>H </c><c>   1</c></rc>
    <rc><c>H </c><c>   1</c></rc>
    <rc><c>H </c><c>   1</c></rc>
    <rc><c>H </c><c>   1</c></rc>
    <rc><c>H </c><c>   1</c></rc>
    <rc><c>H </c><c>   1</c></rc>
    <rc><c>H </c><c>   1</c></rc>
    <rc><c>H </c><c>   1</c></rc>
    <rc><c>H </c><c>   1</c></rc>
    <rc><c>H </c><c>   1</c></rc>
    <rc><c>H </c><c>   1</c></rc>
    <rc><c>H </c><c>   1</c></rc>
    <rc><c>H </c><c>   1</c></rc>
    <rc><c>H </c><c>   1</c></rc>
    <rc><c>H </c><c>   1</c></rc>
    <rc><c>H </c><c>   1</c></rc>
    <rc><c>H </c><c>   1</c></rc>
    <rc><c>H </c><c>   1</c></rc>
    <rc><c>H </c><c>   1</c></rc>
    <rc><c>H </c><c>   1</c></rc>
    <rc><c>H </c><c>   1</c></rc>
    <rc><c>H </c><c>   1</c></rc>
    <rc><c>H </c><c>   1</c></rc>
    <rc><c>H </c><c>   1</c></rc>
    <rc><c>H </c><c>   1</c></rc>
    <rc><c>H </c><c>   1</c></rc>
    <rc><c>H </c><c>   1</c></rc>
    <rc><c>H </c><c>   1</c></rc>
    <rc><c>H </c><c>   1</c></rc>
    <rc><c>H </c><c>   1</c></rc>
    <rc><c>H </c><c>   1</c></rc>
    <rc><c>H </c><c>   1</c></rc>
    <rc><c>H </c><c>   1</c></rc>
    <rc><c>H </c><c>   1</c></rc>
    <rc><c>H </c><c>   1</c></rc>
    <rc><c>H </c><c>   1</c></rc>
    <rc><c>H </c><c>   1</c></rc>
    <rc><c>H </c><c>   1</c></rc>
    <rc><c>H </c><c>   1</c></rc>
    <rc><c>H </c><c>   1</c></rc>
    <rc><c>H </c><c>   1</c></rc>
    <rc><c>H </c><c>   1</c></rc>
    <rc><c>H </c><c>   1</c></rc>
    <rc><c>H </c><c>   1</c></rc>
    <rc><c>H </c><c>   1</c></rc>
    <rc><c>H </c><c>   1</c></rc>
    <rc><c>H </c><c>   1</c></rc>
    <rc><c>H </c><c>   1</c></rc>
    <rc><c>H </c><c>   1</c></rc>
    <rc><c>H </c><c>   1</c></rc>
    <rc><c>H </c><c>   1</c></rc>
    <rc><c>H </c><c>   1</c></rc>
    <rc><c>H </c><c>   1</c></rc>
    <rc><c>H </c><c>   1</c></rc>
    <rc><c>H </c><c>   1</c></rc>
    <rc><c>H </c><c>   1</c></rc>
    <rc><c>H </c><c>   1</c></rc>
    <rc><c>H </c><c>   1</c></rc>
    <rc><c>H </c><c>   1</c></rc>
    <rc><c>H </c><c>   1</c></rc>
    <rc><c>H </c><c>   1</c></rc>
    <rc><c>H </c><c>   1</c></rc>
    <rc><c>H </c><c>   1</c></rc>
    <rc><c>H </c><c>   1</c></rc>
    <rc><c>H </c><c>   1</c></rc>
    <rc><c>H </c><c>   1</c></rc>
    <rc><c>H </c><c>   1</c></rc>
    <rc><c>H </c><c>   1</c></rc>
    <rc><c>H </c><c>   1</c></rc>
    <rc><c>H </c><c>   1</c></rc>
    <rc><c>H </c><c>   1</c></rc>
    <rc><c>C </c><c>   2</c></rc>
    <rc><c>C </c><c>   2</c></rc>
    <rc><c>C </c><c>   2</c></rc>
    <rc><c>C </c><c>   2</c></rc>
    <rc><c>C </c><c>   2</c></rc>
    <rc><c>C </c><c>   2</c></rc>
    <rc><c>C </c><c>   2</c></rc>
    <rc><c>C </c><c>   2</c></rc>
    <rc><c>C </c><c>   2</c></rc>
    <rc><c>C </c><c>   2</c></rc>
    <rc><c>C </c><c>   2</c></rc>
    <rc><c>C </c><c>   2</c></rc>
    <rc><c>C </c><c>   2</c></rc>
    <rc><c>C </c><c>   2</c></rc>
    <rc><c>C </c><c>   2</c></rc>
    <rc><c>C </c><c>   2</c></rc>
    <rc><c>C </c><c>   2</c></rc>
    <rc><c>C </c><c>   2</c></rc>
    <rc><c>C </c><c>   2</c></rc>
    <rc><c>C </c><c>   2</c></rc>
    <rc><c>C </c><c>   2</c></rc>
    <rc><c>C </c><c>   2</c></rc>
    <rc><c>C </c><c>   2</c></rc>
    <rc><c>C </c><c>   2</c></rc>
    <rc><c>C </c><c>   2</c></rc>
    <rc><c>C </c><c>   2</c></rc>
    <rc><c>C </c><c>   2</c></rc>
    <rc><c>C </c><c>   2</c></rc>
    <rc><c>C </c><c>   2</c></rc>
    <rc><c>C </c><c>   2</c></rc>
    <rc><c>C </c><c>   2</c></rc>
    <rc><c>C </c><c>   2</c></rc>
    <rc><c>C </c><c>   2</c></rc>
    <rc><c>C </c><c>   2</c></rc>
    <rc><c>C </c><c>   2</c></rc>
    <rc><c>C </c><c>   2</c></rc>
    <rc><c>C </c><c>   2</c></rc>
    <rc><c>C </c><c>   2</c></rc>
    <rc><c>C </c><c>   2</c></rc>
    <rc><c>N </c><c>   3</c></rc>
    <rc><c>N </c><c>   3</c></rc>
    <rc><c>N </c><c>   3</c></rc>
    <rc><c>N </c><c>   3</c></rc>
    <rc><c>N </c><c>   3</c></rc>
    <rc><c>N </c><c>   3</c></rc>
    <rc><c>N </c><c>   3</c></rc>
    <rc><c>N </c><c>   3</c></rc>
    <rc><c>N </c><c>   3</c></rc>
    <rc><c>N </c><c>   3</c></rc>
    <rc><c>N </c><c>   3</c></rc>
    <rc><c>N </c><c>   3</c></rc>
    <rc><c>N </c><c>   3</c></rc>
    <rc><c>N </c><c>   3</c></rc>
    <rc><c>N </c><c>   3</c></rc>
    <rc><c>N </c><c>   3</c></rc>
    <rc><c>N </c><c>   3</c></rc>
    <rc><c>N </c><c>   3</c></rc>
    <rc><c>N </c><c>   3</c></rc>
    <rc><c>N </c><c>   3</c></rc>
    <rc><c>N </c><c>   3</c></rc>
    <rc><c>N </c><c>   3</c></rc>
    <rc><c>N </c><c>   3</c></rc>
    <rc><c>N </c><c>   3</c></rc>
    <rc><c>N </c><c>   3</c></rc>
    <rc><c>N </c><c>   3</c></rc>
    <rc><c>N </c><c>   3</c></rc>
    <rc><c>N </c><c>   3</c></rc>
    <rc><c>N </c><c>   3</c></rc>
    <rc><c>N </c><c>   3</c></rc>
    <rc><c>N </c><c>   3</c></rc>
    <rc><c>N </c><c>   3</c></rc>
    <rc><c>N </c><c>   3</c></rc>
    <rc><c>N </c><c>   3</c></rc>
    <rc><c>N </c><c>   3</c></rc>
    <rc><c>N </c><c>   3</c></rc>
    <rc><c>N </c><c>   3</c></rc>
    <rc><c>N </c><c>   3</c></rc>
    <rc><c>N </c><c>   3</c></rc>
    <rc><c>N </c><c>   3</c></rc>
    <rc><c>N </c><c>   3</c></rc>
    <rc><c>N </c><c>   3</c></rc>
    <rc><c>N </c><c>   3</c></rc>
    <rc><c>N </c><c>   3</c></rc>
    <rc><c>N </c><c>   3</c></rc>
    <rc><c>N </c><c>   3</c></rc>
    <rc><c>N </c><c>   3</c></rc>
    <rc><c>I </c><c>   4</c></rc>
    <rc><c>I </c><c>   4</c></rc>
    <rc><c>I </c><c>   4</c></rc>
    <rc><c>I </c><c>   4</c></rc>
    <rc><c>I </c><c>   4</c></rc>
    <rc><c>I </c><c>   4</c></rc>
    <rc><c>I </c><c>   4</c></rc>
    <rc><c>I </c><c>   4</c></rc>
    <rc><c>I </c><c>   4</c></rc>
    <rc><c>I </c><c>   4</c></rc>
    <rc><c>I </c><c>   4</c></rc>
    <rc><c>I </c><c>   4</c></rc>
    <rc><c>I </c><c>   4</c></rc>
    <rc><c>I </c><c>   4</c></rc>
    <rc><c>I </c><c>   4</c></rc>
    <rc><c>I </c><c>   4</c></rc>
    <rc><c>I </c><c>   4</c></rc>
    <rc><c>I </c><c>   4</c></rc>
    <rc><c>I </c><c>   4</c></rc>
    <rc><c>I </c><c>   4</c></rc>
    <rc><c>I </c><c>   4</c></rc>
    <rc><c>I </c><c>   4</c></rc>
    <rc><c>I </c><c>   4</c></rc>
    <rc><c>I </c><c>   4</c></rc>
    <rc><c>I </c><c>   4</c></rc>
    <rc><c>I </c><c>   4</c></rc>
    <rc><c>I </c><c>   4</c></rc>
    <rc><c>I </c><c>   4</c></rc>
    <rc><c>I </c><c>   4</c></rc>
    <rc><c>I </c><c>   4</c></rc>
    <rc><c>I </c><c>   4</c></rc>
    <rc><c>I </c><c>   4</c></rc>
    <rc><c>I </c><c>   4</c></rc>
    <rc><c>I </c><c>   4</c></rc>
    <rc><c>I </c><c>   4</c></rc>
    <rc><c>I </c><c>   4</c></rc>
    <rc><c>I </c><c>   4</c></rc>
    <rc><c>I </c><c>   4</c></rc>
    <rc><c>I </c><c>   4</c></rc>
    <rc><c>I </c><c>   4</c></rc>
    <rc><c>I </c><c>   4</c></rc>
    <rc><c>I </c><c>   4</c></rc>
    <rc><c>I </c><c>   4</c></rc>
    <rc><c>I </c><c>   4</c></rc>
    <rc><c>I </c><c>   4</c></rc>
    <rc><c>I </c><c>   4</c></rc>
    <rc><c>I </c><c>   4</c></rc>
    <rc><c>I </c><c>   4</c></rc>
    <rc><c>I </c><c>   4</c></rc>
    <rc><c>I </c><c>   4</c></rc>
    <rc><c>I </c><c>   4</c></rc>
    <rc><c>I </c><c>   4</c></rc>
    <rc><c>I </c><c>   4</c></rc>
    <rc><c>I </c><c>   4</c></rc>
    <rc><c>I </c><c>   4</c></rc>
    <rc><c>I </c><c>   4</c></rc>
    <rc><c>I </c><c>   4</c></rc>
    <rc><c>I </c><c>   4</c></rc>
    <rc><c>I </c><c>   4</c></rc>
    <rc><c>I </c><c>   4</c></rc>
    <rc><c>I </c><c>   4</c></rc>
    <rc><c>I </c><c>   4</c></rc>
    <rc><c>I </c><c>   4</c></rc>
    <rc><c>I </c><c>   4</c></rc>
    <rc><c>I </c><c>   4</c></rc>
    <rc><c>I </c><c>   4</c></rc>
    <rc><c>I </c><c>   4</c></rc>
    <rc><c>I </c><c>   4</c></rc>
    <rc><c>I </c><c>   4</c></rc>
    <rc><c>I </c><c>   4</c></rc>
    <rc><c>I </c><c>   4</c></rc>
    <rc><c>I </c><c>   4</c></rc>
    <rc><c>Pb</c><c>   5</c></rc>
    <rc><c>Pb</c><c>   5</c></rc>
    <rc><c>Pb</c><c>   5</c></rc>
    <rc><c>Pb</c><c>   5</c></rc>
    <rc><c>Pb</c><c>   5</c></rc>
    <rc><c>Pb</c><c>   5</c></rc>
    <rc><c>Pb</c><c>   5</c></rc>
    <rc><c>Pb</c><c>   5</c></rc>
    <rc><c>Pb</c><c>   5</c></rc>
    <rc><c>Pb</c><c>   5</c></rc>
    <rc><c>Pb</c><c>   5</c></rc>
    <rc><c>Pb</c><c>   5</c></rc>
    <rc><c>Pb</c><c>   5</c></rc>
    <rc><c>Pb</c><c>   5</c></rc>
    <rc><c>Pb</c><c>   5</c></rc>
    <rc><c>Pb</c><c>   5</c></rc>
    <rc><c>Pb</c><c>   5</c></rc>
    <rc><c>Pb</c><c>   5</c></rc>
    <rc><c>Pb</c><c>   5</c></rc>
    <rc><c>Pb</c><c>   5</c></rc>
    <rc><c>Pb</c><c>   5</c></rc>
    <rc><c>Pb</c><c>   5</c></rc>
    <rc><c>Pb</c><c>   5</c></rc>
    <rc><c>Pb</c><c>   5</c></rc>
   </set>
  </array>
  <array name="atomtypes" >
   <dimension dim="1">type</dimension>
   <field type="int">atomspertype</field>
   <field type="string">element</field>
   <field>mass</field>
   <field>valence</field>
   <field type="string">pseudopotential</field>
   <set>
    <rc><c> 143</c><c>H </c><c>      1.00000000</c><c>      1.00000000</c><c>  PAW_PBE H 15Jun2001                   </c></rc>
    <rc><c>  39</c><c>C </c><c>     12.01100000</c><c>      4.00000000</c><c>  PAW_PBE C 08Apr2002                   </c></rc>
    <rc><c>  47</c><c>N </c><c>     14.00100000</c><c>      5.00000000</c><c>  PAW_PBE N 08Apr2002                   </c></rc>
    <rc><c>  72</c><c>I </c><c>    126.90400000</c><c>      7.00000000</c><c>  PAW_PBE I 08Apr2002                   </c></rc>
    <rc><c>  24</c><c>Pb</c><c>    207.20000000</c><c>      4.00000000</c><c>  PAW_PBE Pb 08Apr2002                  </c></rc>
   </set>
  </array>
 </atominfo>
 <structure name="initialpos" >
  <crystal>
   <varray name="basis" >
    <v>      18.06080055       0.00000000       0.00000000 </v>
    <v>      -0.00491865      18.06279945       0.00000000 </v>
    <v>       0.00000000       0.00000000      62.48749924 </v>
   </varray>
   <i name="volume">  20385.21054034 </i>
   <varray name="rec_basis" >
    <v>       0.05536853       0.00001508      -0.00000000 </v>
    <v>       0.00000000       0.05536240       0.00000000 </v>
    <v>       0.00000000      -0.00000000       0.01600320 </v>
   </varray>
  </crystal>
  <varray name="positions" >
   <v>       0.44480144       0.29548205       0.58208530 </v>
   <v>       0.43760248       0.79072817       0.58111104 </v>
   <v>       0.94321874       0.29617436       0.58358944 </v>
   <v>       0.95377888       0.80012553       0.58065148 </v>
   <v>       0.30076061       0.05061411       0.58143282 </v>
   <v>       0.30334421       0.56619148       0.58030790 </v>
   <v>       0.79063297       0.06178470       0.58137501 </v>
   <v>       0.07982767       0.17297630       0.55841033 </v>
   <v>       0.08860224       0.67940564       0.55648783 </v>
   <v>       0.59082522       0.18574810       0.55751117 </v>
   <v>       0.58809851       0.69087700       0.55700588 </v>
   <v>       0.33900631       0.06416215       0.55663031 </v>
   <v>       0.31927797       0.58879106       0.55410308 </v>
   <v>       0.82520828       0.08259870       0.55657684 </v>
   <v>       0.05888053       0.20603905       0.58351002 </v>
   <v>       0.04705319       0.70247064       0.58056833 </v>
   <v>       0.55247542       0.20452760       0.58201100 </v>
   <v>       0.54636343       0.70504004       0.58253992 </v>
   <v>       0.21395581       0.45340613       0.58503260 </v>
   <v>       0.18662546       0.96096343       0.58129968 </v>
   <v>       0.69991299       0.94872685       0.58143282 </v>
   <v>       0.41276494       0.32474096       0.55706772 </v>
   <v>       0.41364959       0.82915756       0.55625860 </v>
   <v>       0.90790114       0.31148987       0.55813751 </v>
   <v>       0.93107816       0.84068082       0.55646170 </v>
   <v>       0.18333213       0.41592433       0.56142485 </v>
   <v>       0.16464261       0.92761345       0.55641604 </v>
   <v>       0.68680927       0.90960581       0.55665211 </v>
   <v>       0.50337159       0.25741346       0.53849711 </v>
   <v>       0.51015061       0.76383487       0.53878080 </v>
   <v>       0.98525561       0.23052071       0.54162322 </v>
   <v>       0.01828155       0.76744935       0.53767993 </v>
   <v>       0.24516445       0.49554852       0.53956855 </v>
   <v>       0.25639410       0.98752354       0.53840615 </v>
   <v>       0.76506620       0.99107689       0.53854692 </v>
   <v>       0.44477223       0.30340181       0.67251897 </v>
   <v>       0.44538959       0.79675868       0.67466479 </v>
   <v>       0.94316243       0.30592465       0.67128844 </v>
   <v>       0.94564374       0.80024390       0.67522490 </v>
   <v>       0.29867692       0.05196233       0.67469067 </v>
   <v>       0.30539317       0.55017276       0.67410663 </v>
   <v>       0.80951391       0.05704433       0.67284142 </v>
   <v>       0.79687030       0.55546869       0.67282055 </v>
   <v>       0.07652489       0.16774575       0.65087841 </v>
   <v>       0.08131276       0.67491061       0.64925687 </v>
   <v>       0.57879547       0.17181838       0.65001533 </v>
   <v>       0.57375578       0.67356411       0.64914894 </v>
   <v>       0.16881177       0.42357139       0.64991704 </v>
   <v>       0.17452828       0.91433404       0.64962194 </v>
   <v>       0.67268526       0.41056040       0.65564273 </v>
   <v>       0.66961364       0.92629235       0.65221480 </v>
   <v>       0.04044260       0.20204022       0.67460508 </v>
   <v>       0.04971618       0.70164852       0.67433495 </v>
   <v>       0.54234914       0.19936439       0.67444520 </v>
   <v>       0.54689103       0.69916671       0.67463884 </v>
   <v>       0.20232764       0.45288333       0.67501099 </v>
   <v>       0.20103954       0.94835841       0.67491557 </v>
   <v>       0.70433725       0.44707289       0.67934388 </v>
   <v>       0.70564828       0.96128193       0.67639505 </v>
   <v>       0.42348734       0.33668620       0.64660846 </v>
   <v>       0.41572526       0.82949721       0.64952988 </v>
   <v>       0.92229661       0.32826776       0.64502660 </v>
   <v>       0.91541075       0.82907113       0.64995617 </v>
   <v>       0.33003914       0.07969753       0.64924552 </v>
   <v>       0.33359151       0.57940151       0.64846570 </v>
   <v>       0.83229205       0.07897924       0.64669258 </v>
   <v>       0.81414376       0.57910411       0.64641854 </v>
   <v>       0.00437688       0.24588922       0.63059421 </v>
   <v>       0.99677303       0.75319212       0.63127403 </v>
   <v>       0.50705974       0.25441785       0.63058474 </v>
   <v>       0.49687334       0.75305807       0.63122189 </v>
   <v>       0.25403232       0.99612721       0.63168549 </v>
   <v>       0.25055682       0.50140669       0.63141395 </v>
   <v>       0.74897896       0.99980199       0.63161901 </v>
   <v>       0.73217876       0.48485619       0.63386183 </v>
   <v>       0.44874502       0.30128397       0.76888902 </v>
   <v>       0.44874501       0.80128391       0.76888902 </v>
   <v>       0.94874497       0.30128397       0.76888902 </v>
   <v>       0.94874501       0.80128391       0.76888902 </v>
   <v>       0.30127600       0.05129450       0.76887296 </v>
   <v>       0.30127601       0.55129450       0.76887296 </v>
   <v>       0.80127594       0.05129450       0.76887296 </v>
   <v>       0.80127598       0.55129450       0.76887296 </v>
   <v>       0.07877100       0.17118050       0.74344197 </v>
   <v>       0.07877101       0.67118045       0.74344197 </v>
   <v>       0.57877100       0.17118050       0.74344197 </v>
   <v>       0.57877099       0.67118045       0.74344197 </v>
   <v>       0.17119950       0.42117448       0.74342103 </v>
   <v>       0.17119950       0.92117451       0.74342103 </v>
   <v>       0.67119951       0.42117448       0.74342103 </v>
   <v>       0.67119950       0.92117451       0.74342103 </v>
   <v>       0.05125600       0.19871499       0.76888902 </v>
   <v>       0.05125600       0.69871493       0.76888902 </v>
   <v>       0.55125603       0.19871499       0.76888902 </v>
   <v>       0.55125602       0.69871493       0.76888902 </v>
   <v>       0.19872349       0.44870397       0.76887205 </v>
   <v>       0.19872349       0.94870397       0.76887205 </v>
   <v>       0.69872352       0.44870397       0.76887205 </v>
   <v>       0.69872351       0.94870397       0.76887205 </v>
   <v>       0.42123152       0.32881747       0.74344197 </v>
   <v>       0.42123151       0.82881744       0.74344197 </v>
   <v>       0.92123147       0.32881747       0.74344197 </v>
   <v>       0.92123151       0.82881744       0.74344197 </v>
   <v>       0.32880050       0.07882500       0.74342103 </v>
   <v>       0.32880049       0.57882496       0.74342103 </v>
   <v>       0.82880048       0.07882500       0.74342103 </v>
   <v>       0.82880052       0.57882496       0.74342103 </v>
   <v>       0.00000350       0.25000148       0.72582199 </v>
   <v>       0.00000350       0.75000145       0.72582199 </v>
   <v>       0.50000351       0.25000148       0.72582199 </v>
   <v>       0.50000350       0.75000145       0.72582199 </v>
   <v>       0.25000050       0.00000000       0.72580398 </v>
   <v>       0.25000052       0.50000000       0.72580398 </v>
   <v>       0.75000050       0.00000000       0.72580398 </v>
   <v>       0.75000049       0.50000000       0.72580398 </v>
   <v>       0.78485023       0.53193517       0.52650924 </v>
   <v>       0.87269838       0.52259293       0.53677136 </v>
   <v>       0.77980461       0.63302788       0.54345953 </v>
   <v>       0.78060160       0.64340806       0.57180816 </v>
   <v>       0.69006063       0.47957151       0.56466555 </v>
   <v>       0.68160988       0.57352413       0.57036237 </v>
   <v>       0.80355624       0.43975101       0.57461511 </v>
   <v>       0.87198653       0.50726449       0.57962545 </v>
   <v>       0.85257312       0.39685443       0.54987933 </v>
   <v>       0.75959549       0.39807984       0.54251879 </v>
   <v>       0.78236592       0.40605512       0.50498440 </v>
   <v>       0.87069240       0.44067265       0.50828364 </v>
   <v>       0.91389071       0.64096781       0.54144869 </v>
   <v>       0.92279881       0.60425482       0.56794215 </v>
   <v>       0.88623583       0.69069559       0.56561746 </v>
   <v>       0.60726930       0.55299152       0.54056356 </v>
   <v>       0.66913547       0.50102829       0.52634423 </v>
   <v>       0.68499361       0.59845636       0.53033013 </v>
   <v>       0.72466251       0.48046057       0.60133207 </v>
   <v>       0.74353228       0.57606211       0.59631568 </v>
   <v>       0.80631880       0.52851234       0.61144365 </v>
   <v>       0.83401523       0.28134985       0.52124714 </v>
   <v>       0.84073116       0.30018176       0.49450958 </v>
   <v>       0.94864724       0.19682131       0.50074377 </v>
   <v>       0.96579515       0.41847739       0.52250203 </v>
   <v>       0.08369432       0.18171998       0.50612647 </v>
   <v>       0.09984671       0.40545695       0.52862899 </v>
   <v>       0.16095890       0.28295820       0.52014847 </v>
   <v>       0.99178872       0.23884041       0.55805412 </v>
   <v>       0.01225277       0.76246636       0.55549569 </v>
   <v>       0.50299626       0.25293260       0.55590104 </v>
   <v>       0.50273411       0.75750522       0.55589805 </v>
   <v>       0.24999473       0.50075569       0.55692194 </v>
   <v>       0.25321610       0.99436357       0.55580459 </v>
   <v>       0.75710652       0.99488002       0.55589762 </v>
   <v>       0.99926229       0.24830802       0.64795803 </v>
   <v>       0.99917974       0.75125740       0.64954551 </v>
   <v>       0.50218561       0.25288922       0.64866478 </v>
   <v>       0.49813336       0.74983889       0.64932317 </v>
   <v>       0.25010417       0.50037956       0.64953256 </v>
   <v>       0.25118202       0.99615443       0.64985093 </v>
   <v>       0.74307572       0.49434616       0.65090118 </v>
   <v>       0.75155760       0.00186130       0.64973933 </v>
   <v>       0.49998898       0.24999498       0.74327702 </v>
   <v>       0.49998903       0.74999496       0.74327702 </v>
   <v>       0.99998898       0.24999498       0.74327702 </v>
   <v>       0.99998903       0.74999496       0.74327702 </v>
   <v>       0.25000050       0.00000100       0.74325596 </v>
   <v>       0.25000052       0.50000100       0.74325596 </v>
   <v>       0.75000050       0.00000100       0.74325596 </v>
   <v>       0.75000049       0.50000100       0.74325596 </v>
   <v>       0.94735064       0.30944955       0.51120524 </v>
   <v>       0.98016524       0.24255204       0.50649144 </v>
   <v>       0.99234163       0.36699894       0.51865574 </v>
   <v>       0.05855046       0.23416444       0.50940395 </v>
   <v>       0.06790750       0.35956849       0.52192281 </v>
   <v>       0.10132713       0.29152294       0.51655400 </v>
   <v>       0.81477687       0.50697759       0.53885241 </v>
   <v>       0.80704796       0.61478289       0.55838482 </v>
   <v>       0.70217661       0.53363969       0.55853884 </v>
   <v>       0.81229216       0.49673319       0.57917181 </v>
   <v>       0.81493857       0.41901244       0.53804304 </v>
   <v>       0.83207841       0.40261567       0.51435648 </v>
   <v>       0.88919086       0.63769889       0.55749169 </v>
   <v>       0.66475739       0.54803371       0.53732836 </v>
   <v>       0.76999839       0.52320496       0.59815247 </v>
   <v>       0.85999967       0.31849702       0.51029512 </v>
   <v>       0.04648291       0.20263097       0.56740554 </v>
   <v>       0.05221621       0.71058622       0.56507573 </v>
   <v>       0.55000954       0.21011556       0.56573797 </v>
   <v>       0.54736931       0.71542144       0.56606964 </v>
   <v>       0.44898319       0.29361513       0.56611018 </v>
   <v>       0.44545530       0.79510706       0.56575012 </v>
   <v>       0.94516965       0.28427284       0.56732410 </v>
   <v>       0.96140572       0.80401007       0.56512261 </v>
   <v>       0.21305825       0.45313243       0.56805277 </v>
   <v>       0.19713248       0.95833692       0.56458167 </v>
   <v>       0.71091404       0.94781125       0.56476140 </v>
   <v>       0.30109365       0.03990761       0.56471604 </v>
   <v>       0.29422393       0.55622306       0.56374648 </v>
   <v>       0.79376558       0.05068484       0.56469937 </v>
   <v>       0.03959718       0.20588997       0.65875993 </v>
   <v>       0.04431481       0.70899902       0.65848931 </v>
   <v>       0.54082603       0.20714476       0.65873265 </v>
   <v>       0.54410237       0.70597493       0.65843858 </v>
   <v>       0.20652996       0.45825613       0.65948524 </v>
   <v>       0.20804679       0.95240097       0.65943152 </v>
   <v>       0.70275740       0.44603029       0.66277026 </v>
   <v>       0.70839343       0.96280298       0.66079299 </v>
   <v>       0.45188043       0.30145706       0.65705714 </v>
   <v>       0.44866589       0.79598397       0.65913995 </v>
   <v>       0.95029430       0.29891211       0.65538151 </v>
   <v>       0.94978749       0.79690577       0.65867007 </v>
   <v>       0.29427791       0.04411403       0.65923690 </v>
   <v>       0.30076922       0.54737100       0.65862569 </v>
   <v>       0.80316157       0.04998860       0.65757049 </v>
   <v>       0.78759992       0.54373851       0.65708009 </v>
   <v>       0.04586250       0.20411950       0.75272599 </v>
   <v>       0.04586250       0.70411946       0.75272599 </v>
   <v>       0.54586251       0.20411950       0.75272599 </v>
   <v>       0.54586250       0.70411946       0.75272599 </v>
   <v>       0.20411900       0.45410100       0.75270499 </v>
   <v>       0.20411899       0.95410095       0.75270499 </v>
   <v>       0.70411898       0.45410100       0.75270499 </v>
   <v>       0.70411896       0.95410095       0.75270499 </v>
   <v>       0.45414002       0.29588849       0.75272697 </v>
   <v>       0.45414001       0.79588852       0.75272697 </v>
   <v>       0.95414002       0.29588849       0.75272697 </v>
[...]
   <v>       0.59082522       0.18574810       0.55751117 </v>
   <v>       0.58809851       0.69087700       0.55700588 </v>
   <v>       0.33900631       0.06416215       0.55663031 </v>
   <v>       0.31927797       0.58879106       0.55410308 </v>
   <v>       0.82520828       0.08259870       0.55657684 </v>
   <v>       0.05888053       0.20603905       0.58351002 </v>
   <v>       0.04705319       0.70247064       0.58056833 </v>
   <v>       0.55247542       0.20452760       0.58201100 </v>
   <v>       0.54636343       0.70504004       0.58253992 </v>
   <v>       0.21395581       0.45340613       0.58503260 </v>
   <v>       0.18662546       0.96096343       0.58129968 </v>
   <v>       0.69991299       0.94872685       0.58143282 </v>
   <v>       0.41276494       0.32474096       0.55706772 </v>
   <v>       0.41364959       0.82915756       0.55625860 </v>
   <v>       0.90790114       0.31148987       0.55813751 </v>
   <v>       0.93107816       0.84068082       0.55646170 </v>
   <v>       0.18333213       0.41592433       0.56142485 </v>
   <v>       0.16464261       0.92761345       0.55641604 </v>
   <v>       0.68680927       0.90960581       0.55665211 </v>
   <v>       0.50337159       0.25741346       0.53849711 </v>
   <v>       0.51015061       0.76383487       0.53878080 </v>
   <v>       0.98525561       0.23052071       0.54162322 </v>
   <v>       0.01828155       0.76744935       0.53767993 </v>
   <v>       0.24516445       0.49554852       0.53956855 </v>
   <v>       0.25639410       0.98752354       0.53840615 </v>
   <v>       0.76506620       0.99107689       0.53854692 </v>
   <v>       0.44477223       0.30340181       0.67251897 </v>
   <v>       0.44538959       0.79675868       0.67466479 </v>
   <v>       0.94316243       0.30592465       0.67128844 </v>
   <v>       0.94564374       0.80024390       0.67522490 </v>
   <v>       0.29867692       0.05196233       0.67469067 </v>
   <v>       0.30539317       0.55017276       0.67410663 </v>
   <v>       0.80951391       0.05704433       0.67284142 </v>
   <v>       0.79687030       0.55546869       0.67282055 </v>
   <v>       0.07652489       0.16774575       0.65087841 </v>
   <v>       0.08131276       0.67491061       0.64925687 </v>
   <v>       0.57879547       0.17181838       0.65001533 </v>
   <v>       0.57375578       0.67356411       0.64914894 </v>
   <v>       0.16881177       0.42357139       0.64991704 </v>
   <v>       0.17452828       0.91433404       0.64962194 </v>
   <v>       0.67268526       0.41056040       0.65564273 </v>
   <v>       0.66961364       0.92629235       0.65221480 </v>
   <v>       0.04044260       0.20204022       0.67460508 </v>
   <v>       0.04971618       0.70164852       0.67433495 </v>
   <v>       0.54234914       0.19936439       0.67444520 </v>
   <v>       0.54689103       0.69916671       0.67463884 </v>
   <v>       0.20232764       0.45288333       0.67501099 </v>
   <v>       0.20103954       0.94835841       0.67491557 </v>
   <v>       0.70433725       0.44707289       0.67934388 </v>
   <v>       0.70564828       0.96128193       0.67639505 </v>
   <v>       0.42348734       0.33668620       0.64660846 </v>
   <v>       0.41572526       0.82949721       0.64952988 </v>
   <v>       0.92229661       0.32826776       0.64502660 </v>
   <v>       0.91541075       0.82907113       0.64995617 </v>
   <v>       0.33003914       0.07969753       0.64924552 </v>
   <v>       0.33359151       0.57940151       0.64846570 </v>
   <v>       0.83229205       0.07897924       0.64669258 </v>
   <v>       0.81414376       0.57910411       0.64641854 </v>
   <v>       0.00437688       0.24588922       0.63059421 </v>
   <v>       0.99677303       0.75319212       0.63127403 </v>
   <v>       0.50705974       0.25441785       0.63058474 </v>
   <v>       0.49687334       0.75305807       0.63122189 </v>
   <v>       0.25403232       0.99612721       0.63168549 </v>
   <v>       0.25055682       0.50140669       0.63141395 </v>
   <v>       0.74897896       0.99980199       0.63161901 </v>
   <v>       0.73217876       0.48485619       0.63386183 </v>
   <v>       0.44874502       0.30128397       0.76888902 </v>
   <v>       0.44874501       0.80128391       0.76888902 </v>
   <v>       0.94874497       0.30128397       0.76888902 </v>
   <v>       0.94874501       0.80128391       0.76888902 </v>
   <v>       0.30127600       0.05129450       0.76887296 </v>
   <v>       0.30127601       0.55129450       0.76887296 </v>
   <v>       0.80127594       0.05129450       0.76887296 </v>
   <v>       0.80127598       0.55129450       0.76887296 </v>
   <v>       0.07877100       0.17118050       0.74344197 </v>
   <v>       0.07877101       0.67118045       0.74344197 </v>
   <v>       0.57877100       0.17118050       0.74344197 </v>
   <v>       0.57877099       0.67118045       0.74344197 </v>
   <v>       0.17119950       0.42117448       0.74342103 </v>
   <v>       0.17119950       0.92117451       0.74342103 </v>
   <v>       0.67119951       0.42117448       0.74342103 </v>
   <v>       0.67119950       0.92117451       0.74342103 </v>
   <v>       0.05125600       0.19871499       0.76888902 </v>
   <v>       0.05125600       0.69871493       0.76888902 </v>
   <v>       0.55125603       0.19871499       0.76888902 </v>
   <v>       0.55125602       0.69871493       0.76888902 </v>
   <v>       0.19872349       0.44870397       0.76887205 </v>
   <v>       0.19872349       0.94870397       0.76887205 </v>
   <v>       0.69872352       0.44870397       0.76887205 </v>
   <v>       0.69872351       0.94870397       0.76887205 </v>
   <v>       0.42123152       0.32881747       0.74344197 </v>
   <v>       0.42123151       0.82881744       0.74344197 </v>
   <v>       0.92123147       0.32881747       0.74344197 </v>
   <v>       0.92123151       0.82881744       0.74344197 </v>
   <v>       0.32880050       0.07882500       0.74342103 </v>
   <v>       0.32880049       0.57882496       0.74342103 </v>
   <v>       0.82880048       0.07882500       0.74342103 </v>
   <v>       0.82880052       0.57882496       0.74342103 </v>
   <v>       0.00000350       0.25000148       0.72582199 </v>
   <v>       0.00000350       0.75000145       0.72582199 </v>
   <v>       0.50000351       0.25000148       0.72582199 </v>
   <v>       0.50000350       0.75000145       0.72582199 </v>
   <v>       0.25000050       0.00000000       0.72580398 </v>
   <v>       0.25000052       0.50000000       0.72580398 </v>
   <v>       0.75000050       0.00000000       0.72580398 </v>
   <v>       0.75000049       0.50000000       0.72580398 </v>
   <v>       0.78485023       0.53193517       0.52650924 </v>
   <v>       0.87269838       0.52259293       0.53677136 </v>
   <v>       0.77980461       0.63302788       0.54345953 </v>
   <v>       0.78060160       0.64340806       0.57180816 </v>
   <v>       0.69006063       0.47957151       0.56466555 </v>
   <v>       0.68160988       0.57352413       0.57036237 </v>
   <v>       0.80355624       0.43975101       0.57461511 </v>
   <v>       0.87198653       0.50726449       0.57962545 </v>
   <v>       0.85257312       0.39685443       0.54987933 </v>
   <v>       0.75959549       0.39807984       0.54251879 </v>
   <v>       0.78236592       0.40605512       0.50498440 </v>
   <v>       0.87069240       0.44067265       0.50828364 </v>
   <v>       0.91389071       0.64096781       0.54144869 </v>
   <v>       0.92279881       0.60425482       0.56794215 </v>
   <v>       0.88623583       0.69069559       0.56561746 </v>
   <v>       0.60726930       0.55299152       0.54056356 </v>
   <v>       0.66913547       0.50102829       0.52634423 </v>
   <v>       0.68499361       0.59845636       0.53033013 </v>
   <v>       0.72466251       0.48046057       0.60133207 </v>
   <v>       0.74353228       0.57606211       0.59631568 </v>
   <v>       0.80631880       0.52851234       0.61144365 </v>
   <v>       0.83401523       0.28134985       0.52124714 </v>
   <v>       0.84073116       0.30018176       0.49450958 </v>
   <v>       0.94864724       0.19682131       0.50074377 </v>
   <v>       0.96579515       0.41847739       0.52250203 </v>
   <v>       0.08369432       0.18171998       0.50612647 </v>
   <v>       0.09984671       0.40545695       0.52862899 </v>
   <v>       0.16095890       0.28295820       0.52014847 </v>
   <v>       0.99178872       0.23884041       0.55805412 </v>
   <v>       0.01225277       0.76246636       0.55549569 </v>
   <v>       0.50299626       0.25293260       0.55590104 </v>
   <v>       0.50273411       0.75750522       0.55589805 </v>
   <v>       0.24999473       0.50075569       0.55692194 </v>
   <v>       0.25321610       0.99436357       0.55580459 </v>
   <v>       0.75710652       0.99488002       0.55589762 </v>
   <v>       0.99926229       0.24830802       0.64795803 </v>
   <v>       0.99917974       0.75125740       0.64954551 </v>
   <v>       0.50218561       0.25288922       0.64866478 </v>
   <v>       0.49813336       0.74983889       0.64932317 </v>
   <v>       0.25010417       0.50037956       0.64953256 </v>
   <v>       0.25118202       0.99615443       0.64985093 </v>
   <v>       0.74307572       0.49434616       0.65090118 </v>
   <v>       0.75155760       0.00186130       0.64973933 </v>
   <v>       0.49998898       0.24999498       0.74327702 </v>
   <v>       0.49998903       0.74999496       0.74327702 </v>
   <v>       0.99998898       0.24999498       0.74327702 </v>
   <v>       0.99998903       0.74999496       0.74327702 </v>
   <v>       0.25000050       0.00000100       0.74325596 </v>
   <v>       0.25000052       0.50000100       0.74325596 </v>
   <v>       0.75000050       0.00000100       0.74325596 </v>
   <v>       0.75000049       0.50000100       0.74325596 </v>
   <v>       0.94735064       0.30944955       0.51120524 </v>
   <v>       0.98016524       0.24255204       0.50649144 </v>
   <v>       0.99234163       0.36699894       0.51865574 </v>
   <v>       0.05855046       0.23416444       0.50940395 </v>
   <v>       0.06790750       0.35956849       0.52192281 </v>
   <v>       0.10132713       0.29152294       0.51655400 </v>
   <v>       0.81477687       0.50697759       0.53885241 </v>
   <v>       0.80704796       0.61478289       0.55838482 </v>
   <v>       0.70217661       0.53363969       0.55853884 </v>
   <v>       0.81229216       0.49673319       0.57917181 </v>
   <v>       0.81493857       0.41901244       0.53804304 </v>
   <v>       0.83207841       0.40261567       0.51435648 </v>
   <v>       0.88919086       0.63769889       0.55749169 </v>
   <v>       0.66475739       0.54803371       0.53732836 </v>
   <v>       0.76999839       0.52320496       0.59815247 </v>
   <v>       0.85999967       0.31849702       0.51029512 </v>
   <v>       0.04648291       0.20263097       0.56740554 </v>
   <v>       0.05221621       0.71058622       0.56507573 </v>
   <v>       0.55000954       0.21011556       0.56573797 </v>
   <v>       0.54736931       0.71542144       0.56606964 </v>
   <v>       0.44898319       0.29361513       0.56611018 </v>
   <v>       0.44545530       0.79510706       0.56575012 </v>
   <v>       0.94516965       0.28427284       0.56732410 </v>
   <v>       0.96140572       0.80401007       0.56512261 </v>
   <v>       0.21305825       0.45313243       0.56805277 </v>
   <v>       0.19713248       0.95833692       0.56458167 </v>
   <v>       0.71091404       0.94781125       0.56476140 </v>
   <v>       0.30109365       0.03990761       0.56471604 </v>
   <v>       0.29422393       0.55622306       0.56374648 </v>
   <v>       0.79376558       0.05068484       0.56469937 </v>
   <v>       0.03959718       0.20588997       0.65875993 </v>
   <v>       0.04431481       0.70899902       0.65848931 </v>
   <v>       0.54082603       0.20714476       0.65873265 </v>
   <v>       0.54410237       0.70597493       0.65843858 </v>
   <v>       0.20652996       0.45825613       0.65948524 </v>
   <v>       0.20804679       0.95240097       0.65943152 </v>
   <v>       0.70275740       0.44603029       0.66277026 </v>
   <v>       0.70839343       0.96280298       0.66079299 </v>
   <v>       0.45188043       0.30145706       0.65705714 </v>
   <v>       0.44866589       0.79598397       0.65913995 </v>
   <v>       0.95029430       0.29891211       0.65538151 </v>
   <v>       0.94978749       0.79690577       0.65867007 </v>
   <v>       0.29427791       0.04411403       0.65923690 </v>
   <v>       0.30076922       0.54737100       0.65862569 </v>
   <v>       0.80316157       0.04998860       0.65757049 </v>
   <v>       0.78759992       0.54373851       0.65708009 </v>
   <v>       0.04586250       0.20411950       0.75272599 </v>
   <v>       0.04586250       0.70411946       0.75272599 </v>
   <v>       0.54586251       0.20411950       0.75272599 </v>
   <v>       0.54586250       0.70411946       0.75272599 </v>
   <v>       0.20411900       0.45410100       0.75270499 </v>
   <v>       0.20411899       0.95410095       0.75270499 </v>
   <v>       0.70411898       0.45410100       0.75270499 </v>
   <v>       0.70411896       0.95410095       0.75270499 </v>
   <v>       0.45414002       0.29588849       0.75272697 </v>
   <v>       0.45414001       0.79588852       0.75272697 </v>
   <v>       0.95414002       0.29588849       0.75272697 </v>
   <v>       0.95414006       0.79588852       0.75272697 </v>
   <v>       0.29588249       0.04590050       0.75270499 </v>
   <v>       0.29588248       0.54590053       0.75270499 </v>
   <v>       0.79588244       0.04590050       0.75270499 </v>
   <v>       0.79588248       0.54590053       0.75270499 </v>
   <v>       0.78323593       0.53487410       0.55890610 </v>
   <v>       0.49772281       0.00275768       0.55276138 </v>
   <v>       0.48670459       0.48723267       0.55339425 </v>
   <v>       0.99731534       0.99976480       0.55218845 </v>
   <v>       0.01249799       0.50050200       0.55529979 </v>
   <v>       0.26068012       0.24747968       0.55409746 </v>
   <v>       0.25166373       0.75314783       0.55243923 </v>
   <v>       0.73882349       0.23798823       0.55487783 </v>
   <v>       0.73744351       0.76259640       0.54857072 </v>
   <v>       0.99793892       0.99764509       0.65432326 </v>
   <v>       0.00022652       0.49749074       0.65496236 </v>
   <v>       0.49825343       0.99772516       0.65467971 </v>
   <v>       0.49842324       0.49774005       0.65413816 </v>
   <v>       0.25083860       0.24691165       0.65447056 </v>
   <v>       0.25041126       0.74783944       0.65360863 </v>
   <v>       0.74822093       0.24685503       0.65450621 </v>
   <v>       0.74964505       0.75002701       0.65457428 </v>
   <v>       0.14494904       0.10419594       0.60752251 </v>
   <v>       0.14640852       0.60928211       0.60756415 </v>
   <v>       0.64567846       0.10925330       0.60828481 </v>
   <v>       0.63031612       0.61957687       0.61108670 </v>
   <v>       0.35869798       0.39488160       0.60848462 </v>
   <v>       0.35784015       0.89478685       0.60828359 </v>
   <v>       0.86974396       0.38044670       0.61105532 </v>
   <v>       0.85842719       0.89515971       0.60750866 </v>
   <v>       0.11049369       0.35370879       0.60733528 </v>
   <v>       0.10449922       0.85833996       0.60791187 </v>
   <v>       0.61178702       0.36436777       0.60648282 </v>
   <v>       0.60451967       0.85994343       0.60782622 </v>
   <v>       0.39510981       0.14509937       0.60835923 </v>
   <v>       0.39460103       0.64090081       0.60779613 </v>
   <v>       0.88993525       0.14314887       0.60836283 </v>
   <v>       0.90426224       0.65469885       0.61103909 </v>
   <v>       0.00000000       0.00000000       0.75492797 </v>
   <v>       0.00000000       0.50000000       0.75492797 </v>
   <v>       0.50000000       0.00000000       0.75492797 </v>
   <v>       0.49999999       0.50000000       0.75492797 </v>
   <v>       0.25000050       0.25000000       0.75493902 </v>
   <v>       0.25000051       0.74999997       0.75493902 </v>
   <v>       0.75000047       0.25000000       0.75493902 </v>
   <v>       0.75000046       0.74999997       0.75493902 </v>
   <v>       0.13579050       0.11421000       0.70478299 </v>
   <v>       0.13579050       0.61420998       0.70478299 </v>
   <v>       0.63579045       0.11421000       0.70478299 </v>
   <v>       0.63579049       0.61420998       0.70478299 </v>
   <v>       0.36420952       0.38578999       0.70478299 </v>
   <v>       0.36420950       0.88578996       0.70478299 </v>
   <v>       0.86420954       0.38578999       0.70478299 </v>
   <v>       0.86420953       0.88578996       0.70478299 </v>
   <v>       0.11421799       0.36421899       0.70478098 </v>
   <v>       0.11421799       0.86421899       0.70478098 </v>
   <v>       0.61421800       0.36421899       0.70478098 </v>
   <v>       0.61421799       0.86421899       0.70478098 </v>
   <v>       0.38578201       0.13578149       0.70478202 </v>
   <v>       0.38578200       0.63578149       0.70478202 </v>
   <v>       0.88578199       0.13578149       0.70478202 </v>
   <v>       0.88578203       0.63578149       0.70478202 </v>
   <v>       0.13466700       0.11533200       0.80125603 </v>
   <v>       0.13466699       0.61533199       0.80125603 </v>
   <v>       0.63466699       0.11533200       0.80125603 </v>
   <v>       0.63466698       0.61533199       0.80125603 </v>
   <v>       0.36533300       0.38466799       0.80125603 </v>
   <v>       0.36533299       0.88466796       0.80125603 </v>
   <v>       0.86533295       0.38466799       0.80125603 </v>
   <v>       0.86533294       0.88466796       0.80125603 </v>
   <v>       0.11532850       0.36533700       0.80126500 </v>
   <v>       0.11532850       0.86533698       0.80126500 </v>
   <v>       0.61532850       0.36533700       0.80126500 </v>
   <v>       0.61532849       0.86533698       0.80126500 </v>
   <v>       0.38467151       0.13466300       0.80126500 </v>
   <v>       0.38467150       0.63466297       0.80126500 </v>
   <v>       0.88467149       0.13466300       0.80126500 </v>
   <v>       0.88467153       0.63466297       0.80126500 </v>
   <v>       0.00128447       0.99797889       0.60322453 </v>
   <v>       0.01000420       0.49964557       0.60511047 </v>
   <v>       0.49757119       0.99842440       0.60307936 </v>
   <v>       0.49843785       0.50174386       0.60320146 </v>
   <v>       0.24895760       0.24911181       0.60379997 </v>
   <v>       0.24734547       0.74933018       0.60229246 </v>
   <v>       0.75275619       0.24945684       0.60423377 </v>
   <v>       0.75051811       0.75744007       0.60421246 </v>
   <v>       0.00000050       0.00000050       0.70482896 </v>
   <v>       0.00000050       0.50000048       0.70482896 </v>
   <v>       0.50000048       0.00000050       0.70482896 </v>
   <v>       0.50000046       0.50000048       0.70482896 </v>
   <v>       0.24999999       0.24999947       0.70482499 </v>
   <v>       0.25000001       0.74999950       0.70482499 </v>
   <v>       0.74999999       0.24999947       0.70482499 </v>
   <v>       0.74999998       0.74999950       0.70482499 </v>
   <v>       0.00000000       0.00000000       0.80731797 </v>
   <v>       0.00000000       0.50000000       0.80731797 </v>
   <v>       0.50000000       0.00000000       0.80731797 </v>
   <v>       0.49999999       0.50000000       0.80731797 </v>
   <v>       0.24999999       0.25000000       0.80731797 </v>
   <v>       0.25000001       0.74999997       0.80731797 </v>
   <v>       0.74999999       0.25000000       0.80731797 </v>
   <v>       0.74999998       0.74999997       0.80731797 </v>
  </varray>
 </structure>
</modeling>
