<?xml version="1.0" encoding="ISO-8859-1"?>
<modeling>
 <generator>
  <i name="program" type="string">vasp </i>
  <i name="version" type="string">6.2.1  </i>
  <i name="subversion" type="string">16May21 (build Nov 15 2021 14:57:28) complex                          parallel </i>
  <i name="platform" type="string">LinuxPGI </i>
  <i name="date" type="string">2023 07 30 </i>
  <i name="time" type="string">18:10:14 </i>
 </generator>
 <incar>
  <i type="string" name="SYSTEM">PSC</i>
  <i type="int" name="ISTART">     1</i>
  <i type="string" name="PREC">Normal</i>
  <i name="BMIX">      0.01000000</i>
  <i name="AMIN">      0.01000000</i>
  <i type="int" name="ICHARG">     1</i>
  <i type="int" name="NELM">   600</i>
  <i type="int" name="ISYM">     0</i>
  <i name="ENCUT">    500.00000000</i>
  <i type="string" name="LREAL">Auto</i>
  <i type="int" name="ISMEAR">     0</i>
  <i name="SIGMA">      0.05000000</i>
  <i type="logical" name="LWAVE"> F  </i>
  <i type="logical" name="LVTOT"> T  </i>
  <i type="logical" name="GGA_COMPAT"> F  </i>
  <i type="logical" name="LDIPOL"> T  </i>
  <i type="int" name="IDIPOL">     3</i>
  <i type="int" name="IVDW">    12</i>
 </incar>
 <primitive_cell>
  <structure name="primitive_cell" >
   <crystal>
    <varray name="basis" >
     <v>      18.06080055       0.00000000       0.00000000 </v>
     <v>      -0.00491865      18.06279945       0.00000000 </v>
     <v>       0.00000000       0.00000000      62.48749924 </v>
    </varray>
    <i name="volume">  20385.21054034 </i>
    <varray name="rec_basis" >
     <v>       0.05536853       0.00001508      -0.00000000 </v>
     <v>       0.00000000       0.05536240       0.00000000 </v>
     <v>       0.00000000      -0.00000000       0.01600320 </v>
    </varray>
   </crystal>
   <varray name="positions" >
    <v>       0.44815937       0.30787843       0.58000663 </v>
    <v>       0.44767571       0.84131703       0.57624361 </v>
    <v>       0.93431399       0.26063359       0.58382765 </v>
    <v>       0.95941792       0.80651622       0.58601577 </v>
    <v>       0.29835360       0.05058464       0.58163147 </v>
    <v>       0.30703464       0.55907028       0.58181315 </v>
    <v>       0.78031169       0.07095149       0.58179361 </v>
    <v>       0.10768488       0.21356341       0.55601893 </v>
    <v>       0.09027003       0.68108984       0.55990313 </v>
    <v>       0.57478476       0.17815385       0.55743809 </v>
    <v>       0.51543080       0.65599783       0.56707015 </v>
    <v>       0.35880043       0.02806746       0.56115826 </v>
    <v>       0.29197329       0.61080063       0.55915114 </v>
    <v>       0.85106949       0.05562410       0.56386620 </v>
    <v>       0.06800755       0.21431258       0.58099389 </v>
    <v>       0.03823257       0.69161965       0.58296651 </v>
    <v>       0.56311096       0.24236276       0.57779306 </v>
    <v>       0.48925229       0.71652496       0.58737468 </v>
    <v>       0.24239094       0.43367114       0.58247466 </v>
    <v>       0.16945774       0.99494007       0.57872458 </v>
    <v>       0.67492445       0.98129041       0.58073627 </v>
    <v>       0.37933920       0.28520575       0.56177313 </v>
    <v>       0.45909923       0.86498714       0.54939071 </v>
    <v>       0.89167100       0.27419824       0.55922245 </v>
    <v>       0.96529973       0.86748405       0.56398622 </v>
    <v>       0.19159044       0.41154460       0.56013047 </v>
    <v>       0.15144630       0.94683474       0.55561192 </v>
    <v>       0.68358237       0.90931747       0.56201500 </v>
    <v>       0.45374522       0.20248860       0.54420083 </v>
    <v>       0.50358033       0.74873732       0.54091343 </v>
    <v>       0.99998378       0.24909724       0.53924048 </v>
    <v>       0.04845856       0.79110441       0.54526800 </v>
    <v>       0.21671370       0.52138143       0.54314056 </v>
    <v>       0.27003246       0.96143563       0.54228467 </v>
    <v>       0.79563548       0.95303696       0.54905544 </v>
    <v>       0.45640015       0.30821232       0.67646245 </v>
    <v>       0.43356978       0.81653432       0.67165259 </v>
    <v>       0.96276507       0.28215919       0.68019476 </v>
    <v>       0.93575569       0.79588371       0.67439172 </v>
    <v>       0.30638402       0.05545724       0.67331607 </v>
    <v>       0.29668963       0.55131926       0.67619702 </v>
    <v>       0.80102857       0.05095526       0.67654908 </v>
    <v>       0.83870496       0.52772650       0.66997440 </v>
    <v>       0.08537789       0.17447460       0.64533006 </v>
    <v>       0.09555158       0.68871742       0.65473905 </v>
    <v>       0.56988706       0.16242772       0.65163998 </v>
    <v>       0.57196180       0.67578061       0.65881707 </v>
    <v>       0.18214346       0.41175094       0.64931072 </v>
    <v>       0.17228669       0.92089626       0.65291337 </v>
    <v>       0.65618611       0.45826880       0.65700641 </v>
    <v>       0.66776061       0.92880906       0.64978451 </v>
    <v>       0.06473844       0.18754459       0.67234969 </v>
    <v>       0.04295753       0.69746900       0.67774554 </v>
    <v>       0.55518095       0.20427823       0.67634176 </v>
    <v>       0.52881664       0.71741476       0.68087971 </v>
    <v>       0.20808690       0.43955521       0.67462822 </v>
    <v>       0.20406810       0.95557411       0.67697970 </v>
    <v>       0.72354816       0.45144839       0.67616216 </v>
    <v>       0.69258516       0.95757343       0.67523204 </v>
    <v>       0.41515706       0.32486844       0.65194442 </v>
    <v>       0.42308259       0.83491505       0.64441710 </v>
    <v>       0.92327590       0.32327292       0.65716587 </v>
    <v>       0.92972339       0.83803127       0.64964111 </v>
    <v>       0.33167532       0.07777346       0.64729713 </v>
    <v>       0.32112759       0.58671410       0.65160549 </v>
    <v>       0.83863852       0.07380790       0.65191396 </v>
    <v>       0.84292964       0.57360881       0.64543213 </v>
    <v>       0.99868174       0.25803122       0.63396317 </v>
    <v>       0.03090675       0.77792030       0.63551249 </v>
    <v>       0.48342686       0.23536192       0.63434831 </v>
    <v>       0.50935956       0.74889830       0.63428403 </v>
    <v>       0.25027611       0.99543265       0.63231678 </v>
    <v>       0.25127190       0.50283265       0.63254546 </v>
    <v>       0.75956408       0.00060612       0.63314379 </v>
    <v>       0.72926082       0.53676732       0.63551951 </v>
    <v>       0.44874502       0.30128397       0.76888902 </v>
    <v>       0.44874501       0.80128391       0.76888902 </v>
    <v>       0.94874497       0.30128397       0.76888902 </v>
    <v>       0.94874501       0.80128391       0.76888902 </v>
    <v>       0.30127600       0.05129450       0.76887296 </v>
    <v>       0.30127601       0.55129450       0.76887296 </v>
    <v>       0.80127594       0.05129450       0.76887296 </v>
    <v>       0.80127598       0.55129450       0.76887296 </v>
    <v>       0.07877100       0.17118050       0.74344197 </v>
    <v>       0.07877101       0.67118045       0.74344197 </v>
    <v>       0.57877100       0.17118050       0.74344197 </v>
    <v>       0.57877099       0.67118045       0.74344197 </v>
    <v>       0.17119950       0.42117448       0.74342103 </v>
    <v>       0.17119950       0.92117451       0.74342103 </v>
    <v>       0.67119951       0.42117448       0.74342103 </v>
    <v>       0.67119950       0.92117451       0.74342103 </v>
    <v>       0.05125600       0.19871499       0.76888902 </v>
    <v>       0.05125600       0.69871493       0.76888902 </v>
    <v>       0.55125603       0.19871499       0.76888902 </v>
    <v>       0.55125602       0.69871493       0.76888902 </v>
    <v>       0.19872349       0.44870397       0.76887205 </v>
    <v>       0.19872349       0.94870397       0.76887205 </v>
    <v>       0.69872352       0.44870397       0.76887205 </v>
    <v>       0.69872351       0.94870397       0.76887205 </v>
    <v>       0.42123152       0.32881747       0.74344197 </v>
    <v>       0.42123151       0.82881744       0.74344197 </v>
    <v>       0.92123147       0.32881747       0.74344197 </v>
    <v>       0.92123151       0.82881744       0.74344197 </v>
    <v>       0.32880050       0.07882500       0.74342103 </v>
    <v>       0.32880049       0.57882496       0.74342103 </v>
    <v>       0.82880048       0.07882500       0.74342103 </v>
    <v>       0.82880052       0.57882496       0.74342103 </v>
    <v>       0.00000350       0.25000148       0.72582199 </v>
    <v>       0.00000350       0.75000145       0.72582199 </v>
    <v>       0.50000351       0.25000148       0.72582199 </v>
    <v>       0.50000350       0.75000145       0.72582199 </v>
    <v>       0.25000050       0.00000000       0.72580398 </v>
    <v>       0.25000052       0.50000000       0.72580398 </v>
    <v>       0.75000050       0.00000000       0.72580398 </v>
    <v>       0.75000049       0.50000000       0.72580398 </v>
    <v>       0.71625890       0.44293007       0.54320832 </v>
    <v>       0.73597344       0.50213546       0.52170298 </v>
    <v>       0.64979848       0.54248256       0.56098281 </v>
    <v>       0.69195827       0.63209626       0.56164963 </v>
    <v>       0.83745845       0.50397519       0.57510874 </v>
    <v>       0.77112718       0.56937491       0.58510433 </v>
    <v>       0.86447083       0.55762384       0.53704797 </v>
    <v>       0.79739006       0.61815577       0.52869614 </v>
    <v>       0.86567829       0.47756958       0.52199723 </v>
    <v>       0.86644828       0.43882225       0.54807099 </v>
    <v>       0.88215971       0.34322100       0.52191109 </v>
    <v>       0.79575695       0.32887348       0.53457128 </v>
    <v>       0.62602811       0.54613601       0.52405483 </v>
    <v>       0.68961485       0.61990300       0.51916335 </v>
    <v>       0.60633059       0.63591401       0.53291207 </v>
    <v>       0.74981611       0.44961985       0.59930548 </v>
    <v>       0.74044839       0.40503153       0.57431623 </v>
    <v>       0.67022075       0.46985330       0.58297402 </v>
    <v>       0.83198314       0.68157489       0.56878857 </v>
    <v>       0.87926357       0.69621200       0.54450075 </v>
    <v>       0.91365336       0.63108186       0.56262529 </v>
    <v>       0.82653323       0.39613765       0.49013417 </v>
    <v>       0.79324780       0.30723115       0.49496277 </v>
    <v>       0.66692982       0.31531786       0.52139609 </v>
    <v>       0.74105196       0.47549595       0.47524581 </v>
    <v>       0.54138580       0.36882928       0.51967694 </v>
    <v>       0.61539418       0.52873314       0.47381901 </v>
    <v>       0.51420332       0.47450320       0.49663782 </v>
    <v>       0.00044670       0.24463248       0.55654180 </v>
    <v>       0.02760864       0.77396559       0.56074808 </v>
    <v>       0.47568884       0.23096276       0.55823269 </v>
    <v>       0.49081975       0.76010281       0.55716912 </v>
    <v>       0.24103245       0.51215171       0.55858548 </v>
    <v>       0.25481227       0.98621984       0.55730733 </v>
    <v>       0.76809064       0.98242197       0.56176367 </v>
    <v>       0.00438611       0.24885487       0.65140281 </v>
    <v>       0.01304484       0.76359950       0.65202903 </v>
    <v>       0.49265203       0.24357312       0.65162258 </v>
    <v>       0.49882805       0.75489242       0.65164096 </v>
    <v>       0.25160634       0.49957551       0.65009493 </v>
    <v>       0.25095687       0.99841633       0.64989995 </v>
    <v>       0.74959124       0.51580737       0.65073410 </v>
    <v>       0.75271169       0.00093124       0.65061988 </v>
    <v>       0.49998898       0.24999498       0.74327702 </v>
    <v>       0.49998903       0.74999496       0.74327702 </v>
    <v>       0.99998898       0.24999498       0.74327702 </v>
    <v>       0.99998903       0.74999496       0.74327702 </v>
    <v>       0.25000050       0.00000100       0.74325596 </v>
    <v>       0.25000052       0.50000100       0.74325596 </v>
    <v>       0.75000050       0.00000100       0.74325596 </v>
    <v>       0.75000049       0.50000100       0.74325596 </v>
    <v>       0.71386042       0.39277953       0.49829693 </v>
    <v>       0.65765838       0.36230507       0.51060002 </v>
    <v>       0.69744838       0.45187389       0.48501003 </v>
    <v>       0.58538478       0.39135046       0.50963743 </v>
    <v>       0.62678722       0.48235649       0.48396823 </v>
    <v>       0.56836665       0.45233418       0.49671483 </v>
    <v>       0.75778521       0.48216135       0.53730779 </v>
    <v>       0.68547850       0.58138539       0.55236823 </v>
    <v>       0.77922673       0.52094712       0.57474551 </v>
    <v>       0.82215799       0.59550212       0.54290424 </v>
    <v>       0.83373139       0.44260520       0.53308856 </v>
    <v>       0.82518340       0.36527288       0.52320768 </v>
    <v>       0.65135767       0.59582540       0.53064642 </v>
    <v>       0.73078297       0.45817841       0.58276524 </v>
    <v>       0.86239061       0.65371534       0.55601893 </v>
    <v>       0.79133245       0.36400632       0.50058050 </v>
    <v>       0.06288557       0.22232078       0.56508556 </v>
    <v>       0.05319749       0.71169413       0.56859963 </v>
    <v>       0.54114421       0.21368154       0.56531809 </v>
    <v>       0.50305418       0.70857036       0.57164687 </v>
    <v>       0.43283940       0.28082230       0.56693365 </v>
    <v>       0.46388736       0.82680785       0.56161300 </v>
    <v>       0.93896194       0.26132302       0.56735158 </v>
    <v>       0.97806474       0.81614003       0.57030090 </v>
    <v>       0.22466590       0.44820398       0.56748368 </v>
    <v>       0.18816754       0.97505586       0.56414610 </v>
    <v>       0.70279004       0.95742655       0.56823878 </v>
    <v>       0.30656387       0.02472128       0.56720018 </v>
    <v>       0.28201943       0.56340107       0.56693059 </v>
    <v>       0.80283065       0.03834743       0.56983736 </v>
    <v>       0.05403069       0.20162356       0.65703596 </v>
    <v>       0.05087902       0.71463549       0.66215154 </v>
    <v>       0.54149196       0.20237703       0.66064520 </v>
    <v>       0.53531776       0.71331360       0.66491699 </v>
    <v>       0.21216573       0.44705758       0.65894643 </v>
    <v>       0.20772160       0.95695240       0.66106704 </v>
    <v>       0.70819246       0.47138555       0.66178294 </v>
    <v>       0.70255640       0.96078165       0.65958768 </v>
    <v>       0.45232075       0.29599876       0.66105678 </v>
    <v>       0.44821963       0.80580878       0.65665056 </v>
    <v>       0.96016335       0.28740443       0.66403400 </v>
    <v>       0.95606913       0.80049649       0.65903257 </v>
    <v>       0.29980771       0.04720244       0.65775693 </v>
    <v>       0.29221122       0.54903259       0.66035327 </v>
    <v>       0.80069954       0.04508982       0.66081870 </v>
    <v>       0.81632702       0.54032525       0.65596708 </v>
    <v>       0.04586250       0.20411950       0.75272599 </v>
    <v>       0.04586250       0.70411946       0.75272599 </v>
    <v>       0.54586251       0.20411950       0.75272599 </v>
    <v>       0.54586250       0.70411946       0.75272599 </v>
    <v>       0.20411900       0.45410100       0.75270499 </v>
    <v>       0.20411899       0.95410095       0.75270499 </v>
    <v>       0.70411898       0.45410100       0.75270499 </v>
    <v>       0.70411896       0.95410095       0.75270499 </v>
    <v>       0.45414002       0.29588849       0.75272697 </v>
    <v>       0.45414001       0.79588852       0.75272697 </v>
    <v>       0.95414002       0.29588849       0.75272697 </v>
    <v>       0.95414006       0.79588852       0.75272697 </v>
    <v>       0.29588249       0.04590050       0.75270499 </v>
    <v>       0.29588248       0.54590053       0.75270499 </v>
    <v>       0.79588244       0.04590050       0.75270499 </v>
    <v>       0.79588248       0.54590053       0.75270499 </v>
    <v>       0.76176458       0.54572957       0.55200518 </v>
    <v>       0.49244934       0.01758697       0.55102617 </v>
    <v>       0.48217715       0.51780397       0.55603754 </v>
    <v>       0.98955025       0.00444290       0.55249686 </v>
    <v>       0.03273654       0.50369858       0.55451649 </v>
    <v>       0.24856052       0.24574944       0.55106414 </v>
    <v>       0.25718303       0.75345606       0.55295813 </v>
    <v>       0.74192886       0.21566300       0.55882936 </v>
    <v>       0.71415778       0.78625948       0.54648278 </v>
    <v>       0.00302188       0.00193746       0.65446086 </v>
    <v>       0.01218127       0.49223029       0.65577063 </v>
    <v>       0.49670305       0.00113853       0.65421758 </v>
    <v>       0.50315491       0.48939759       0.65559054 </v>
    <v>       0.25396360       0.24645828       0.65436538 </v>
    <v>       0.25128494       0.75411381       0.65466237 </v>
    <v>       0.74082027       0.25374869       0.65631578 </v>
    <v>       0.75450679       0.75532240       0.65340925 </v>
    <v>       0.14398639       0.10806833       0.60761390 </v>
    <v>       0.14676347       0.61353259       0.61103835 </v>
    <v>       0.64561650       0.10527695       0.61089422 </v>
    <v>       0.61906855       0.63222815       0.61554127 </v>
    <v>       0.35383276       0.39281874       0.60943336 </v>
    <v>       0.36804714       0.88776539       0.60865592 </v>
    <v>       0.88222421       0.37124800       0.61387113 </v>
    <v>       0.86105272       0.89062882       0.61048514 </v>
    <v>       0.11142906       0.35493166       0.60884065 </v>
    <v>       0.11919185       0.87352152       0.60865433 </v>
    <v>       0.58805626       0.34243444       0.60748411 </v>
    <v>       0.60953597       0.86486259       0.60991630 </v>
    <v>       0.38792685       0.13738173       0.60928080 </v>
    <v>       0.38287223       0.63246336       0.61331682 </v>
    <v>       0.88373752       0.14056874       0.61355527 </v>
    <v>       0.91548402       0.65146806       0.61694548 </v>
    <v>       0.00000000       0.00000000       0.75492797 </v>
    <v>       0.00000000       0.50000000       0.75492797 </v>
    <v>       0.50000000       0.00000000       0.75492797 </v>
    <v>       0.49999999       0.50000000       0.75492797 </v>
    <v>       0.25000050       0.25000000       0.75493902 </v>
    <v>       0.25000051       0.74999997       0.75493902 </v>
    <v>       0.75000047       0.25000000       0.75493902 </v>
    <v>       0.75000046       0.74999997       0.75493902 </v>
    <v>       0.13579050       0.11421000       0.70478299 </v>
    <v>       0.13579050       0.61420998       0.70478299 </v>
    <v>       0.63579045       0.11421000       0.70478299 </v>
    <v>       0.63579049       0.61420998       0.70478299 </v>
    <v>       0.36420952       0.38578999       0.70478299 </v>
    <v>       0.36420950       0.88578996       0.70478299 </v>
    <v>       0.86420954       0.38578999       0.70478299 </v>
    <v>       0.86420953       0.88578996       0.70478299 </v>
    <v>       0.11421799       0.36421899       0.70478098 </v>
    <v>       0.11421799       0.86421899       0.70478098 </v>
    <v>       0.61421800       0.36421899       0.70478098 </v>
    <v>       0.61421799       0.86421899       0.70478098 </v>
    <v>       0.38578201       0.13578149       0.70478202 </v>
    <v>       0.38578200       0.63578149       0.70478202 </v>
    <v>       0.88578199       0.13578149       0.70478202 </v>
    <v>       0.88578203       0.63578149       0.70478202 </v>
    <v>       0.13466700       0.11533200       0.80125603 </v>
    <v>       0.13466699       0.61533199       0.80125603 </v>
    <v>       0.63466699       0.11533200       0.80125603 </v>
    <v>       0.63466698       0.61533199       0.80125603 </v>
    <v>       0.36533300       0.38466799       0.80125603 </v>
    <v>       0.36533299       0.88466796       0.80125603 </v>
    <v>       0.86533295       0.38466799       0.80125603 </v>
    <v>       0.86533294       0.88466796       0.80125603 </v>
    <v>       0.11532850       0.36533700       0.80126500 </v>
    <v>       0.11532850       0.86533698       0.80126500 </v>
    <v>       0.61532850       0.36533700       0.80126500 </v>
    <v>       0.61532849       0.86533698       0.80126500 </v>
    <v>       0.38467151       0.13466300       0.80126500 </v>
    <v>       0.38467150       0.63466297       0.80126500 </v>
    <v>       0.88467149       0.13466300       0.80126500 </v>
    <v>       0.88467153       0.63466297       0.80126500 </v>
    <v>       0.99342789       0.00498918       0.60453937 </v>
    <v>       0.00703554       0.50381606       0.60447033 </v>
    <v>       0.50261768       0.00813672       0.60320225 </v>
    <v>       0.49872041       0.50235024       0.60507018 </v>
    <v>       0.25136994       0.25050715       0.60378672 </v>
    <v>       0.24980989       0.75319782       0.60295342 </v>
    <v>       0.74532420       0.25490654       0.60695099 </v>
    <v>       0.74221184       0.75837237       0.60307326 </v>
    <v>       0.00000050       0.00000050       0.70482896 </v>
    <v>       0.00000050       0.50000048       0.70482896 </v>
    <v>       0.50000048       0.00000050       0.70482896 </v>
    <v>       0.50000046       0.50000048       0.70482896 </v>
    <v>       0.24999999       0.24999947       0.70482499 </v>
    <v>       0.25000001       0.74999950       0.70482499 </v>
    <v>       0.74999999       0.24999947       0.70482499 </v>
    <v>       0.74999998       0.74999950       0.70482499 </v>
    <v>       0.00000000       0.00000000       0.80731797 </v>
    <v>       0.00000000       0.50000000       0.80731797 </v>
    <v>       0.50000000       0.00000000       0.80731797 </v>
    <v>       0.49999999       0.50000000       0.80731797 </v>
    <v>       0.24999999       0.25000000       0.80731797 </v>
    <v>       0.25000001       0.74999997       0.80731797 </v>
    <v>       0.74999999       0.25000000       0.80731797 </v>
    <v>       0.74999998       0.74999997       0.80731797 </v>
   </varray>
  </structure>
  <varray name="primitive_index" >
   <v type="int" >        1 </v>
   <v type="int" >        2 </v>
   <v type="int" >        3 </v>
   <v type="int" >        4 </v>
   <v type="int" >        5 </v>
   <v type="int" >        6 </v>
   <v type="int" >        7 </v>
   <v type="int" >        8 </v>
   <v type="int" >        9 </v>
   <v type="int" >       10 </v>
   <v type="int" >       11 </v>
   <v type="int" >       12 </v>
   <v type="int" >       13 </v>
   <v type="int" >       14 </v>
   <v type="int" >       15 </v>
   <v type="int" >       16 </v>
   <v type="int" >       17 </v>
   <v type="int" >       18 </v>
   <v type="int" >       19 </v>
   <v type="int" >       20 </v>
   <v type="int" >       21 </v>
   <v type="int" >       22 </v>
   <v type="int" >       23 </v>
   <v type="int" >       24 </v>
   <v type="int" >       25 </v>
   <v type="int" >       26 </v>
   <v type="int" >       27 </v>
   <v type="int" >       28 </v>
   <v type="int" >       29 </v>
   <v type="int" >       30 </v>
   <v type="int" >       31 </v>
   <v type="int" >       32 </v>
   <v type="int" >       33 </v>
   <v type="int" >       34 </v>
   <v type="int" >       35 </v>
   <v type="int" >       36 </v>
   <v type="int" >       37 </v>
   <v type="int" >       38 </v>
   <v type="int" >       39 </v>
   <v type="int" >       40 </v>
   <v type="int" >       41 </v>
   <v type="int" >       42 </v>
   <v type="int" >       43 </v>
   <v type="int" >       44 </v>
   <v type="int" >       45 </v>
   <v type="int" >       46 </v>
   <v type="int" >       47 </v>
   <v type="int" >       48 </v>
   <v type="int" >       49 </v>
   <v type="int" >       50 </v>
   <v type="int" >       51 </v>
   <v type="int" >       52 </v>
   <v type="int" >       53 </v>
   <v type="int" >       54 </v>
   <v type="int" >       55 </v>
   <v type="int" >       56 </v>
   <v type="int" >       57 </v>
   <v type="int" >       58 </v>
   <v type="int" >       59 </v>
   <v type="int" >       60 </v>
   <v type="int" >       61 </v>
   <v type="int" >       62 </v>
   <v type="int" >       63 </v>
   <v type="int" >       64 </v>
   <v type="int" >       65 </v>
   <v type="int" >       66 </v>
   <v type="int" >       67 </v>
   <v type="int" >       68 </v>
   <v type="int" >       69 </v>
   <v type="int" >       70 </v>
   <v type="int" >       71 </v>
   <v type="int" >       72 </v>
   <v type="int" >       73 </v>
   <v type="int" >       74 </v>
   <v type="int" >       75 </v>
   <v type="int" >       76 </v>
   <v type="int" >       77 </v>
   <v type="int" >       78 </v>
   <v type="int" >       79 </v>
   <v type="int" >       80 </v>
   <v type="int" >       81 </v>
   <v type="int" >       82 </v>
   <v type="int" >       83 </v>
   <v type="int" >       84 </v>
   <v type="int" >       85 </v>
   <v type="int" >       86 </v>
   <v type="int" >       87 </v>
   <v type="int" >       88 </v>
   <v type="int" >       89 </v>
   <v type="int" >       90 </v>
   <v type="int" >       91 </v>
   <v type="int" >       92 </v>
   <v type="int" >       93 </v>
   <v type="int" >       94 </v>
   <v type="int" >       95 </v>
   <v type="int" >       96 </v>
   <v type="int" >       97 </v>
   <v type="int" >       98 </v>
   <v type="int" >       99 </v>
   <v type="int" >      100 </v>
   <v type="int" >      101 </v>
   <v type="int" >      102 </v>
   <v type="int" >      103 </v>
   <v type="int" >      104 </v>
   <v type="int" >      105 </v>
   <v type="int" >      106 </v>
   <v type="int" >      107 </v>
   <v type="int" >      108 </v>
   <v type="int" >      109 </v>
   <v type="int" >      110 </v>
   <v type="int" >      111 </v>
   <v type="int" >      112 </v>
   <v type="int" >      113 </v>
   <v type="int" >      114 </v>
   <v type="int" >      115 </v>
   <v type="int" >      116 </v>
   <v type="int" >      117 </v>
   <v type="int" >      118 </v>
   <v type="int" >      119 </v>
   <v type="int" >      120 </v>
   <v type="int" >      121 </v>
   <v type="int" >      122 </v>
   <v type="int" >      123 </v>
   <v type="int" >      124 </v>
   <v type="int" >      125 </v>
   <v type="int" >      126 </v>
   <v type="int" >      127 </v>
   <v type="int" >      128 </v>
   <v type="int" >      129 </v>
   <v type="int" >      130 </v>
   <v type="int" >      131 </v>
   <v type="int" >      132 </v>
   <v type="int" >      133 </v>
   <v type="int" >      134 </v>
   <v type="int" >      135 </v>
   <v type="int" >      136 </v>
   <v type="int" >      137 </v>
   <v type="int" >      138 </v>
   <v type="int" >      139 </v>
   <v type="int" >      140 </v>
   <v type="int" >      141 </v>
   <v type="int" >      142 </v>
   <v type="int" >      143 </v>
   <v type="int" >      144 </v>
   <v type="int" >      145 </v>
   <v type="int" >      146 </v>
   <v type="int" >      147 </v>
   <v type="int" >      148 </v>
   <v type="int" >      149 </v>
   <v type="int" >      150 </v>
   <v type="int" >      151 </v>
   <v type="int" >      152 </v>
   <v type="int" >      153 </v>
   <v type="int" >      154 </v>
   <v type="int" >      155 </v>
   <v type="int" >      156 </v>
   <v type="int" >      157 </v>
   <v type="int" >      158 </v>
   <v type="int" >      159 </v>
   <v type="int" >      160 </v>
   <v type="int" >      161 </v>
   <v type="int" >      162 </v>
   <v type="int" >      163 </v>
   <v type="int" >      164 </v>
   <v type="int" >      165 </v>
   <v type="int" >      166 </v>
   <v type="int" >      167 </v>
   <v type="int" >      168 </v>
   <v type="int" >      169 </v>
   <v type="int" >      170 </v>
   <v type="int" >      171 </v>
   <v type="int" >      172 </v>
   <v type="int" >      173 </v>
   <v type="int" >      174 </v>
   <v type="int" >      175 </v>
   <v type="int" >      176 </v>
   <v type="int" >      177 </v>
   <v type="int" >      178 </v>
   <v type="int" >      179 </v>
   <v type="int" >      180 </v>
   <v type="int" >      181 </v>
   <v type="int" >      182 </v>
   <v type="int" >      183 </v>
   <v type="int" >      184 </v>
   <v type="int" >      185 </v>
   <v type="int" >      186 </v>
   <v type="int" >      187 </v>
   <v type="int" >      188 </v>
   <v type="int" >      189 </v>
   <v type="int" >      190 </v>
   <v type="int" >      191 </v>
   <v type="int" >      192 </v>
   <v type="int" >      193 </v>
   <v type="int" >      194 </v>
   <v type="int" >      195 </v>
   <v type="int" >      196 </v>
   <v type="int" >      197 </v>
   <v type="int" >      198 </v>
   <v type="int" >      199 </v>
   <v type="int" >      200 </v>
   <v type="int" >      201 </v>
   <v type="int" >      202 </v>
   <v type="int" >      203 </v>
   <v type="int" >      204 </v>
   <v type="int" >      205 </v>
   <v type="int" >      206 </v>
   <v type="int" >      207 </v>
   <v type="int" >      208 </v>
   <v type="int" >      209 </v>
   <v type="int" >      210 </v>
   <v type="int" >      211 </v>
   <v type="int" >      212 </v>
   <v type="int" >      213 </v>
   <v type="int" >      214 </v>
   <v type="int" >      215 </v>
   <v type="int" >      216 </v>
   <v type="int" >      217 </v>
   <v type="int" >      218 </v>
   <v type="int" >      219 </v>
   <v type="int" >      220 </v>
   <v type="int" >      221 </v>
   <v type="int" >      222 </v>
   <v type="int" >      223 </v>
   <v type="int" >      224 </v>
   <v type="int" >      225 </v>
   <v type="int" >      226 </v>
   <v type="int" >      227 </v>
   <v type="int" >      228 </v>
   <v type="int" >      229 </v>
   <v type="int" >      230 </v>
   <v type="int" >      231 </v>
   <v type="int" >      232 </v>
   <v type="int" >      233 </v>
   <v type="int" >      234 </v>
   <v type="int" >      235 </v>
   <v type="int" >      236 </v>
   <v type="int" >      237 </v>
   <v type="int" >      238 </v>
   <v type="int" >      239 </v>
   <v type="int" >      240 </v>
   <v type="int" >      241 </v>
   <v type="int" >      242 </v>
   <v type="int" >      243 </v>
   <v type="int" >      244 </v>
   <v type="int" >      245 </v>
   <v type="int" >      246 </v>
   <v type="int" >      247 </v>
   <v type="int" >      248 </v>
   <v type="int" >      249 </v>
   <v type="int" >      250 </v>
   <v type="int" >      251 </v>
   <v type="int" >      252 </v>
   <v type="int" >      253 </v>
   <v type="int" >      254 </v>
   <v type="int" >      255 </v>
   <v type="int" >      256 </v>
   <v type="int" >      257 </v>
   <v type="int" >      258 </v>
   <v type="int" >      259 </v>
   <v type="int" >      260 </v>
   <v type="int" >      261 </v>
   <v type="int" >      262 </v>
   <v type="int" >      263 </v>
   <v type="int" >      264 </v>
   <v type="int" >      265 </v>
   <v type="int" >      266 </v>
   <v type="int" >      267 </v>
   <v type="int" >      268 </v>
   <v type="int" >      269 </v>
   <v type="int" >      270 </v>
   <v type="int" >      271 </v>
   <v type="int" >      272 </v>
   <v type="int" >      273 </v>
   <v type="int" >      274 </v>
   <v type="int" >      275 </v>
   <v type="int" >      276 </v>
   <v type="int" >      277 </v>
   <v type="int" >      278 </v>
   <v type="int" >      279 </v>
   <v type="int" >      280 </v>
   <v type="int" >      281 </v>
   <v type="int" >      282 </v>
   <v type="int" >      283 </v>
   <v type="int" >      284 </v>
   <v type="int" >      285 </v>
   <v type="int" >      286 </v>
   <v type="int" >      287 </v>
   <v type="int" >      288 </v>
   <v type="int" >      289 </v>
   <v type="int" >      290 </v>
   <v type="int" >      291 </v>
   <v type="int" >      292 </v>
   <v type="int" >      293 </v>
   <v type="int" >      294 </v>
   <v type="int" >      295 </v>
   <v type="int" >      296 </v>
   <v type="int" >      297 </v>
   <v type="int" >      298 </v>
   <v type="int" >      299 </v>
   <v type="int" >      300 </v>
   <v type="int" >      301 </v>
   <v type="int" >      302 </v>
   <v type="int" >      303 </v>
   <v type="int" >      304 </v>
   <v type="int" >      305 </v>
   <v type="int" >      306 </v>
   <v type="int" >      307 </v>
   <v type="int" >      308 </v>
   <v type="int" >      309 </v>
   <v type="int" >      310 </v>
   <v type="int" >      311 </v>
   <v type="int" >      312 </v>
   <v type="int" >      313 </v>
   <v type="int" >      314 </v>
   <v type="int" >      315 </v>
   <v type="int" >      316 </v>
   <v type="int" >      317 </v>
   <v type="int" >      318 </v>
   <v type="int" >      319 </v>
   <v type="int" >      320 </v>
   <v type="int" >      321 </v>
   <v type="int" >      322 </v>
   <v type="int" >      323 </v>
   <v type="int" >      324 </v>
   <v type="int" >      325 </v>
  </varray>
 </primitive_cell>
 <kpoints>
  <generation param="Gamma">
   <v type="int" name="divisions">       3        3        1 </v>
   <v name="usershift">      0.00000000       0.00000000       0.00000000 </v>
   <v name="genvec1">      0.33333333       0.00000000       0.00000000 </v>
   <v name="genvec2">      0.00000000       0.33333333       0.00000000 </v>
   <v name="genvec3">      0.00000000       0.00000000       1.00000000 </v>
   <v name="shift">      0.00000000       0.00000000       0.00000000 </v>
  </generation>
  <varray name="kpointlist" >
   <v>       0.00000000       0.00000000       0.00000000 </v>
   <v>       0.33333333       0.00000000       0.00000000 </v>
   <v>       0.00000000       0.33333333       0.00000000 </v>
   <v>       0.33333333       0.33333333       0.00000000 </v>
   <v>      -0.33333333       0.33333333       0.00000000 </v>
  </varray>
  <varray name="weights" >
   <v>       0.11111111 </v>
   <v>       0.22222222 </v>
   <v>       0.22222222 </v>
   <v>       0.22222222 </v>
   <v>       0.22222222 </v>
  </varray>
 </kpoints>
 <parameters>
  <separator name="general" >
   <i type="string" name="SYSTEM">PSC</i>
   <i type="logical" name="LCOMPAT"> F  </i>
  </separator>
  <separator name="electronic" >
   <i type="string" name="PREC">normal</i>
   <i name="ENMAX">    500.00000000</i>
   <i name="ENAUG">    644.87300000</i>
   <i name="EDIFF">      0.00010000</i>
   <i type="int" name="IALGO">    38</i>
   <i type="int" name="IWAVPR">    10</i>
   <i type="int" name="NBANDS">   732</i>
   <i type="int" name="NBANDSLOW">    -1</i>
   <i type="int" name="NBANDSHIGH">    -1</i>
   <i name="NELECT">   1134.00000000</i>
   <i type="int" name="TURBO">     0</i>
   <i type="int" name="IRESTART">     0</i>
   <i type="int" name="NREBOOT">     0</i>
   <i type="int" name="NMIN">     0</i>
   <i name="EREF">      0.00000000</i>
   <separator name="electronic smearing" >
    <i type="int" name="ISMEAR">     0</i>
    <i name="SIGMA">      0.05000000</i>
    <i name="KSPACING">      0.50000000</i>
    <i type="logical" name="KGAMMA"> T  </i>
    <i type="logical" name="KBLOWUP"> T  </i>
   </separator>
   <separator name="electronic projectors" >
    <i type="logical" name="LREAL"> T  </i>
    <v name="ROPT">     -0.00050000     -0.00050000     -0.00050000     -0.00050000     -0.00050000</v>
    <i type="int" name="LMAXPAW">  -100</i>
    <i type="int" name="LMAXMIX">     2</i>
    <i type="logical" name="NLSPLINE"> F  </i>
   </separator>
   <separator name="electronic startup" >
    <i type="int" name="ISTART">     0</i>
    <i type="int" name="ICHARG">     1</i>
    <i type="int" name="INIWAV">     1</i>
   </separator>
   <separator name="electronic spin" >
    <i type="int" name="ISPIN">     1</i>
    <i type="logical" name="LNONCOLLINEAR"> F  </i>
    <v name="MAGMOM">      1.00000000      1.00000000      1.00000000      1.00000000      1.00000000      1.00000000      1.00000000      1.00000000      1.00000000      1.00000000      1.00000000      1.00000000      1.00000000      1.00000000      1.00000000      1.00000000      1.00000000      1.00000000      1.00000000      1.00000000
      1.00000000      1.00000000      1.00000000      1.00000000      1.00000000      1.00000000      1.00000000      1.00000000      1.00000000      1.00000000      1.00000000      1.00000000      1.00000000      1.00000000      1.00000000      1.00000000      1.00000000      1.00000000      1.00000000      1.00000000
      1.00000000      1.00000000      1.00000000      1.00000000      1.00000000      1.00000000      1.00000000      1.00000000      1.00000000      1.00000000      1.00000000      1.00000000      1.00000000      1.00000000      1.00000000      1.00000000      1.00000000      1.00000000      1.00000000      1.00000000
      1.00000000      1.00000000      1.00000000      1.00000000      1.00000000      1.00000000      1.00000000      1.00000000      1.00000000      1.00000000      1.00000000      1.00000000      1.00000000      1.00000000      1.00000000      1.00000000      1.00000000      1.00000000      1.00000000      1.00000000
      1.00000000      1.00000000      1.00000000      1.00000000      1.00000000      1.00000000      1.00000000      1.00000000      1.00000000      1.00000000      1.00000000      1.00000000      1.00000000      1.00000000      1.00000000      1.00000000      1.00000000      1.00000000      1.00000000      1.00000000
      1.00000000      1.00000000      1.00000000      1.00000000      1.00000000      1.00000000      1.00000000      1.00000000      1.00000000      1.00000000      1.00000000      1.00000000      1.00000000      1.00000000      1.00000000      1.00000000      1.00000000      1.00000000      1.00000000      1.00000000
      1.00000000      1.00000000      1.00000000      1.00000000      1.00000000      1.00000000      1.00000000      1.00000000      1.00000000      1.00000000      1.00000000      1.00000000      1.00000000      1.00000000      1.00000000      1.00000000      1.00000000      1.00000000      1.00000000      1.00000000
      1.00000000      1.00000000      1.00000000      1.00000000      1.00000000      1.00000000      1.00000000      1.00000000      1.00000000      1.00000000      1.00000000      1.00000000      1.00000000      1.00000000      1.00000000      1.00000000      1.00000000      1.00000000      1.00000000      1.00000000
      1.00000000      1.00000000      1.00000000      1.00000000      1.00000000      1.00000000      1.00000000      1.00000000      1.00000000      1.00000000      1.00000000      1.00000000      1.00000000      1.00000000      1.00000000      1.00000000      1.00000000      1.00000000      1.00000000      1.00000000
      1.00000000      1.00000000      1.00000000      1.00000000      1.00000000      1.00000000      1.00000000      1.00000000      1.00000000      1.00000000      1.00000000      1.00000000      1.00000000      1.00000000      1.00000000      1.00000000      1.00000000      1.00000000      1.00000000      1.00000000
      1.00000000      1.00000000      1.00000000      1.00000000      1.00000000      1.00000000      1.00000000      1.00000000      1.00000000      1.00000000      1.00000000      1.00000000      1.00000000      1.00000000      1.00000000      1.00000000      1.00000000      1.00000000      1.00000000      1.00000000
      1.00000000      1.00000000      1.00000000      1.00000000      1.00000000      1.00000000      1.00000000      1.00000000      1.00000000      1.00000000      1.00000000      1.00000000      1.00000000      1.00000000      1.00000000      1.00000000      1.00000000      1.00000000      1.00000000      1.00000000
      1.00000000      1.00000000      1.00000000      1.00000000      1.00000000      1.00000000      1.00000000      1.00000000      1.00000000      1.00000000      1.00000000      1.00000000      1.00000000      1.00000000      1.00000000      1.00000000      1.00000000      1.00000000      1.00000000      1.00000000
      1.00000000      1.00000000      1.00000000      1.00000000      1.00000000      1.00000000      1.00000000      1.00000000      1.00000000      1.00000000      1.00000000      1.00000000      1.00000000      1.00000000      1.00000000      1.00000000      1.00000000      1.00000000      1.00000000      1.00000000
      1.00000000      1.00000000      1.00000000      1.00000000      1.00000000      1.00000000      1.00000000      1.00000000      1.00000000      1.00000000      1.00000000      1.00000000      1.00000000      1.00000000      1.00000000      1.00000000      1.00000000      1.00000000      1.00000000      1.00000000
      1.00000000      1.00000000      1.00000000      1.00000000      1.00000000      1.00000000      1.00000000      1.00000000      1.00000000      1.00000000      1.00000000      1.00000000      1.00000000      1.00000000      1.00000000      1.00000000      1.00000000      1.00000000      1.00000000      1.00000000
      1.00000000      1.00000000      1.00000000      1.00000000      1.00000000</v>
    <i name="NUPDOWN">     -1.00000000</i>
    <i type="logical" name="LSORBIT"> F  </i>
    <v name="SAXIS">      0.00000000      0.00000000      1.00000000</v>
    <i type="logical" name="LSPIRAL"> F  </i>
    <v name="QSPIRAL">      0.00000000      0.00000000      0.00000000</v>
    <i type="logical" name="LZEROZ"> F  </i>
   </separator>
   <separator name="electronic exchange-correlation" >
    <i type="logical" name="LASPH"> F  </i>
    <i type="logical" name="LMETAGGA"> F  </i>
   </separator>
   <separator name="electronic convergence" >
    <i type="int" name="NELM">   600</i>
    <i type="int" name="NELMDL">     0</i>
    <i type="int" name="NELMIN">     2</i>
    <i name="ENINI">    500.00000000</i>
    <separator name="electronic convergence detail" >
     <i type="logical" name="LDIAG"> T  </i>
     <i type="logical" name="LSUBROT"> F  </i>
     <i name="WEIMIN">      0.00000000</i>
     <i name="EBREAK">      0.00000003</i>
     <i name="DEPER">      0.30000000</i>
     <i type="int" name="NRMM">     4</i>
     <i name="TIME">      0.40000000</i>
    </separator>
   </separator>
   <separator name="electronic mixer" >
    <i name="AMIX">      0.40000000</i>
    <i name="BMIX">      0.01000000</i>
    <i name="AMIN">      0.01000000</i>
    <i name="AMIX_MAG">      1.60000000</i>
    <i name="BMIX_MAG">      0.01000000</i>
    <separator name="electronic mixer details" >
     <i type="int" name="IMIX">     4</i>
     <i type="logical" name="MIXFIRST"> F  </i>
     <i type="int" name="MAXMIX">   -45</i>
     <i name="WC">    100.00000000</i>
     <i type="int" name="INIMIX">     1</i>
     <i type="int" name="MIXPRE">     1</i>
     <i type="int" name="MREMOVE">     5</i>
    </separator>
   </separator>
   <separator name="electronic dipolcorrection" >
    <i type="logical" name="LDIPOL"> T  </i>
    <i type="logical" name="LMONO"> F  </i>
    <i type="int" name="IDIPOL">     3</i>
    <i name="EPSILON">      1.00000000</i>
    <v name="DIPOL">   -100.00000000   -100.00000000   -100.00000000</v>
    <i name="EFIELD">      0.00000000</i>
   </separator>
  </separator>
  <separator name="grids" >
   <i type="int" name="NGX">   100</i>
   <i type="int" name="NGY">   100</i>
   <i type="int" name="NGZ">   350</i>
   <i type="int" name="NGXF">   200</i>
   <i type="int" name="NGYF">   200</i>
   <i type="int" name="NGZF">   700</i>
   <i type="logical" name="ADDGRID"> F  </i>
  </separator>
  <separator name="ionic" >
   <i type="int" name="NSW">     0</i>
   <i type="int" name="IBRION">    -1</i>
   <i type="int" name="MDALGO">     0</i>
   <i type="int" name="ISIF">     2</i>
   <i name="PSTRESS">      0.00000000</i>
   <i name="EDIFFG">      0.00100000</i>
   <i type="int" name="NFREE">     0</i>
   <i name="POTIM">      0.50000000</i>
   <i name="SMASS">     -3.00000000</i>
   <i name="SCALEE">      1.00000000</i>
  </separator>
  <separator name="ionic md" >
   <i name="TEBEG">      0.00010000</i>
   <i name="TEEND">      0.00010000</i>
   <i type="int" name="NBLOCK">     1</i>
   <i type="int" name="KBLOCK">     1</i>
   <i type="int" name="NPACO">   256</i>
   <i name="APACO">     16.00000000</i>
  </separator>
  <separator name="symmetry" >
   <i type="int" name="ISYM">     0</i>
   <i name="SYMPREC">      0.00001000</i>
  </separator>
  <separator name="dos" >
   <i type="int" name="LORBIT">     0</i>
   <v name="RWIGS">     -1.00000000     -1.00000000     -1.00000000     -1.00000000     -1.00000000</v>
   <i type="int" name="NEDOS">   301</i>
   <i name="EMIN">     10.00000000</i>
   <i name="EMAX">    -10.00000000</i>
   <i name="EFERMI">      0.00000000</i>
  </separator>
  <separator name="writing" >
   <i type="int" name="NWRITE">     2</i>
   <i type="logical" name="LWAVE"> F  </i>
   <i type="logical" name="LDOWNSAMPLE"> F  </i>
   <i type="logical" name="LCHARG"> T  </i>
   <i type="logical" name="LPARD"> F  </i>
   <i type="logical" name="LVTOT"> T  </i>
   <i type="logical" name="LVHAR"> F  </i>
   <i type="logical" name="LELF"> F  </i>
   <i type="logical" name="LOPTICS"> F  </i>
   <v name="STM">      0.00000000      0.00000000      0.00000000      0.00000000      0.00000000      0.00000000      0.00000000</v>
  </separator>
  <separator name="performance" >
   <i type="int" name="NPAR">     4</i>
   <i type="int" name="NSIM">     4</i>
   <i type="int" name="NBLK">    -1</i>
   <i type="logical" name="LPLANE"> T  </i>
   <i type="logical" name="LSCALAPACK"> T  </i>
   <i type="logical" name="LSCAAWARE"> F  </i>
   <i type="logical" name="LSCALU"> F  </i>
   <i type="logical" name="LASYNC"> F  </i>
   <i type="logical" name="LORBITALREAL"> F  </i>
  </separator>
  <separator name="miscellaneous" >
   <i type="int" name="IDIOT">     3</i>
   <i type="int" name="PHON_NSTRUCT">    -1</i>
   <i type="logical" name="LMUSIC"> F  </i>
   <v name="POMASS">      1.00000000     12.01100000     14.00100000    126.90400000    207.20000000</v>
   <v name="DARWINR">      0.00000000      0.00000000      0.00000000      0.00000000      0.00000000</v>
   <v name="DARWINV">      1.00000000      1.00000000      1.00000000      1.00000000      1.00000000</v>
   <i type="logical" name="LCORR"> T  </i>
  </separator>
  <i type="logical" name="GGA_COMPAT"> F  </i>
  <i type="logical" name="LBERRY"> F  </i>
  <i type="int" name="ICORELEVEL">     0</i>
  <i type="logical" name="LDAU"> F  </i>
  <i type="int" name="I_CONSTRAINED_M">     0</i>
  <separator name="electronic exchange-correlation" >
   <i type="string" name="GGA">--</i>
   <i type="int" name="VOSKOWN">     0</i>
   <i type="logical" name="LHFCALC"> F  </i>
   <i type="string" name="PRECFOCK"></i>
   <i type="logical" name="LSYMGRAD"> F  </i>
   <i type="logical" name="LHFONE"> F  </i>
   <i type="logical" name="LRHFCALC"> F  </i>
   <i type="logical" name="LTHOMAS"> F  </i>
   <i type="logical" name="LMODELHF"> F  </i>
   <i type="logical" name="LFOCKACE"> F  </i>
   <i name="ENCUT4O">     -1.00000000</i>
   <i type="int" name="EXXOEP">     0</i>
   <i type="int" name="FOURORBIT">     0</i>
   <i name="AEXX">      0.00000000</i>
   <i name="HFALPHA">      0.00000000</i>
   <i name="MCALPHA">      0.00000000</i>
   <i name="ALDAX">      1.00000000</i>
   <i name="AGGAX">      1.00000000</i>
   <i name="ALDAC">      1.00000000</i>
   <i name="AGGAC">      1.00000000</i>
   <i type="int" name="NKREDX">     1</i>
   <i type="int" name="NKREDY">     1</i>
   <i type="int" name="NKREDZ">     1</i>
   <i type="logical" name="SHIFTRED"> F  </i>
   <i type="logical" name="ODDONLY"> F  </i>
   <i type="logical" name="EVENONLY"> F  </i>
   <i type="int" name="LMAXFOCK">     0</i>
   <i type="int" name="NMAXFOCKAE">     0</i>
   <i type="logical" name="LFOCKAEDFT"> F  </i>
   <i name="HFSCREEN">      0.00000000</i>
   <i name="HFSCREENC">      0.00000000</i>
   <i type="int" name="NBANDSGWLOW">     0</i>
  </separator>
  <separator name="vdW DFT" >
   <i type="logical" name="LUSE_VDW"> F  </i>
   <i name="Zab_VDW">     -0.84910000</i>
   <i name="PARAM1">      0.12340000</i>
   <i name="PARAM2">      1.00000000</i>
   <i name="PARAM3">      0.00000000</i>
  </separator>
  <separator name="model GW" >
   <i type="int" name="MODEL_GW">     0</i>
   <i name="MODEL_EPS0">     37.63423484</i>
   <i name="MODEL_ALPHA">      1.00000000</i>
  </separator>
  <separator name="linear response parameters" >
   <i type="logical" name="LEPSILON"> F  </i>
   <i type="logical" name="LRPA"> F  </i>
   <i type="logical" name="LNABLA"> F  </i>
   <i type="logical" name="LVEL"> F  </i>
   <i type="int" name="KINTER">     0</i>
   <i name="CSHIFT">      0.10000000</i>
   <i name="OMEGAMAX">     -1.00000000</i>
   <i name="DEG_THRESHOLD">      0.00200000</i>
   <i name="RTIME">     -0.10000000</i>
   <i name="WPLASMAI">      0.00000000</i>
   <v name="DFIELD">      0.00000000      0.00000000      0.00000000</v>
   <v name="WPLASMA">      0.00000000      0.00000000      0.00000000      0.00000000      0.00000000      0.00000000      0.00000000      0.00000000      0.00000000</v>
  </separator>
  <separator name="orbital magnetization" >
   <i type="logical" name="NUCIND"> F  </i>
   <v name="MAGPOS">      0.00000000      0.00000000      0.00000000</v>
   <i type="logical" name="LNICSALL"> T  </i>
   <i type="logical" name="ORBITALMAG"> F  </i>
   <i type="logical" name="LMAGBLOCH"> F  </i>
   <i type="logical" name="LCHIMAG"> F  </i>
   <i type="logical" name="LGAUGE"> T  </i>
   <i type="int" name="MAGATOM">     0</i>
   <v name="MAGDIPOL">      0.00000000      0.00000000      0.00000000</v>
   <v name="AVECCONST">      0.00000000      0.00000000      0.00000000</v>
  </separator>
  <separator name="response functions" >
   <i type="logical" name="LFINITE_TEMPERATURE"> F  </i>
   <i type="logical" name="LADDER"> F  </i>
   <i type="logical" name="LRPAFORCE"> F  </i>
   <i type="logical" name="LFXC"> F  </i>
   <i type="logical" name="LHARTREE"> T  </i>
   <i type="int" name="IBSE">     0</i>
   <v type="int" name="KPOINT">    -1     0     0     0</v>
   <i type="logical" name="LTCTC"> F  </i>
   <i type="logical" name="LTCTE"> F  </i>
   <i type="logical" name="LTETE"> F  </i>
   <i type="logical" name="LTRIPLET"> F  </i>
   <i type="logical" name="LFXCEPS"> F  </i>
   <i type="logical" name="LFXHEG"> F  </i>
   <i type="int" name="NATURALO">     2</i>
   <i type="logical" name="LHOLEGF"> F  </i>
   <i type="logical" name="L2ORDER"> F  </i>
   <i type="logical" name="LDMP1"> F  </i>
   <i type="logical" name="LMP2LT"> F  </i>
   <i type="logical" name="LSMP2LT"> F  </i>
   <i type="logical" name="LGWLF"> F  </i>
   <i name="ENCUTGW">     -2.00000000</i>
   <i name="ENCUTGWSOFT">     -2.00000000</i>
   <i name="ENCUTLF">     -1.00000000</i>
   <i type="logical" name="LESF_SPLINES"> F  </i>
   <i type="int" name="LMAXMP2">    -1</i>
   <i name="SCISSOR">      0.00000000</i>
   <i type="int" name="NOMEGA">     0</i>
   <i type="int" name="NOMEGAR">     0</i>
   <i type="int" name="NBANDSGW">    -1</i>
   <i type="int" name="NBANDSO">    -1</i>
   <i type="int" name="NBANDSV">    -1</i>
   <i type="int" name="NELM">   600</i>
   <i type="int" name="NELMHF">     1</i>
   <i type="int" name="DIM">     3</i>
   <i type="int" name="IESPILON">     4</i>
   <i type="int" name="ANTIRES">     0</i>
   <i name="OMEGAMAX">    -30.00000000</i>
   <i name="OMEGAMIN">    -30.00000000</i>
   <i name="OMEGATL">   -200.00000000</i>
   <i type="int" name="OMEGAGRID">     0</i>
   <i name="CSHIFT">     -0.10000000</i>
   <i type="logical" name="LSELFENERGY"> F  </i>
   <i type="logical" name="LSPECTRAL"> F  </i>
   <i type="logical" name="LSPECTRALGW"> F  </i>
   <i type="logical" name="LSINGLES"> F  </i>
   <i type="logical" name="LFERMIGW"> F  </i>
   <i type="logical" name="ODDONLYGW"> F  </i>
   <i type="logical" name="EVENONLYGW"> F  </i>
   <i type="int" name="NKREDLFX">     1</i>
   <i type="int" name="NKREDLFY">     1</i>
   <i type="int" name="NKREDLFZ">     1</i>
   <i type="int" name="MAXMEM">  2800</i>
   <i type="int" name="TELESCOPE">     0</i>
   <i type="int" name="NTAUPAR">    -1</i>
   <i type="int" name="NOMEGAPAR">    -1</i>
   <i name="DAMP_NEWTON">      0.80000001</i>
   <i name="LAMBDA">      1.00000000</i>
  </separator>
  <separator name="External order field" >
   <i name="OFIELD_KAPPA">      0.00000000</i>
   <v name="OFIELD_K">      0.00000000      0.00000000      0.00000000</v>
   <i name="OFIELD_Q6_NEAR">      0.00000000</i>
   <i name="OFIELD_Q6_FAR">      0.00000000</i>
   <i name="OFIELD_A">      0.00000000</i>
  </separator>
 </parameters>
 <atominfo>
  <atoms>     325 </atoms>
  <types>       5 </types>
  <array name="atoms" >
   <dimension dim="1">ion</dimension>
   <field type="string">element</field>
   <field type="int">atomtype</field>
   <set>
    <rc><c>H </c><c>   1</c></rc>
    <rc><c>H </c><c>   1</c></rc>
    <rc><c>H </c><c>   1</c></rc>
    <rc><c>H </c><c>   1</c></rc>
    <rc><c>H </c><c>   1</c></rc>
    <rc><c>H </c><c>   1</c></rc>
    <rc><c>H </c><c>   1</c></rc>
    <rc><c>H </c><c>   1</c></rc>
    <rc><c>H </c><c>   1</c></rc>
    <rc><c>H </c><c>   1</c></rc>
    <rc><c>H </c><c>   1</c></rc>
    <rc><c>H </c><c>   1</c></rc>
    <rc><c>H </c><c>   1</c></rc>
    <rc><c>H </c><c>   1</c></rc>
    <rc><c>H </c><c>   1</c></rc>
    <rc><c>H </c><c>   1</c></rc>
    <rc><c>H </c><c>   1</c></rc>
    <rc><c>H </c><c>   1</c></rc>
    <rc><c>H </c><c>   1</c></rc>
    <rc><c>H </c><c>   1</c></rc>
    <rc><c>H </c><c>   1</c></rc>
    <rc><c>H </c><c>   1</c></rc>
    <rc><c>H </c><c>   1</c></rc>
    <rc><c>H </c><c>   1</c></rc>
    <rc><c>H </c><c>   1</c></rc>
    <rc><c>H </c><c>   1</c></rc>
    <rc><c>H </c><c>   1</c></rc>
    <rc><c>H </c><c>   1</c></rc>
    <rc><c>H </c><c>   1</c></rc>
    <rc><c>H </c><c>   1</c></rc>
    <rc><c>H </c><c>   1</c></rc>
    <rc><c>H </c><c>   1</c></rc>
    <rc><c>H </c><c>   1</c></rc>
    <rc><c>H </c><c>   1</c></rc>
    <rc><c>H </c><c>   1</c></rc>
    <rc><c>H </c><c>   1</c></rc>
    <rc><c>H </c><c>   1</c></rc>
    <rc><c>H </c><c>   1</c></rc>
    <rc><c>H </c><c>   1</c></rc>
    <rc><c>H </c><c>   1</c></rc>
    <rc><c>H </c><c>   1</c></rc>
    <rc><c>H </c><c>   1</c></rc>
    <rc><c>H </c><c>   1</c></rc>
    <rc><c>H </c><c>   1</c></rc>
    <rc><c>H </c><c>   1</c></rc>
    <rc><c>H </c><c>   1</c></rc>
    <rc><c>H </c><c>   1</c></rc>
    <rc><c>H </c><c>   1</c></rc>
    <rc><c>H </c><c>   1</c></rc>
    <rc><c>H </c><c>   1</c></rc>
    <rc><c>H </c><c>   1</c></rc>
    <rc><c>H </c><c>   1</c></rc>
    <rc><c>H </c><c>   1</c></rc>
    <rc><c>H </c><c>   1</c></rc>
    <rc><c>H </c><c>   1</c></rc>
    <rc><c>H </c><c>   1</c></rc>
    <rc><c>H </c><c>   1</c></rc>
    <rc><c>H </c><c>   1</c></rc>
    <rc><c>H </c><c>   1</c></rc>
    <rc><c>H </c><c>   1</c></rc>
    <rc><c>H </c><c>   1</c></rc>
    <rc><c>H </c><c>   1</c></rc>
    <rc><c>H </c><c>   1</c></rc>
    <rc><c>H </c><c>   1</c></rc>
    <rc><c>H </c><c>   1</c></rc>
    <rc><c>H </c><c>   1</c></rc>
    <rc><c>H </c><c>   1</c></rc>
    <rc><c>H </c><c>   1</c></rc>
    <rc><c>H </c><c>   1</c></rc>
    <rc><c>H </c><c>   1</c></rc>
    <rc><c>H </c><c>   1</c></rc>
    <rc><c>H </c><c>   1</c></rc>
    <rc><c>H </c><c>   1</c></rc>
    <rc><c>H </c><c>   1</c></rc>
    <rc><c>H </c><c>   1</c></rc>
    <rc><c>H </c><c>   1</c></rc>
    <rc><c>H </c><c>   1</c></rc>
    <rc><c>H </c><c>   1</c></rc>
    <rc><c>H </c><c>   1</c></rc>
    <rc><c>H </c><c>   1</c></rc>
    <rc><c>H </c><c>   1</c></rc>
    <rc><c>H </c><c>   1</c></rc>
    <rc><c>H </c><c>   1</c></rc>
    <rc><c>H </c><c>   1</c></rc>
    <rc><c>H </c><c>   1</c></rc>
    <rc><c>H </c><c>   1</c></rc>
    <rc><c>H </c><c>   1</c></rc>
    <rc><c>H </c><c>   1</c></rc>
    <rc><c>H </c><c>   1</c></rc>
    <rc><c>H </c><c>   1</c></rc>
    <rc><c>H </c><c>   1</c></rc>
    <rc><c>H </c><c>   1</c></rc>
    <rc><c>H </c><c>   1</c></rc>
    <rc><c>H </c><c>   1</c></rc>
    <rc><c>H </c><c>   1</c></rc>
    <rc><c>H </c><c>   1</c></rc>
    <rc><c>H </c><c>   1</c></rc>
    <rc><c>H </c><c>   1</c></rc>
    <rc><c>H </c><c>   1</c></rc>
    <rc><c>H </c><c>   1</c></rc>
    <rc><c>H </c><c>   1</c></rc>
    <rc><c>H </c><c>   1</c></rc>
    <rc><c>H </c><c>   1</c></rc>
    <rc><c>H </c><c>   1</c></rc>
    <rc><c>H </c><c>   1</c></rc>
    <rc><c>H </c><c>   1</c></rc>
    <rc><c>H </c><c>   1</c></rc>
    <rc><c>H </c><c>   1</c></rc>
    <rc><c>H </c><c>   1</c></rc>
    <rc><c>H </c><c>   1</c></rc>
    <rc><c>H </c><c>   1</c></rc>
    <rc><c>H </c><c>   1</c></rc>
    <rc><c>H </c><c>   1</c></rc>
    <rc><c>H </c><c>   1</c></rc>
    <rc><c>H </c><c>   1</c></rc>
    <rc><c>H </c><c>   1</c></rc>
    <rc><c>H </c><c>   1</c></rc>
    <rc><c>H </c><c>   1</c></rc>
    <rc><c>H </c><c>   1</c></rc>
    <rc><c>H </c><c>   1</c></rc>
    <rc><c>H </c><c>   1</c></rc>
    <rc><c>H </c><c>   1</c></rc>
    <rc><c>H </c><c>   1</c></rc>
    <rc><c>H </c><c>   1</c></rc>
    <rc><c>H </c><c>   1</c></rc>
    <rc><c>H </c><c>   1</c></rc>
    <rc><c>H </c><c>   1</c></rc>
    <rc><c>H </c><c>   1</c></rc>
    <rc><c>H </c><c>   1</c></rc>
    <rc><c>H </c><c>   1</c></rc>
    <rc><c>H </c><c>   1</c></rc>
    <rc><c>H </c><c>   1</c></rc>
    <rc><c>H </c><c>   1</c></rc>
    <rc><c>H </c><c>   1</c></rc>
    <rc><c>H </c><c>   1</c></rc>
    <rc><c>H </c><c>   1</c></rc>
    <rc><c>H </c><c>   1</c></rc>
    <rc><c>H </c><c>   1</c></rc>
    <rc><c>H </c><c>   1</c></rc>
    <rc><c>H </c><c>   1</c></rc>
    <rc><c>H </c><c>   1</c></rc>
    <rc><c>H </c><c>   1</c></rc>
    <rc><c>H </c><c>   1</c></rc>
    <rc><c>C </c><c>   2</c></rc>
    <rc><c>C </c><c>   2</c></rc>
    <rc><c>C </c><c>   2</c></rc>
    <rc><c>C </c><c>   2</c></rc>
    <rc><c>C </c><c>   2</c></rc>
    <rc><c>C </c><c>   2</c></rc>
    <rc><c>C </c><c>   2</c></rc>
    <rc><c>C </c><c>   2</c></rc>
    <rc><c>C </c><c>   2</c></rc>
    <rc><c>C </c><c>   2</c></rc>
    <rc><c>C </c><c>   2</c></rc>
    <rc><c>C </c><c>   2</c></rc>
    <rc><c>C </c><c>   2</c></rc>
    <rc><c>C </c><c>   2</c></rc>
    <rc><c>C </c><c>   2</c></rc>
    <rc><c>C </c><c>   2</c></rc>
    <rc><c>C </c><c>   2</c></rc>
    <rc><c>C </c><c>   2</c></rc>
    <rc><c>C </c><c>   2</c></rc>
    <rc><c>C </c><c>   2</c></rc>
    <rc><c>C </c><c>   2</c></rc>
    <rc><c>C </c><c>   2</c></rc>
    <rc><c>C </c><c>   2</c></rc>
    <rc><c>C </c><c>   2</c></rc>
    <rc><c>C </c><c>   2</c></rc>
    <rc><c>C </c><c>   2</c></rc>
    <rc><c>C </c><c>   2</c></rc>
    <rc><c>C </c><c>   2</c></rc>
    <rc><c>C </c><c>   2</c></rc>
    <rc><c>C </c><c>   2</c></rc>
    <rc><c>C </c><c>   2</c></rc>
    <rc><c>C </c><c>   2</c></rc>
    <rc><c>C </c><c>   2</c></rc>
    <rc><c>C </c><c>   2</c></rc>
    <rc><c>C </c><c>   2</c></rc>
    <rc><c>C </c><c>   2</c></rc>
    <rc><c>C </c><c>   2</c></rc>
    <rc><c>C </c><c>   2</c></rc>
    <rc><c>C </c><c>   2</c></rc>
    <rc><c>N </c><c>   3</c></rc>
    <rc><c>N </c><c>   3</c></rc>
    <rc><c>N </c><c>   3</c></rc>
    <rc><c>N </c><c>   3</c></rc>
    <rc><c>N </c><c>   3</c></rc>
    <rc><c>N </c><c>   3</c></rc>
    <rc><c>N </c><c>   3</c></rc>
    <rc><c>N </c><c>   3</c></rc>
    <rc><c>N </c><c>   3</c></rc>
    <rc><c>N </c><c>   3</c></rc>
    <rc><c>N </c><c>   3</c></rc>
    <rc><c>N </c><c>   3</c></rc>
    <rc><c>N </c><c>   3</c></rc>
    <rc><c>N </c><c>   3</c></rc>
    <rc><c>N </c><c>   3</c></rc>
    <rc><c>N </c><c>   3</c></rc>
    <rc><c>N </c><c>   3</c></rc>
    <rc><c>N </c><c>   3</c></rc>
    <rc><c>N </c><c>   3</c></rc>
    <rc><c>N </c><c>   3</c></rc>
    <rc><c>N </c><c>   3</c></rc>
    <rc><c>N </c><c>   3</c></rc>
    <rc><c>N </c><c>   3</c></rc>
    <rc><c>N </c><c>   3</c></rc>
    <rc><c>N </c><c>   3</c></rc>
    <rc><c>N </c><c>   3</c></rc>
    <rc><c>N </c><c>   3</c></rc>
    <rc><c>N </c><c>   3</c></rc>
    <rc><c>N </c><c>   3</c></rc>
    <rc><c>N </c><c>   3</c></rc>
    <rc><c>N </c><c>   3</c></rc>
    <rc><c>N </c><c>   3</c></rc>
    <rc><c>N </c><c>   3</c></rc>
    <rc><c>N </c><c>   3</c></rc>
    <rc><c>N </c><c>   3</c></rc>
    <rc><c>N </c><c>   3</c></rc>
    <rc><c>N </c><c>   3</c></rc>
    <rc><c>N </c><c>   3</c></rc>
    <rc><c>N </c><c>   3</c></rc>
    <rc><c>N </c><c>   3</c></rc>
    <rc><c>N </c><c>   3</c></rc>
    <rc><c>N </c><c>   3</c></rc>
    <rc><c>N </c><c>   3</c></rc>
    <rc><c>N </c><c>   3</c></rc>
    <rc><c>N </c><c>   3</c></rc>
    <rc><c>N </c><c>   3</c></rc>
    <rc><c>N </c><c>   3</c></rc>
    <rc><c>I </c><c>   4</c></rc>
    <rc><c>I </c><c>   4</c></rc>
    <rc><c>I </c><c>   4</c></rc>
    <rc><c>I </c><c>   4</c></rc>
    <rc><c>I </c><c>   4</c></rc>
    <rc><c>I </c><c>   4</c></rc>
    <rc><c>I </c><c>   4</c></rc>
    <rc><c>I </c><c>   4</c></rc>
    <rc><c>I </c><c>   4</c></rc>
    <rc><c>I </c><c>   4</c></rc>
    <rc><c>I </c><c>   4</c></rc>
    <rc><c>I </c><c>   4</c></rc>
    <rc><c>I </c><c>   4</c></rc>
    <rc><c>I </c><c>   4</c></rc>
    <rc><c>I </c><c>   4</c></rc>
    <rc><c>I </c><c>   4</c></rc>
    <rc><c>I </c><c>   4</c></rc>
    <rc><c>I </c><c>   4</c></rc>
    <rc><c>I </c><c>   4</c></rc>
    <rc><c>I </c><c>   4</c></rc>
    <rc><c>I </c><c>   4</c></rc>
    <rc><c>I </c><c>   4</c></rc>
    <rc><c>I </c><c>   4</c></rc>
    <rc><c>I </c><c>   4</c></rc>
    <rc><c>I </c><c>   4</c></rc>
    <rc><c>I </c><c>   4</c></rc>
    <rc><c>I </c><c>   4</c></rc>
    <rc><c>I </c><c>   4</c></rc>
    <rc><c>I </c><c>   4</c></rc>
    <rc><c>I </c><c>   4</c></rc>
    <rc><c>I </c><c>   4</c></rc>
    <rc><c>I </c><c>   4</c></rc>
    <rc><c>I </c><c>   4</c></rc>
    <rc><c>I </c><c>   4</c></rc>
    <rc><c>I </c><c>   4</c></rc>
    <rc><c>I </c><c>   4</c></rc>
    <rc><c>I </c><c>   4</c></rc>
    <rc><c>I </c><c>   4</c></rc>
    <rc><c>I </c><c>   4</c></rc>
    <rc><c>I </c><c>   4</c></rc>
    <rc><c>I </c><c>   4</c></rc>
    <rc><c>I </c><c>   4</c></rc>
    <rc><c>I </c><c>   4</c></rc>
    <rc><c>I </c><c>   4</c></rc>
    <rc><c>I </c><c>   4</c></rc>
    <rc><c>I </c><c>   4</c></rc>
    <rc><c>I </c><c>   4</c></rc>
    <rc><c>I </c><c>   4</c></rc>
    <rc><c>I </c><c>   4</c></rc>
    <rc><c>I </c><c>   4</c></rc>
    <rc><c>I </c><c>   4</c></rc>
    <rc><c>I </c><c>   4</c></rc>
    <rc><c>I </c><c>   4</c></rc>
    <rc><c>I </c><c>   4</c></rc>
    <rc><c>I </c><c>   4</c></rc>
    <rc><c>I </c><c>   4</c></rc>
    <rc><c>I </c><c>   4</c></rc>
    <rc><c>I </c><c>   4</c></rc>
    <rc><c>I </c><c>   4</c></rc>
    <rc><c>I </c><c>   4</c></rc>
    <rc><c>I </c><c>   4</c></rc>
    <rc><c>I </c><c>   4</c></rc>
    <rc><c>I </c><c>   4</c></rc>
    <rc><c>I </c><c>   4</c></rc>
    <rc><c>I </c><c>   4</c></rc>
    <rc><c>I </c><c>   4</c></rc>
    <rc><c>I </c><c>   4</c></rc>
    <rc><c>I </c><c>   4</c></rc>
    <rc><c>I </c><c>   4</c></rc>
    <rc><c>I </c><c>   4</c></rc>
    <rc><c>I </c><c>   4</c></rc>
    <rc><c>I </c><c>   4</c></rc>
    <rc><c>Pb</c><c>   5</c></rc>
    <rc><c>Pb</c><c>   5</c></rc>
    <rc><c>Pb</c><c>   5</c></rc>
    <rc><c>Pb</c><c>   5</c></rc>
    <rc><c>Pb</c><c>   5</c></rc>
    <rc><c>Pb</c><c>   5</c></rc>
    <rc><c>Pb</c><c>   5</c></rc>
    <rc><c>Pb</c><c>   5</c></rc>
    <rc><c>Pb</c><c>   5</c></rc>
    <rc><c>Pb</c><c>   5</c></rc>
    <rc><c>Pb</c><c>   5</c></rc>
    <rc><c>Pb</c><c>   5</c></rc>
    <rc><c>Pb</c><c>   5</c></rc>
    <rc><c>Pb</c><c>   5</c></rc>
    <rc><c>Pb</c><c>   5</c></rc>
    <rc><c>Pb</c><c>   5</c></rc>
    <rc><c>Pb</c><c>   5</c></rc>
    <rc><c>Pb</c><c>   5</c></rc>
    <rc><c>Pb</c><c>   5</c></rc>
    <rc><c>Pb</c><c>   5</c></rc>
    <rc><c>Pb</c><c>   5</c></rc>
    <rc><c>Pb</c><c>   5</c></rc>
    <rc><c>Pb</c><c>   5</c></rc>
    <rc><c>Pb</c><c>   5</c></rc>
   </set>
  </array>
  <array name="atomtypes" >
   <dimension dim="1">type</dimension>
   <field type="int">atomspertype</field>
   <field type="string">element</field>
   <field>mass</field>
   <field>valence</field>
   <field type="string">pseudopotential</field>
   <set>
    <rc><c> 143</c><c>H </c><c>      1.00000000</c><c>      1.00000000</c><c>  PAW_PBE H 15Jun2001                   </c></rc>
    <rc><c>  39</c><c>C </c><c>     12.01100000</c><c>      4.00000000</c><c>  PAW_PBE C 08Apr2002                   </c></rc>
    <rc><c>  47</c><c>N </c><c>     14.00100000</c><c>      5.00000000</c><c>  PAW_PBE N 08Apr2002                   </c></rc>
    <rc><c>  72</c><c>I </c><c>    126.90400000</c><c>      7.00000000</c><c>  PAW_PBE I 08Apr2002                   </c></rc>
    <rc><c>  24</c><c>Pb</c><c>    207.20000000</c><c>      4.00000000</c><c>  PAW_PBE Pb 08Apr2002                  </c></rc>
   </set>
  </array>
 </atominfo>
 <structure name="initialpos" >
  <crystal>
   <varray name="basis" >
    <v>      18.06080055       0.00000000       0.00000000 </v>
    <v>      -0.00491865      18.06279945       0.00000000 </v>
    <v>       0.00000000       0.00000000      62.48749924 </v>
   </varray>
   <i name="volume">  20385.21054034 </i>
   <varray name="rec_basis" >
    <v>       0.05536853       0.00001508      -0.00000000 </v>
    <v>       0.00000000       0.05536240       0.00000000 </v>
    <v>       0.00000000      -0.00000000       0.01600320 </v>
   </varray>
  </crystal>
  <varray name="positions" >
   <v>       0.44815937       0.30787843       0.58000663 </v>
   <v>       0.44767571       0.84131703       0.57624361 </v>
   <v>       0.93431399       0.26063359       0.58382765 </v>
   <v>       0.95941792       0.80651622       0.58601577 </v>
   <v>       0.29835360       0.05058464       0.58163147 </v>
   <v>       0.30703464       0.55907028       0.58181315 </v>
   <v>       0.78031169       0.07095149       0.58179361 </v>
   <v>       0.10768488       0.21356341       0.55601893 </v>
   <v>       0.09027003       0.68108984       0.55990313 </v>
   <v>       0.57478476       0.17815385       0.55743809 </v>
   <v>       0.51543080       0.65599783       0.56707015 </v>
   <v>       0.35880043       0.02806746       0.56115826 </v>
   <v>       0.29197329       0.61080063       0.55915114 </v>
   <v>       0.85106949       0.05562410       0.56386620 </v>
   <v>       0.06800755       0.21431258       0.58099389 </v>
   <v>       0.03823257       0.69161965       0.58296651 </v>
   <v>       0.56311096       0.24236276       0.57779306 </v>
   <v>       0.48925229       0.71652496       0.58737468 </v>
   <v>       0.24239094       0.43367114       0.58247466 </v>
   <v>       0.16945774       0.99494007       0.57872458 </v>
   <v>       0.67492445       0.98129041       0.58073627 </v>
   <v>       0.37933920       0.28520575       0.56177313 </v>
   <v>       0.45909923       0.86498714       0.54939071 </v>
   <v>       0.89167100       0.27419824       0.55922245 </v>
   <v>       0.96529973       0.86748405       0.56398622 </v>
   <v>       0.19159044       0.41154460       0.56013047 </v>
   <v>       0.15144630       0.94683474       0.55561192 </v>
   <v>       0.68358237       0.90931747       0.56201500 </v>
   <v>       0.45374522       0.20248860       0.54420083 </v>
   <v>       0.50358033       0.74873732       0.54091343 </v>
   <v>       0.99998378       0.24909724       0.53924048 </v>
   <v>       0.04845856       0.79110441       0.54526800 </v>
   <v>       0.21671370       0.52138143       0.54314056 </v>
   <v>       0.27003246       0.96143563       0.54228467 </v>
   <v>       0.79563548       0.95303696       0.54905544 </v>
   <v>       0.45640015       0.30821232       0.67646245 </v>
   <v>       0.43356978       0.81653432       0.67165259 </v>
   <v>       0.96276507       0.28215919       0.68019476 </v>
   <v>       0.93575569       0.79588371       0.67439172 </v>
   <v>       0.30638402       0.05545724       0.67331607 </v>
   <v>       0.29668963       0.55131926       0.67619702 </v>
   <v>       0.80102857       0.05095526       0.67654908 </v>
   <v>       0.83870496       0.52772650       0.66997440 </v>
   <v>       0.08537789       0.17447460       0.64533006 </v>
   <v>       0.09555158       0.68871742       0.65473905 </v>
   <v>       0.56988706       0.16242772       0.65163998 </v>
   <v>       0.57196180       0.67578061       0.65881707 </v>
   <v>       0.18214346       0.41175094       0.64931072 </v>
   <v>       0.17228669       0.92089626       0.65291337 </v>
   <v>       0.65618611       0.45826880       0.65700641 </v>
   <v>       0.66776061       0.92880906       0.64978451 </v>
   <v>       0.06473844       0.18754459       0.67234969 </v>
   <v>       0.04295753       0.69746900       0.67774554 </v>
   <v>       0.55518095       0.20427823       0.67634176 </v>
   <v>       0.52881664       0.71741476       0.68087971 </v>
   <v>       0.20808690       0.43955521       0.67462822 </v>
   <v>       0.20406810       0.95557411       0.67697970 </v>
   <v>       0.72354816       0.45144839       0.67616216 </v>
   <v>       0.69258516       0.95757343       0.67523204 </v>
   <v>       0.41515706       0.32486844       0.65194442 </v>
   <v>       0.42308259       0.83491505       0.64441710 </v>
   <v>       0.92327590       0.32327292       0.65716587 </v>
   <v>       0.92972339       0.83803127       0.64964111 </v>
   <v>       0.33167532       0.07777346       0.64729713 </v>
   <v>       0.32112759       0.58671410       0.65160549 </v>
   <v>       0.83863852       0.07380790       0.65191396 </v>
   <v>       0.84292964       0.57360881       0.64543213 </v>
   <v>       0.99868174       0.25803122       0.63396317 </v>
   <v>       0.03090675       0.77792030       0.63551249 </v>
   <v>       0.48342686       0.23536192       0.63434831 </v>
   <v>       0.50935956       0.74889830       0.63428403 </v>
   <v>       0.25027611       0.99543265       0.63231678 </v>
   <v>       0.25127190       0.50283265       0.63254546 </v>
   <v>       0.75956408       0.00060612       0.63314379 </v>
   <v>       0.72926082       0.53676732       0.63551951 </v>
   <v>       0.44874502       0.30128397       0.76888902 </v>
   <v>       0.44874501       0.80128391       0.76888902 </v>
   <v>       0.94874497       0.30128397       0.76888902 </v>
   <v>       0.94874501       0.80128391       0.76888902 </v>
   <v>       0.30127600       0.05129450       0.76887296 </v>
   <v>       0.30127601       0.55129450       0.76887296 </v>
   <v>       0.80127594       0.05129450       0.76887296 </v>
   <v>       0.80127598       0.55129450       0.76887296 </v>
   <v>       0.07877100       0.17118050       0.74344197 </v>
   <v>       0.07877101       0.67118045       0.74344197 </v>
   <v>       0.57877100       0.17118050       0.74344197 </v>
   <v>       0.57877099       0.67118045       0.74344197 </v>
   <v>       0.17119950       0.42117448       0.74342103 </v>
   <v>       0.17119950       0.92117451       0.74342103 </v>
   <v>       0.67119951       0.42117448       0.74342103 </v>
   <v>       0.67119950       0.92117451       0.74342103 </v>
   <v>       0.05125600       0.19871499       0.76888902 </v>
   <v>       0.05125600       0.69871493       0.76888902 </v>
   <v>       0.55125603       0.19871499       0.76888902 </v>
   <v>       0.55125602       0.69871493       0.76888902 </v>
   <v>       0.19872349       0.44870397       0.76887205 </v>
   <v>       0.19872349       0.94870397       0.76887205 </v>
   <v>       0.69872352       0.44870397       0.76887205 </v>
   <v>       0.69872351       0.94870397       0.76887205 </v>
   <v>       0.42123152       0.32881747       0.74344197 </v>
   <v>       0.42123151       0.82881744       0.74344197 </v>
   <v>       0.92123147       0.32881747       0.74344197 </v>
   <v>       0.92123151       0.82881744       0.74344197 </v>
   <v>       0.32880050       0.07882500       0.74342103 </v>
   <v>       0.32880049       0.57882496       0.74342103 </v>
   <v>       0.82880048       0.07882500       0.74342103 </v>
   <v>       0.82880052       0.57882496       0.74342103 </v>
   <v>       0.00000350       0.25000148       0.72582199 </v>
   <v>       0.00000350       0.75000145       0.72582199 </v>
   <v>       0.50000351       0.25000148       0.72582199 </v>
   <v>       0.50000350       0.75000145       0.72582199 </v>
   <v>       0.25000050       0.00000000       0.72580398 </v>
   <v>       0.25000052       0.50000000       0.72580398 </v>
   <v>       0.75000050       0.00000000       0.72580398 </v>
   <v>       0.75000049       0.50000000       0.72580398 </v>
   <v>       0.71625890       0.44293007       0.54320832 </v>
   <v>       0.73597344       0.50213546       0.52170298 </v>
   <v>       0.64979848       0.54248256       0.56098281 </v>
   <v>       0.69195827       0.63209626       0.56164963 </v>
   <v>       0.83745845       0.50397519       0.57510874 </v>
   <v>       0.77112718       0.56937491       0.58510433 </v>
   <v>       0.86447083       0.55762384       0.53704797 </v>
   <v>       0.79739006       0.61815577       0.52869614 </v>
   <v>       0.86567829       0.47756958       0.52199723 </v>
   <v>       0.86644828       0.43882225       0.54807099 </v>
   <v>       0.88215971       0.34322100       0.52191109 </v>
   <v>       0.79575695       0.32887348       0.53457128 </v>
   <v>       0.62602811       0.54613601       0.52405483 </v>
   <v>       0.68961485       0.61990300       0.51916335 </v>
   <v>       0.60633059       0.63591401       0.53291207 </v>
   <v>       0.74981611       0.44961985       0.59930548 </v>
   <v>       0.74044839       0.40503153       0.57431623 </v>
   <v>       0.67022075       0.46985330       0.58297402 </v>
   <v>       0.83198314       0.68157489       0.56878857 </v>
   <v>       0.87926357       0.69621200       0.54450075 </v>
   <v>       0.91365336       0.63108186       0.56262529 </v>
   <v>       0.82653323       0.39613765       0.49013417 </v>
   <v>       0.79324780       0.30723115       0.49496277 </v>
   <v>       0.66692982       0.31531786       0.52139609 </v>
   <v>       0.74105196       0.47549595       0.47524581 </v>
   <v>       0.54138580       0.36882928       0.51967694 </v>
   <v>       0.61539418       0.52873314       0.47381901 </v>
   <v>       0.51420332       0.47450320       0.49663782 </v>
   <v>       0.00044670       0.24463248       0.55654180 </v>
   <v>       0.02760864       0.77396559       0.56074808 </v>
   <v>       0.47568884       0.23096276       0.55823269 </v>
   <v>       0.49081975       0.76010281       0.55716912 </v>
   <v>       0.24103245       0.51215171       0.55858548 </v>
   <v>       0.25481227       0.98621984       0.55730733 </v>
   <v>       0.76809064       0.98242197       0.56176367 </v>
   <v>       0.00438611       0.24885487       0.65140281 </v>
   <v>       0.01304484       0.76359950       0.65202903 </v>
   <v>       0.49265203       0.24357312       0.65162258 </v>
   <v>       0.49882805       0.75489242       0.65164096 </v>
   <v>       0.25160634       0.49957551       0.65009493 </v>
   <v>       0.25095687       0.99841633       0.64989995 </v>
   <v>       0.74959124       0.51580737       0.65073410 </v>
   <v>       0.75271169       0.00093124       0.65061988 </v>
   <v>       0.49998898       0.24999498       0.74327702 </v>
   <v>       0.49998903       0.74999496       0.74327702 </v>
   <v>       0.99998898       0.24999498       0.74327702 </v>
   <v>       0.99998903       0.74999496       0.74327702 </v>
   <v>       0.25000050       0.00000100       0.74325596 </v>
   <v>       0.25000052       0.50000100       0.74325596 </v>
   <v>       0.75000050       0.00000100       0.74325596 </v>
   <v>       0.75000049       0.50000100       0.74325596 </v>
   <v>       0.71386042       0.39277953       0.49829693 </v>
   <v>       0.65765838       0.36230507       0.51060002 </v>
   <v>       0.69744838       0.45187389       0.48501003 </v>
   <v>       0.58538478       0.39135046       0.50963743 </v>
   <v>       0.62678722       0.48235649       0.48396823 </v>
   <v>       0.56836665       0.45233418       0.49671483 </v>
   <v>       0.75778521       0.48216135       0.53730779 </v>
   <v>       0.68547850       0.58138539       0.55236823 </v>
   <v>       0.77922673       0.52094712       0.57474551 </v>
   <v>       0.82215799       0.59550212       0.54290424 </v>
   <v>       0.83373139       0.44260520       0.53308856 </v>
   <v>       0.82518340       0.36527288       0.52320768 </v>
   <v>       0.65135767       0.59582540       0.53064642 </v>
   <v>       0.73078297       0.45817841       0.58276524 </v>
   <v>       0.86239061       0.65371534       0.55601893 </v>
   <v>       0.79133245       0.36400632       0.50058050 </v>
   <v>       0.06288557       0.22232078       0.56508556 </v>
   <v>       0.05319749       0.71169413       0.56859963 </v>
   <v>       0.54114421       0.21368154       0.56531809 </v>
   <v>       0.50305418       0.70857036       0.57164687 </v>
   <v>       0.43283940       0.28082230       0.56693365 </v>
   <v>       0.46388736       0.82680785       0.56161300 </v>
   <v>       0.93896194       0.26132302       0.56735158 </v>
   <v>       0.97806474       0.81614003       0.57030090 </v>
   <v>       0.22466590       0.44820398       0.56748368 </v>
   <v>       0.18816754       0.97505586       0.56414610 </v>
   <v>       0.70279004       0.95742655       0.56823878 </v>
   <v>       0.30656387       0.02472128       0.56720018 </v>
   <v>       0.28201943       0.56340107       0.56693059 </v>
   <v>       0.80283065       0.03834743       0.56983736 </v>
   <v>       0.05403069       0.20162356       0.65703596 </v>
   <v>       0.05087902       0.71463549       0.66215154 </v>
   <v>       0.54149196       0.20237703       0.66064520 </v>
   <v>       0.53531776       0.71331360       0.66491699 </v>
   <v>       0.21216573       0.44705758       0.65894643 </v>
   <v>       0.20772160       0.95695240       0.66106704 </v>
   <v>       0.70819246       0.47138555       0.66178294 </v>
   <v>       0.70255640       0.96078165       0.65958768 </v>
   <v>       0.45232075       0.29599876       0.66105678 </v>
   <v>       0.44821963       0.80580878       0.65665056 </v>
   <v>       0.96016335       0.28740443       0.66403400 </v>
   <v>       0.95606913       0.80049649       0.65903257 </v>
   <v>       0.29980771       0.04720244       0.65775693 </v>
   <v>       0.29221122       0.54903259       0.66035327 </v>
   <v>       0.80069954       0.04508982       0.66081870 </v>
   <v>       0.81632702       0.54032525       0.65596708 </v>
   <v>       0.04586250       0.20411950       0.75272599 </v>
   <v>       0.04586250       0.70411946       0.75272599 </v>
   <v>       0.54586251       0.20411950       0.75272599 </v>
   <v>       0.54586250       0.70411946       0.75272599 </v>
   <v>       0.20411900       0.45410100       0.75270499 </v>
   <v>       0.20411899       0.95410095       0.75270499 </v>
   <v>       0.70411898       0.45410100       0.75270499 </v>
   <v>       0.70411896       0.95410095       0.75270499 </v>
   <v>       0.45414002       0.29588849       0.75272697 </v>
   <v>       0.45414001       0.79588852       0.75272697 </v>
   <v>       0.95414002       0.29588849       0.75272697 </v>
[...]
   <v>       0.57478476       0.17815385       0.55743809 </v>
   <v>       0.51543080       0.65599783       0.56707015 </v>
   <v>       0.35880043       0.02806746       0.56115826 </v>
   <v>       0.29197329       0.61080063       0.55915114 </v>
   <v>       0.85106949       0.05562410       0.56386620 </v>
   <v>       0.06800755       0.21431258       0.58099389 </v>
   <v>       0.03823257       0.69161965       0.58296651 </v>
   <v>       0.56311096       0.24236276       0.57779306 </v>
   <v>       0.48925229       0.71652496       0.58737468 </v>
   <v>       0.24239094       0.43367114       0.58247466 </v>
   <v>       0.16945774       0.99494007       0.57872458 </v>
   <v>       0.67492445       0.98129041       0.58073627 </v>
   <v>       0.37933920       0.28520575       0.56177313 </v>
   <v>       0.45909923       0.86498714       0.54939071 </v>
   <v>       0.89167100       0.27419824       0.55922245 </v>
   <v>       0.96529973       0.86748405       0.56398622 </v>
   <v>       0.19159044       0.41154460       0.56013047 </v>
   <v>       0.15144630       0.94683474       0.55561192 </v>
   <v>       0.68358237       0.90931747       0.56201500 </v>
   <v>       0.45374522       0.20248860       0.54420083 </v>
   <v>       0.50358033       0.74873732       0.54091343 </v>
   <v>       0.99998378       0.24909724       0.53924048 </v>
   <v>       0.04845856       0.79110441       0.54526800 </v>
   <v>       0.21671370       0.52138143       0.54314056 </v>
   <v>       0.27003246       0.96143563       0.54228467 </v>
   <v>       0.79563548       0.95303696       0.54905544 </v>
   <v>       0.45640015       0.30821232       0.67646245 </v>
   <v>       0.43356978       0.81653432       0.67165259 </v>
   <v>       0.96276507       0.28215919       0.68019476 </v>
   <v>       0.93575569       0.79588371       0.67439172 </v>
   <v>       0.30638402       0.05545724       0.67331607 </v>
   <v>       0.29668963       0.55131926       0.67619702 </v>
   <v>       0.80102857       0.05095526       0.67654908 </v>
   <v>       0.83870496       0.52772650       0.66997440 </v>
   <v>       0.08537789       0.17447460       0.64533006 </v>
   <v>       0.09555158       0.68871742       0.65473905 </v>
   <v>       0.56988706       0.16242772       0.65163998 </v>
   <v>       0.57196180       0.67578061       0.65881707 </v>
   <v>       0.18214346       0.41175094       0.64931072 </v>
   <v>       0.17228669       0.92089626       0.65291337 </v>
   <v>       0.65618611       0.45826880       0.65700641 </v>
   <v>       0.66776061       0.92880906       0.64978451 </v>
   <v>       0.06473844       0.18754459       0.67234969 </v>
   <v>       0.04295753       0.69746900       0.67774554 </v>
   <v>       0.55518095       0.20427823       0.67634176 </v>
   <v>       0.52881664       0.71741476       0.68087971 </v>
   <v>       0.20808690       0.43955521       0.67462822 </v>
   <v>       0.20406810       0.95557411       0.67697970 </v>
   <v>       0.72354816       0.45144839       0.67616216 </v>
   <v>       0.69258516       0.95757343       0.67523204 </v>
   <v>       0.41515706       0.32486844       0.65194442 </v>
   <v>       0.42308259       0.83491505       0.64441710 </v>
   <v>       0.92327590       0.32327292       0.65716587 </v>
   <v>       0.92972339       0.83803127       0.64964111 </v>
   <v>       0.33167532       0.07777346       0.64729713 </v>
   <v>       0.32112759       0.58671410       0.65160549 </v>
   <v>       0.83863852       0.07380790       0.65191396 </v>
   <v>       0.84292964       0.57360881       0.64543213 </v>
   <v>       0.99868174       0.25803122       0.63396317 </v>
   <v>       0.03090675       0.77792030       0.63551249 </v>
   <v>       0.48342686       0.23536192       0.63434831 </v>
   <v>       0.50935956       0.74889830       0.63428403 </v>
   <v>       0.25027611       0.99543265       0.63231678 </v>
   <v>       0.25127190       0.50283265       0.63254546 </v>
   <v>       0.75956408       0.00060612       0.63314379 </v>
   <v>       0.72926082       0.53676732       0.63551951 </v>
   <v>       0.44874502       0.30128397       0.76888902 </v>
   <v>       0.44874501       0.80128391       0.76888902 </v>
   <v>       0.94874497       0.30128397       0.76888902 </v>
   <v>       0.94874501       0.80128391       0.76888902 </v>
   <v>       0.30127600       0.05129450       0.76887296 </v>
   <v>       0.30127601       0.55129450       0.76887296 </v>
   <v>       0.80127594       0.05129450       0.76887296 </v>
   <v>       0.80127598       0.55129450       0.76887296 </v>
   <v>       0.07877100       0.17118050       0.74344197 </v>
   <v>       0.07877101       0.67118045       0.74344197 </v>
   <v>       0.57877100       0.17118050       0.74344197 </v>
   <v>       0.57877099       0.67118045       0.74344197 </v>
   <v>       0.17119950       0.42117448       0.74342103 </v>
   <v>       0.17119950       0.92117451       0.74342103 </v>
   <v>       0.67119951       0.42117448       0.74342103 </v>
   <v>       0.67119950       0.92117451       0.74342103 </v>
   <v>       0.05125600       0.19871499       0.76888902 </v>
   <v>       0.05125600       0.69871493       0.76888902 </v>
   <v>       0.55125603       0.19871499       0.76888902 </v>
   <v>       0.55125602       0.69871493       0.76888902 </v>
   <v>       0.19872349       0.44870397       0.76887205 </v>
   <v>       0.19872349       0.94870397       0.76887205 </v>
   <v>       0.69872352       0.44870397       0.76887205 </v>
   <v>       0.69872351       0.94870397       0.76887205 </v>
   <v>       0.42123152       0.32881747       0.74344197 </v>
   <v>       0.42123151       0.82881744       0.74344197 </v>
   <v>       0.92123147       0.32881747       0.74344197 </v>
   <v>       0.92123151       0.82881744       0.74344197 </v>
   <v>       0.32880050       0.07882500       0.74342103 </v>
   <v>       0.32880049       0.57882496       0.74342103 </v>
   <v>       0.82880048       0.07882500       0.74342103 </v>
   <v>       0.82880052       0.57882496       0.74342103 </v>
   <v>       0.00000350       0.25000148       0.72582199 </v>
   <v>       0.00000350       0.75000145       0.72582199 </v>
   <v>       0.50000351       0.25000148       0.72582199 </v>
   <v>       0.50000350       0.75000145       0.72582199 </v>
   <v>       0.25000050       0.00000000       0.72580398 </v>
   <v>       0.25000052       0.50000000       0.72580398 </v>
   <v>       0.75000050       0.00000000       0.72580398 </v>
   <v>       0.75000049       0.50000000       0.72580398 </v>
   <v>       0.71625890       0.44293007       0.54320832 </v>
   <v>       0.73597344       0.50213546       0.52170298 </v>
   <v>       0.64979848       0.54248256       0.56098281 </v>
   <v>       0.69195827       0.63209626       0.56164963 </v>
   <v>       0.83745845       0.50397519       0.57510874 </v>
   <v>       0.77112718       0.56937491       0.58510433 </v>
   <v>       0.86447083       0.55762384       0.53704797 </v>
   <v>       0.79739006       0.61815577       0.52869614 </v>
   <v>       0.86567829       0.47756958       0.52199723 </v>
   <v>       0.86644828       0.43882225       0.54807099 </v>
   <v>       0.88215971       0.34322100       0.52191109 </v>
   <v>       0.79575695       0.32887348       0.53457128 </v>
   <v>       0.62602811       0.54613601       0.52405483 </v>
   <v>       0.68961485       0.61990300       0.51916335 </v>
   <v>       0.60633059       0.63591401       0.53291207 </v>
   <v>       0.74981611       0.44961985       0.59930548 </v>
   <v>       0.74044839       0.40503153       0.57431623 </v>
   <v>       0.67022075       0.46985330       0.58297402 </v>
   <v>       0.83198314       0.68157489       0.56878857 </v>
   <v>       0.87926357       0.69621200       0.54450075 </v>
   <v>       0.91365336       0.63108186       0.56262529 </v>
   <v>       0.82653323       0.39613765       0.49013417 </v>
   <v>       0.79324780       0.30723115       0.49496277 </v>
   <v>       0.66692982       0.31531786       0.52139609 </v>
   <v>       0.74105196       0.47549595       0.47524581 </v>
   <v>       0.54138580       0.36882928       0.51967694 </v>
   <v>       0.61539418       0.52873314       0.47381901 </v>
   <v>       0.51420332       0.47450320       0.49663782 </v>
   <v>       0.00044670       0.24463248       0.55654180 </v>
   <v>       0.02760864       0.77396559       0.56074808 </v>
   <v>       0.47568884       0.23096276       0.55823269 </v>
   <v>       0.49081975       0.76010281       0.55716912 </v>
   <v>       0.24103245       0.51215171       0.55858548 </v>
   <v>       0.25481227       0.98621984       0.55730733 </v>
   <v>       0.76809064       0.98242197       0.56176367 </v>
   <v>       0.00438611       0.24885487       0.65140281 </v>
   <v>       0.01304484       0.76359950       0.65202903 </v>
   <v>       0.49265203       0.24357312       0.65162258 </v>
   <v>       0.49882805       0.75489242       0.65164096 </v>
   <v>       0.25160634       0.49957551       0.65009493 </v>
   <v>       0.25095687       0.99841633       0.64989995 </v>
   <v>       0.74959124       0.51580737       0.65073410 </v>
   <v>       0.75271169       0.00093124       0.65061988 </v>
   <v>       0.49998898       0.24999498       0.74327702 </v>
   <v>       0.49998903       0.74999496       0.74327702 </v>
   <v>       0.99998898       0.24999498       0.74327702 </v>
   <v>       0.99998903       0.74999496       0.74327702 </v>
   <v>       0.25000050       0.00000100       0.74325596 </v>
   <v>       0.25000052       0.50000100       0.74325596 </v>
   <v>       0.75000050       0.00000100       0.74325596 </v>
   <v>       0.75000049       0.50000100       0.74325596 </v>
   <v>       0.71386042       0.39277953       0.49829693 </v>
   <v>       0.65765838       0.36230507       0.51060002 </v>
   <v>       0.69744838       0.45187389       0.48501003 </v>
   <v>       0.58538478       0.39135046       0.50963743 </v>
   <v>       0.62678722       0.48235649       0.48396823 </v>
   <v>       0.56836665       0.45233418       0.49671483 </v>
   <v>       0.75778521       0.48216135       0.53730779 </v>
   <v>       0.68547850       0.58138539       0.55236823 </v>
   <v>       0.77922673       0.52094712       0.57474551 </v>
   <v>       0.82215799       0.59550212       0.54290424 </v>
   <v>       0.83373139       0.44260520       0.53308856 </v>
   <v>       0.82518340       0.36527288       0.52320768 </v>
   <v>       0.65135767       0.59582540       0.53064642 </v>
   <v>       0.73078297       0.45817841       0.58276524 </v>
   <v>       0.86239061       0.65371534       0.55601893 </v>
   <v>       0.79133245       0.36400632       0.50058050 </v>
   <v>       0.06288557       0.22232078       0.56508556 </v>
   <v>       0.05319749       0.71169413       0.56859963 </v>
   <v>       0.54114421       0.21368154       0.56531809 </v>
   <v>       0.50305418       0.70857036       0.57164687 </v>
   <v>       0.43283940       0.28082230       0.56693365 </v>
   <v>       0.46388736       0.82680785       0.56161300 </v>
   <v>       0.93896194       0.26132302       0.56735158 </v>
   <v>       0.97806474       0.81614003       0.57030090 </v>
   <v>       0.22466590       0.44820398       0.56748368 </v>
   <v>       0.18816754       0.97505586       0.56414610 </v>
   <v>       0.70279004       0.95742655       0.56823878 </v>
   <v>       0.30656387       0.02472128       0.56720018 </v>
   <v>       0.28201943       0.56340107       0.56693059 </v>
   <v>       0.80283065       0.03834743       0.56983736 </v>
   <v>       0.05403069       0.20162356       0.65703596 </v>
   <v>       0.05087902       0.71463549       0.66215154 </v>
   <v>       0.54149196       0.20237703       0.66064520 </v>
   <v>       0.53531776       0.71331360       0.66491699 </v>
   <v>       0.21216573       0.44705758       0.65894643 </v>
   <v>       0.20772160       0.95695240       0.66106704 </v>
   <v>       0.70819246       0.47138555       0.66178294 </v>
   <v>       0.70255640       0.96078165       0.65958768 </v>
   <v>       0.45232075       0.29599876       0.66105678 </v>
   <v>       0.44821963       0.80580878       0.65665056 </v>
   <v>       0.96016335       0.28740443       0.66403400 </v>
   <v>       0.95606913       0.80049649       0.65903257 </v>
   <v>       0.29980771       0.04720244       0.65775693 </v>
   <v>       0.29221122       0.54903259       0.66035327 </v>
   <v>       0.80069954       0.04508982       0.66081870 </v>
   <v>       0.81632702       0.54032525       0.65596708 </v>
   <v>       0.04586250       0.20411950       0.75272599 </v>
   <v>       0.04586250       0.70411946       0.75272599 </v>
   <v>       0.54586251       0.20411950       0.75272599 </v>
   <v>       0.54586250       0.70411946       0.75272599 </v>
   <v>       0.20411900       0.45410100       0.75270499 </v>
   <v>       0.20411899       0.95410095       0.75270499 </v>
   <v>       0.70411898       0.45410100       0.75270499 </v>
   <v>       0.70411896       0.95410095       0.75270499 </v>
   <v>       0.45414002       0.29588849       0.75272697 </v>
   <v>       0.45414001       0.79588852       0.75272697 </v>
   <v>       0.95414002       0.29588849       0.75272697 </v>
   <v>       0.95414006       0.79588852       0.75272697 </v>
   <v>       0.29588249       0.04590050       0.75270499 </v>
   <v>       0.29588248       0.54590053       0.75270499 </v>
   <v>       0.79588244       0.04590050       0.75270499 </v>
   <v>       0.79588248       0.54590053       0.75270499 </v>
   <v>       0.76176458       0.54572957       0.55200518 </v>
   <v>       0.49244934       0.01758697       0.55102617 </v>
   <v>       0.48217715       0.51780397       0.55603754 </v>
   <v>       0.98955025       0.00444290       0.55249686 </v>
   <v>       0.03273654       0.50369858       0.55451649 </v>
   <v>       0.24856052       0.24574944       0.55106414 </v>
   <v>       0.25718303       0.75345606       0.55295813 </v>
   <v>       0.74192886       0.21566300       0.55882936 </v>
   <v>       0.71415778       0.78625948       0.54648278 </v>
   <v>       0.00302188       0.00193746       0.65446086 </v>
   <v>       0.01218127       0.49223029       0.65577063 </v>
   <v>       0.49670305       0.00113853       0.65421758 </v>
   <v>       0.50315491       0.48939759       0.65559054 </v>
   <v>       0.25396360       0.24645828       0.65436538 </v>
   <v>       0.25128494       0.75411381       0.65466237 </v>
   <v>       0.74082027       0.25374869       0.65631578 </v>
   <v>       0.75450679       0.75532240       0.65340925 </v>
   <v>       0.14398639       0.10806833       0.60761390 </v>
   <v>       0.14676347       0.61353259       0.61103835 </v>
   <v>       0.64561650       0.10527695       0.61089422 </v>
   <v>       0.61906855       0.63222815       0.61554127 </v>
   <v>       0.35383276       0.39281874       0.60943336 </v>
   <v>       0.36804714       0.88776539       0.60865592 </v>
   <v>       0.88222421       0.37124800       0.61387113 </v>
   <v>       0.86105272       0.89062882       0.61048514 </v>
   <v>       0.11142906       0.35493166       0.60884065 </v>
   <v>       0.11919185       0.87352152       0.60865433 </v>
   <v>       0.58805626       0.34243444       0.60748411 </v>
   <v>       0.60953597       0.86486259       0.60991630 </v>
   <v>       0.38792685       0.13738173       0.60928080 </v>
   <v>       0.38287223       0.63246336       0.61331682 </v>
   <v>       0.88373752       0.14056874       0.61355527 </v>
   <v>       0.91548402       0.65146806       0.61694548 </v>
   <v>       0.00000000       0.00000000       0.75492797 </v>
   <v>       0.00000000       0.50000000       0.75492797 </v>
   <v>       0.50000000       0.00000000       0.75492797 </v>
   <v>       0.49999999       0.50000000       0.75492797 </v>
   <v>       0.25000050       0.25000000       0.75493902 </v>
   <v>       0.25000051       0.74999997       0.75493902 </v>
   <v>       0.75000047       0.25000000       0.75493902 </v>
   <v>       0.75000046       0.74999997       0.75493902 </v>
   <v>       0.13579050       0.11421000       0.70478299 </v>
   <v>       0.13579050       0.61420998       0.70478299 </v>
   <v>       0.63579045       0.11421000       0.70478299 </v>
   <v>       0.63579049       0.61420998       0.70478299 </v>
   <v>       0.36420952       0.38578999       0.70478299 </v>
   <v>       0.36420950       0.88578996       0.70478299 </v>
   <v>       0.86420954       0.38578999       0.70478299 </v>
   <v>       0.86420953       0.88578996       0.70478299 </v>
   <v>       0.11421799       0.36421899       0.70478098 </v>
   <v>       0.11421799       0.86421899       0.70478098 </v>
   <v>       0.61421800       0.36421899       0.70478098 </v>
   <v>       0.61421799       0.86421899       0.70478098 </v>
   <v>       0.38578201       0.13578149       0.70478202 </v>
   <v>       0.38578200       0.63578149       0.70478202 </v>
   <v>       0.88578199       0.13578149       0.70478202 </v>
   <v>       0.88578203       0.63578149       0.70478202 </v>
   <v>       0.13466700       0.11533200       0.80125603 </v>
   <v>       0.13466699       0.61533199       0.80125603 </v>
   <v>       0.63466699       0.11533200       0.80125603 </v>
   <v>       0.63466698       0.61533199       0.80125603 </v>
   <v>       0.36533300       0.38466799       0.80125603 </v>
   <v>       0.36533299       0.88466796       0.80125603 </v>
   <v>       0.86533295       0.38466799       0.80125603 </v>
   <v>       0.86533294       0.88466796       0.80125603 </v>
   <v>       0.11532850       0.36533700       0.80126500 </v>
   <v>       0.11532850       0.86533698       0.80126500 </v>
   <v>       0.61532850       0.36533700       0.80126500 </v>
   <v>       0.61532849       0.86533698       0.80126500 </v>
   <v>       0.38467151       0.13466300       0.80126500 </v>
   <v>       0.38467150       0.63466297       0.80126500 </v>
   <v>       0.88467149       0.13466300       0.80126500 </v>
   <v>       0.88467153       0.63466297       0.80126500 </v>
   <v>       0.99342789       0.00498918       0.60453937 </v>
   <v>       0.00703554       0.50381606       0.60447033 </v>
   <v>       0.50261768       0.00813672       0.60320225 </v>
   <v>       0.49872041       0.50235024       0.60507018 </v>
   <v>       0.25136994       0.25050715       0.60378672 </v>
   <v>       0.24980989       0.75319782       0.60295342 </v>
   <v>       0.74532420       0.25490654       0.60695099 </v>
   <v>       0.74221184       0.75837237       0.60307326 </v>
   <v>       0.00000050       0.00000050       0.70482896 </v>
   <v>       0.00000050       0.50000048       0.70482896 </v>
   <v>       0.50000048       0.00000050       0.70482896 </v>
   <v>       0.50000046       0.50000048       0.70482896 </v>
   <v>       0.24999999       0.24999947       0.70482499 </v>
   <v>       0.25000001       0.74999950       0.70482499 </v>
   <v>       0.74999999       0.24999947       0.70482499 </v>
   <v>       0.74999998       0.74999950       0.70482499 </v>
   <v>       0.00000000       0.00000000       0.80731797 </v>
   <v>       0.00000000       0.50000000       0.80731797 </v>
   <v>       0.50000000       0.00000000       0.80731797 </v>
   <v>       0.49999999       0.50000000       0.80731797 </v>
   <v>       0.24999999       0.25000000       0.80731797 </v>
   <v>       0.25000001       0.74999997       0.80731797 </v>
   <v>       0.74999999       0.25000000       0.80731797 </v>
   <v>       0.74999998       0.74999997       0.80731797 </v>
  </varray>
 </structure>
</modeling>
