 vasp.6.2.1 16May21 (build Nov 15 2021 14:57:28) complex                         
 executed on             LinuxPGI date 2023.07.30  20:19:19
 running on    4 total cores
 distrk:  each k-point on    4 cores,    1 groups
 distr:  one band on NCORE=   1 cores,    4 groups


--------------------------------------------------------------------------------------------------------


 INCAR:
   SYSTEM = PSC
   ISTART = 1
   ICHARG = 1
   PREC = Normal
   ENCUT = 500
   GGA_COMPAT = F
   NELM = 600
   ISYM = 0
   LREAL = Auto
   ISMEAR = 0
   SIGMA = 0.05
   AMIN = 0.01
   BMIX = 0.01
   LVTOT = T
   LWAVE = F
   LDIPOL = T
   IDIPOL = 3
   LVDW = T
   IVDW = 12

 POTCAR:    PAW_PBE H 15Jun2001                   
 POTCAR:    PAW_PBE C 08Apr2002                   
 POTCAR:    PAW_PBE N 08Apr2002                   
 POTCAR:    PAW_PBE I 08Apr2002                   
 POTCAR:    PAW_PBE Pb 08Apr2002                  
 WARNING: For LVTOT=.TRUE., VASP.5.x writes the TOTAL local potential to the
     file LOCPOT. If you want only the Hartree contributions, use LVHAR=.TRUE.
     instead. 

 POTCAR:    PAW_PBE H 15Jun2001                   
   SHA256 =  030f79b5d3ab3cf0e668861823c8fb652ff669f3e15e46930bd03bfd63a607b6 H/POTCAR              
   COPYR  = (c) Copyright 15Jun2001 Georg Kresse                                                    
   COPYR  = This file is part of the software VASP. Any use, copying, and all other rights are regul
   COPYR  = If you do not have a valid VASP license, you may not use, copy or distribute this file. 
   VRHFIN =H: ultrasoft test                                                                        
   LEXCH  = PE                                                                                      
   EATOM  =    12.4884 eV,    0.9179 Ry                                                             
                                                                                                    
   TITEL  = PAW_PBE H 15Jun2001                                                                     
   LULTRA =        F    use ultrasoft PP ?                                                          
   IUNSCR =        0    unscreen: 0-lin 1-nonlin 2-no                                               
   RPACOR =    0.000    partial core radius                                                         
   POMASS =    1.000; ZVAL   =    1.000    mass and valenz                                          
   RCORE  =    1.100    outmost cutoff radius                                                       
   RWIGS  =    0.700; RWIGS  =    0.370    wigner-seitz radius (au A)                               
   ENMAX  =  250.000; ENMIN  =  200.000 eV                                                          
   RCLOC  =    0.701    cutoff for local pot                                                        
   LCOR   =        T    correct aug charges                                                         
   LPAW   =        T    paw PP                                                                      
   EAUG   =  400.000                                                                                
   RMAX   =    1.123    core radius for proj-oper                                                   
   RAUG   =    1.200    factor for augmentation sphere                                              
   RDEP   =    1.112    radius for radial grids                                                     
   RDEPT  =    0.926    core radius for aug-charge                                                  
                                                                                                    
   Atomic configuration                                                                             
    2 entries                                                                                       
     n  l   j            E        occ.                                                              
     1  0  0.50        -6.4927   1.0000                                                             
     2  1  0.50        -3.4015   0.0000                                                             
   Description                                                                                      
     l       E           TYP  RCUT    TYP  RCUT                                                     
     0     -6.4927494     23  1.100                                                                 
     0      6.8029130     23  1.100                                                                 
     1     -4.0817478     23  1.100                                                                 
  local pseudopotential read in
  atomic valenz-charges read in
  non local Contribution for L=            0  read in
    real space projection operators read in
  non local Contribution for L=            0  read in
    real space projection operators read in
  non local Contribution for L=            1  read in
    real space projection operators read in
    PAW grid and wavefunctions read in
 
   number of l-projection  operators is LMAX  =            3
   number of lm-projection operators is LMMAX =            5
 
 POTCAR:    PAW_PBE C 08Apr2002                   
   SHA256 =  253f7b50bb8d59471dbedb8285d89021f4a42ed1a2c5d38a03a736e69125dd95 C/POTCAR              
   COPYR  = (c) Copyright 08Apr2002 Georg Kresse                                                    
   COPYR  = This file is part of the software VASP. Any use, copying, and all other rights are regul
   COPYR  = If you do not have a valid VASP license, you may not use, copy or distribute this file. 
   VRHFIN =C: s2p2                                                                                  
   LEXCH  = PE                                                                                      
   EATOM  =   147.1560 eV,   10.8157 Ry                                                             
                                                                                                    
   TITEL  = PAW_PBE C 08Apr2002                                                                     
   LULTRA =        F    use ultrasoft PP ?                                                          
   IUNSCR =        1    unscreen: 0-lin 1-nonlin 2-no                                               
   RPACOR =    1.200    partial core radius                                                         
   POMASS =   12.011; ZVAL   =    4.000    mass and valenz                                          
   RCORE  =    1.500    outmost cutoff radius                                                       
   RWIGS  =    1.630; RWIGS  =    0.863    wigner-seitz radius (au A)                               
   ENMAX  =  400.000; ENMIN  =  300.000 eV                                                          
   ICORE  =        2    local potential                                                             
   LCOR   =        T    correct aug charges                                                         
   LPAW   =        T    paw PP                                                                      
   EAUG   =  644.873                                                                                
   DEXC   =    0.000                                                                                
   RMAX   =    1.529    core radius for proj-oper                                                   
   RAUG   =    1.300    factor for augmentation sphere                                              
   RDEP   =    1.501    radius for radial grids                                                     
   RDEPT  =    1.300    core radius for aug-charge                                                  
                                                                                                    
   Atomic configuration                                                                             
    4 entries                                                                                       
     n  l   j            E        occ.                                                              
     1  0  0.50      -273.3789   2.0000                                                             
     2  0  0.50       -13.7508   2.0000                                                             
     2  1  0.50        -5.2854   2.0000                                                             
     3  2  1.50        -5.4423   0.0000                                                             
   Description                                                                                      
     l       E           TYP  RCUT    TYP  RCUT                                                     
     0    -13.7508458     23  1.200                                                                 
     0     -8.2022199     23  1.200                                                                 
     1     -5.2854383     23  1.500                                                                 
     1     34.0145650     23  1.500                                                                 
     2     -5.4423304      7  1.500                                                                 
  local pseudopotential read in
  partial core-charges read in
  partial kinetic energy density read in
  atomic valenz-charges read in
  non local Contribution for L=            0  read in
    real space projection operators read in
  non local Contribution for L=            0  read in
    real space projection operators read in
  non local Contribution for L=            1  read in
    real space projection operators read in
  non local Contribution for L=            1  read in
    real space projection operators read in
    PAW grid and wavefunctions read in
 
   number of l-projection  operators is LMAX  =            4
   number of lm-projection operators is LMMAX =            8
 
 POTCAR:    PAW_PBE N 08Apr2002                   
   SHA256 =  e053789ff3a61a86a1b75d8a110fcc91f86041011e7b0817c7c99e4e8a6349d7 N/POTCAR              
   COPYR  = (c) Copyright 08Apr2002 Georg Kresse                                                    
   COPYR  = This file is part of the software VASP. Any use, copying, and all other rights are regul
   COPYR  = If you do not have a valid VASP license, you may not use, copy or distribute this file. 
   VRHFIN =N: s2p3                                                                                  
   LEXCH  = PE                                                                                      
   EATOM  =   264.5486 eV,   19.4438 Ry                                                             
                                                                                                    
   TITEL  = PAW_PBE N 08Apr2002                                                                     
   LULTRA =        F    use ultrasoft PP ?                                                          
   IUNSCR =        1    unscreen: 0-lin 1-nonlin 2-no                                               
   RPACOR =    1.200    partial core radius                                                         
   POMASS =   14.001; ZVAL   =    5.000    mass and valenz                                          
   RCORE  =    1.500    outmost cutoff radius                                                       
   RWIGS  =    1.400; RWIGS  =    0.741    wigner-seitz radius (au A)                               
   ENMAX  =  400.000; ENMIN  =  300.000 eV                                                          
   ICORE  =        2    local potential                                                             
   LCOR   =        T    correct aug charges                                                         
   LPAW   =        T    paw PP                                                                      
   EAUG   =  627.112                                                                                
   DEXC   =    0.000                                                                                
   RMAX   =    1.529    core radius for proj-oper                                                   
   RAUG   =    1.300    factor for augmentation sphere                                              
   RDEP   =    1.514    radius for radial grids                                                     
   RDEPT  =    1.338    core radius for aug-charge                                                  
                                                                                                    
   Atomic configuration                                                                             
    4 entries                                                                                       
     n  l   j            E        occ.                                                              
     1  0  0.50      -384.7179   2.0000                                                             
     2  0  0.50       -18.5828   2.0000                                                             
     2  1  0.50        -7.0898   3.0000                                                             
     3  2  1.50        -6.8029   0.0000                                                             
   Description                                                                                      
     l       E           TYP  RCUT    TYP  RCUT                                                     
     0    -18.5828119     23  1.200                                                                 
     0    -13.5018863     23  1.200                                                                 
     1     -7.0897853     23  1.500                                                                 
     1      9.5240782     23  1.500                                                                 
     2     -6.8029130      7  1.500                                                                 
  local pseudopotential read in
  partial core-charges read in
  partial kinetic energy density read in
  atomic valenz-charges read in
  non local Contribution for L=            0  read in
    real space projection operators read in
  non local Contribution for L=            0  read in
    real space projection operators read in
  non local Contribution for L=            1  read in
    real space projection operators read in
  non local Contribution for L=            1  read in
    real space projection operators read in
    PAW grid and wavefunctions read in
 
   number of l-projection  operators is LMAX  =            4
   number of lm-projection operators is LMMAX =            8
 
 POTCAR:    PAW_PBE I 08Apr2002                   
   SHA256 =  e40f3f59b681c1fc3e3091736183c4589116986673d2b852a5012aec72758799 I/POTCAR              
   COPYR  = (c) Copyright 08Apr2002 Georg Kresse                                                    
   COPYR  = This file is part of the software VASP. Any use, copying, and all other rights are regul
   COPYR  = If you do not have a valid VASP license, you may not use, copy or distribute this file. 
   VRHFIN =I : s2p5                                                                                 
   LEXCH  = PE                                                                                      
   EATOM  =   315.8678 eV,   23.2156 Ry                                                             
                                                                                                    
   TITEL  = PAW_PBE I 08Apr2002                                                                     
   LULTRA =        F    use ultrasoft PP ?                                                          
   IUNSCR =        1    unscreen: 0-lin 1-nonlin 2-no                                               
   RPACOR =    2.200    partial core radius                                                         
   POMASS =  126.904; ZVAL   =    7.000    mass and valenz                                          
   RCORE  =    2.300    outmost cutoff radius                                                       
   RWIGS  =    2.810; RWIGS  =    1.487    wigner-seitz radius (au A)                               
   ENMAX  =  175.647; ENMIN  =  131.735 eV                                                          
   ICORE  =        3    local potential                                                             
   LCOR   =        T    correct aug charges                                                         
   LPAW   =        T    paw PP                                                                      
   EAUG   =  370.139                                                                                
   DEXC   =    0.000                                                                                
   RMAX   =    2.359    core radius for proj-oper                                                   
   RAUG   =    1.300    factor for augmentation sphere                                              
   RDEP   =    2.392    radius for radial grids                                                     
   RDEPT  =    2.170    core radius for aug-charge                                                  
                                                                                                    
   Atomic configuration                                                                             
   13 entries                                                                                       
     n  l   j            E        occ.                                                              
     1  0  0.50    -32976.3739   2.0000                                                             
     2  0  0.50     -5094.5933   2.0000                                                             
     2  1  1.50     -4572.0131   6.0000                                                             
     3  0  0.50     -1028.2813   2.0000                                                             
     3  1  1.50      -859.0250   6.0000                                                             
     3  2  2.50      -605.7620  10.0000                                                             
     4  0  0.50      -180.5540   2.0000                                                             
     4  1  1.50      -127.5306   6.0000                                                             
     4  2  2.50       -50.2720  10.0000                                                             
     5  0  0.50       -17.4058   2.0000                                                             
     5  1  0.50        -7.0851   5.0000                                                             
     5  2  1.50        -7.0750   0.0000                                                             
     4  3  2.50        -7.0750   0.0000                                                             
   Description                                                                                      
     l       E           TYP  RCUT    TYP  RCUT                                                     
     0    -17.4058016     23  2.300                                                                 
     0    -18.7663842     23  2.300                                                                 
     1     -7.0850686     23  2.300                                                                 
     1     -4.2150896     23  2.300                                                                 
     2     -7.0750295     23  2.300                                                                 
     3     -1.3605826     23  2.300                                                                 
  local pseudopotential read in
  partial core-charges read in
  partial kinetic energy density read in
  atomic valenz-charges read in
  non local Contribution for L=            0  read in
    real space projection operators read in
  non local Contribution for L=            0  read in
    real space projection operators read in
  non local Contribution for L=            1  read in
    real space projection operators read in
  non local Contribution for L=            1  read in
    real space projection operators read in
  non local Contribution for L=            2  read in
    real space projection operators read in
    PAW grid and wavefunctions read in
 
   number of l-projection  operators is LMAX  =            5
   number of lm-projection operators is LMMAX =           13
 
 POTCAR:    PAW_PBE Pb 08Apr2002                  
   SHA256 =  797118a27cf1bcd06b9881c67a26cdde129e3cd1a551dd4a281f9681ce847303 Pb/POTCAR             
   COPYR  = (c) Copyright 08Apr2002 Georg Kresse                                                    
   COPYR  = This file is part of the software VASP. Any use, copying, and all other rights are regul
   COPYR  = If you do not have a valid VASP license, you may not use, copy or distribute this file. 
   VRHFIN =Pb:                                                                                      
   LEXCH  = PE                                                                                      
   EATOM  =    96.9868 eV,    7.1283 Ry                                                             
                                                                                                    
   TITEL  = PAW_PBE Pb 08Apr2002                                                                    
   LULTRA =        F    use ultrasoft PP ?                                                          
   IUNSCR =        1    unscreen: 0-lin 1-nonlin 2-no                                               
   RPACOR =    2.200    partial core radius                                                         
   POMASS =  207.200; ZVAL   =    4.000    mass and valenz                                          
   RCORE  =    3.100    outmost cutoff radius                                                       
   RWIGS  =    3.260; RWIGS  =    1.725    wigner-seitz radius (au A)                               
   ENMAX  =   97.973; ENMIN  =   73.480 eV                                                          
   ICORE  =        3    local potential                                                             
   LCOR   =        T    correct aug charges                                                         
   LPAW   =        T    paw PP                                                                      
   EAUG   =  234.873                                                                                
   DEXC   =    0.000                                                                                
   RMAX   =    3.158    core radius for proj-oper                                                   
   RAUG   =    1.300    factor for augmentation sphere                                              
   RDEP   =    3.202    radius for radial grids                                                     
   RDEPT  =    2.659    core radius for aug-charge                                                  
                                                                                                    
   Atomic configuration                                                                             
   17 entries                                                                                       
     n  l   j            E        occ.                                                              
     1  0  0.50    -88091.8466   2.0000                                                             
     2  0  0.50    -15753.4197   2.0000                                                             
     2  1  1.50    -13508.1797   6.0000                                                             
     3  0  0.50     -3781.7194   2.0000                                                             
     3  1  1.50     -3138.2529   6.0000                                                             
     3  2  2.50     -2483.2977  10.0000                                                             
     4  0  0.50      -856.2895   2.0000                                                             
     4  1  1.50      -645.4943   6.0000                                                             
     4  2  2.50      -401.8768  10.0000                                                             
     4  3  3.50      -132.9059  14.0000                                                             
     5  0  0.50      -144.0950   2.0000                                                             
     5  1  1.50       -85.7879   6.0000                                                             
     5  2  2.50       -21.1769  10.0000                                                             
     6  0  0.50       -12.0372   2.0000                                                             
     6  1  1.50        -3.4971   2.0000                                                             
     6  2  2.50        -1.3606   0.0000                                                             
     5  3  2.50        -2.7212   0.0000                                                             
   Description                                                                                      
     l       E           TYP  RCUT    TYP  RCUT                                                     
     0    -12.0371566     23  3.100                                                                 
     0    -13.3977392     23  3.100                                                                 
     1     -3.4971341     23  3.100                                                                 
     1     -5.4423304     23  3.100                                                                 
     2     -1.3605826     23  3.100                                                                 
     3     -1.3605826     23  3.100                                                                 
  local pseudopotential read in
  partial core-charges read in
  partial kinetic energy density read in
  atomic valenz-charges read in
  non local Contribution for L=            0  read in
    real space projection operators read in
  non local Contribution for L=            0  read in
    real space projection operators read in
  non local Contribution for L=            1  read in
    real space projection operators read in
  non local Contribution for L=            1  read in
    real space projection operators read in
  non local Contribution for L=            2  read in
    real space projection operators read in
    PAW grid and wavefunctions read in
 
   number of l-projection  operators is LMAX  =            5
   number of lm-projection operators is LMMAX =           13
 
 Optimization of the real space projectors (new method)

 maximal supplied QI-value         = 34.20
 optimisation between [QCUT,QGAM] = [ 11.29, 22.57] = [ 35.68,142.71] Ry 
 Optimized for a Real-space Cutoff    1.16 Angstroem

   l    n(q)    QCUT    max X(q) W(low)/X(q) W(high)/X(q)  e(spline) 
   0      8    11.287    19.460    0.40E-03    0.73E-03    0.16E-06
   0      8    11.287    12.209    0.38E-03    0.70E-03    0.15E-06
   1      7    11.287     4.655    0.22E-03    0.25E-04    0.22E-06
 Optimization of the real space projectors (new method)

 maximal supplied QI-value         = 25.13
 optimisation between [QCUT,QGAM] = [ 11.31, 22.87] = [ 35.82,146.48] Ry 
 Optimized for a Real-space Cutoff    1.00 Angstroem

   l    n(q)    QCUT    max X(q) W(low)/X(q) W(high)/X(q)  e(spline) 
   0      7    11.310   115.676    0.43E-03    0.13E-02    0.19E-06
   0      7    11.310    87.132    0.43E-03    0.13E-02    0.18E-06
   1      6    11.310     4.429    0.42E-03    0.74E-03    0.11E-06
   1      6    11.310     2.733    0.34E-03    0.55E-03    0.92E-07
 Optimization of the real space projectors (new method)

 maximal supplied QI-value         = 25.13
 optimisation between [QCUT,QGAM] = [ 11.31, 22.87] = [ 35.82,146.48] Ry 
 Optimized for a Real-space Cutoff    1.27 Angstroem

   l    n(q)    QCUT    max X(q) W(low)/X(q) W(high)/X(q)  e(spline) 
   0      9    11.310    79.467    0.75E-04    0.16E-03    0.36E-06
   0      9    11.310    66.151    0.74E-04    0.16E-03    0.36E-06
   1      8    11.310    17.416    0.35E-03    0.12E-03    0.95E-06
   1      8    11.310    12.382    0.37E-03    0.13E-03    0.98E-06
 Optimization of the real space projectors (new method)

 maximal supplied QI-value         = 16.25
 optimisation between [QCUT,QGAM] = [ 11.38, 22.75] = [ 36.24,144.96] Ry 
 Optimized for a Real-space Cutoff    1.31 Angstroem

   l    n(q)    QCUT    max X(q) W(low)/X(q) W(high)/X(q)  e(spline) 
   0      9    11.376   194.483    0.24E-03    0.23E-03    0.67E-07
   0      9    11.376   190.334    0.23E-03    0.22E-03    0.65E-07
   1      8    11.376   116.687    0.25E-03    0.63E-04    0.16E-06
   1      8    11.376    88.696    0.25E-03    0.61E-04    0.16E-06
   2      8    11.376     4.877    0.17E-03    0.14E-03    0.29E-07
 Optimization of the real space projectors (new method)

 maximal supplied QI-value         = 12.09
 optimisation between [QCUT,QGAM] = [ 11.37, 22.86] = [ 36.19,146.31] Ry 
 Optimized for a Real-space Cutoff    1.66 Angstroem

   l    n(q)    QCUT    max X(q) W(low)/X(q) W(high)/X(q)  e(spline) 
   0     11    11.369   135.111    0.12E-03    0.69E-04    0.19E-05
   0     11    11.369   146.850    0.11E-03    0.65E-04    0.18E-05
   1     11    11.369   148.016    0.17E-03    0.32E-03    0.89E-06
   1     11    11.369   122.989    0.17E-03    0.32E-03    0.91E-06
   2     10    11.369     8.916    0.12E-03    0.45E-04    0.33E-06
  PAW_PBE H 15Jun2001                   :
 energy of atom  1       EATOM=  -12.4884
 kinetic energy error for atom=    0.0020 (will be added to EATOM!!)
  PAW_PBE C 08Apr2002                   :
 energy of atom  2       EATOM= -147.1560
 kinetic energy error for atom=    0.0076 (will be added to EATOM!!)
  PAW_PBE N 08Apr2002                   :
 energy of atom  3       EATOM= -264.5486
 kinetic energy error for atom=    0.0138 (will be added to EATOM!!)
  PAW_PBE I 08Apr2002                   :
 energy of atom  4       EATOM= -315.8678
 kinetic energy error for atom=    0.0009 (will be added to EATOM!!)
  PAW_PBE Pb 08Apr2002                  :
 energy of atom  5       EATOM=  -96.9868
 kinetic energy error for atom=    0.0000 (will be added to EATOM!!)
 
 
 POSCAR:  H  C  N  I Pb
  positions in cartesian coordinates
  No initial velocities read in
 exchange correlation table for  LEXCH =        8
   RHO(1)=    0.500       N(1)  =     2000
   RHO(2)=  100.500       N(2)  =     4000
 


--------------------------------------------------------------------------------------------------------


 ion  position               nearest neighbor table
   1  0.472  0.331  0.572- 187 1.01
   2  0.451  0.838  0.574- 188 1.03
   3  0.921  0.241  0.581- 189 1.02
   4  0.942  0.813  0.576- 190 1.03
   5  0.318  0.071  0.571- 194 1.02
   6  0.335  0.568  0.571- 195 1.01
   7  0.795  0.086  0.574- 196 1.01
   8  0.104  0.247  0.558- 183 1.03
   9  0.088  0.675  0.572- 184 1.02
  10  0.555  0.156  0.559- 185 1.02
  11  0.494  0.646  0.563- 186 1.03
  12  0.367  0.006  0.556- 194 1.04
  13  0.281  0.633  0.557- 195 1.04
  14  0.867  0.031  0.565- 196 1.03
  15  0.057  0.243  0.582- 183 1.02
  16  0.008  0.694  0.587- 184 1.03
  17  0.574  0.242  0.571- 185 1.02
  18  0.454  0.704  0.582- 186 1.02
  19  0.284  0.440  0.575- 191 1.02
  20  0.181  0.057  0.571- 192 1.02
  21  0.668  0.029  0.573- 193 1.01
  22  0.388  0.302  0.560- 187 1.02
  23  0.502  0.869  0.552- 188 1.01
  24  0.878  0.235  0.556- 189 1.03
  25  0.986  0.867  0.557- 190 1.03
  26  0.198  0.425  0.563- 191 1.03
  27  0.141  0.987  0.556- 192 1.03
  28  0.664  0.939  0.563- 193 1.03
  29  0.435  0.188  0.551- 146 1.09
  30  0.536  0.746  0.542- 147 1.09
  31  0.993  0.242  0.538- 144 1.10
  32  0.081  0.781  0.552- 145 1.10
  33  0.188  0.546  0.551- 148 1.09
  34  0.259  0.942  0.546- 149 1.09
  35  0.790  0.934  0.556- 150 1.09
  36  0.466  0.309  0.674- 205 1.02
  37  0.442  0.808  0.673- 206 1.02
  38  0.950  0.277  0.676- 207 1.02
  39  0.923  0.748  0.674- 208 1.01
  40  0.308  0.051  0.672- 209 1.03
  41  0.294  0.548  0.676- 210 1.02
  42  0.791  0.053  0.675- 211 1.02
  43  0.845  0.476  0.665- 212 1.02
  44  0.092  0.174  0.647- 197 1.01
  45  0.104  0.705  0.652- 198 1.01
  46  0.580  0.167  0.648- 199 1.02
  47  0.575  0.670  0.653- 200 1.02
  48  0.185  0.409  0.648- 201 1.02
  49  0.171  0.924  0.648- 202 1.02
  50  0.646  0.479  0.660- 203 1.02
  51  0.680  0.911  0.648- 204 1.03
  52  0.058  0.183  0.673- 197 1.02
  53  0.044  0.677  0.672- 198 1.01
  54  0.567  0.210  0.673- 199 1.02
  55  0.537  0.702  0.677- 200 1.01
  56  0.204  0.436  0.674- 201 1.02
  57  0.201  0.953  0.673- 202 1.02
  58  0.717  0.427  0.671- 203 1.01
  59  0.699  0.941  0.673- 204 1.02
  60  0.420  0.323  0.650- 205 1.01
  61  0.425  0.833  0.646- 206 1.02
  62  0.926  0.320  0.652- 207 1.02
  63  0.913  0.818  0.655- 208 1.01
  64  0.336  0.073  0.646- 209 1.02
  65  0.320  0.584  0.652- 210 1.01
  66  0.823  0.082  0.650- 211 1.02
  67  0.854  0.554  0.649- 212 1.03
  68  0.014  0.259  0.632- 151 1.09
  69  0.027  0.797  0.640- 152 1.10
  70  0.489  0.236  0.631- 153 1.08
  71  0.507  0.749  0.632- 154 1.10
  72  0.254  0.997  0.629- 156 1.09
  73  0.255  0.500  0.632- 155 1.10
  74  0.757  0.996  0.631- 158 1.09
  75  0.726  0.563  0.643- 157 1.11
  76  0.449  0.301  0.769- 221 1.02
  77  0.449  0.801  0.769- 222 1.02
  78  0.949  0.301  0.769- 223 1.02
  79  0.949  0.801  0.769- 224 1.02
  80  0.301  0.051  0.769- 225 1.02
  81  0.301  0.551  0.769- 226 1.02
  82  0.801  0.051  0.769- 227 1.02
  83  0.801  0.551  0.769- 228 1.02
  84  0.079  0.171  0.743- 213 1.02
  85  0.079  0.671  0.743- 214 1.02
  86  0.579  0.171  0.743- 215 1.02
  87  0.579  0.671  0.743- 216 1.02
  88  0.171  0.421  0.743- 217 1.02
  89  0.171  0.921  0.743- 218 1.02
  90  0.671  0.421  0.743- 219 1.02
  91  0.671  0.921  0.743- 220 1.02
  92  0.051  0.199  0.769- 213 1.02
  93  0.051  0.699  0.769- 214 1.02
  94  0.551  0.199  0.769- 215 1.02
  95  0.551  0.699  0.769- 216 1.02
  96  0.199  0.449  0.769- 217 1.02
  97  0.199  0.949  0.769- 218 1.02
  98  0.699  0.449  0.769- 219 1.02
  99  0.699  0.949  0.769- 220 1.02
 100  0.421  0.329  0.743- 221 1.02
 101  0.421  0.829  0.743- 222 1.02
 102  0.921  0.329  0.743- 223 1.02
 103  0.921  0.829  0.743- 224 1.02
 104  0.329  0.079  0.743- 225 1.02
 105  0.329  0.579  0.743- 226 1.02
 106  0.829  0.079  0.743- 227 1.02
 107  0.829  0.579  0.743- 228 1.02
 108  0.000  0.250  0.726- 161 1.09
 109  0.000  0.750  0.726- 162 1.09
 110  0.500  0.250  0.726- 159 1.09
 111  0.500  0.750  0.726- 160 1.09
 112  0.250  0.000  0.726- 163 1.09
 113  0.250  0.500  0.726- 164 1.09
 114  0.750  0.000  0.726- 165 1.09
 115  0.750  0.500  0.726- 166 1.09
 116  0.719  0.440  0.542- 173 1.10
 117  0.737  0.494  0.519- 173 1.09
 118  0.659  0.553  0.559- 174 1.10
 119  0.709  0.638  0.557- 174 1.10
 120  0.848  0.505  0.570- 175 1.09
 121  0.788  0.573  0.580- 175 1.09
 122  0.868  0.562  0.530- 176 1.09
 123  0.795  0.625  0.525- 176 1.10
 124  0.868  0.463  0.519- 177 1.10
 125  0.863  0.423  0.544- 177 1.10
 126  0.870  0.325  0.518- 178 1.10
 127  0.783  0.322  0.530- 178 1.10
 128  0.635  0.551  0.520- 179 1.10
 129  0.688  0.636  0.517- 179 1.10
 130  0.607  0.633  0.533- 179 1.10
 131  0.753  0.463  0.598- 180 1.10
 132  0.755  0.409  0.574- 180 1.09
 133  0.683  0.474  0.578- 180 1.09
 134  0.819  0.688  0.560- 181 1.10
 135  0.902  0.682  0.545- 181 1.10
 136  0.888  0.622  0.566- 181 1.09
 137  0.819  0.383  0.485- 182 1.12
 138  0.782  0.294  0.491- 182 1.11
 139  0.662  0.312  0.520- 168 1.09
 140  0.729  0.462  0.470- 169 1.10
 141  0.537  0.368  0.520- 170 1.09
 142  0.602  0.516  0.469- 171 1.10
 143  0.506  0.469  0.495- 172 1.10
 144  0.991  0.243  0.555-  31 1.10 183 1.30 189 1.31
 145  0.036  0.769  0.563-  32 1.10 184 1.31 190 1.32
 146  0.471  0.229  0.558-  29 1.09 187 1.30 185 1.31
 147  0.502  0.757  0.556-  30 1.09 188 1.31 186 1.31
 148  0.238  0.529  0.559-  33 1.09 191 1.31 195 1.31
 149  0.255  0.992  0.555-  34 1.09 194 1.30 192 1.31
 150  0.766  0.985  0.563-  35 1.09 196 1.31 193 1.31
 151  0.008  0.248  0.649-  68 1.09 207 1.31 197 1.32
 152  0.009  0.763  0.653-  69 1.10 208 1.31 198 1.32
 153  0.500  0.246  0.648-  70 1.08 205 1.30 199 1.32
 154  0.500  0.751  0.649-  71 1.10 206 1.30 200 1.32
 155  0.253  0.496  0.649-  73 1.10 201 1.31 210 1.32
 156  0.254  0.999  0.647-  72 1.09 209 1.31 202 1.32
 157  0.748  0.518  0.653-  75 1.11 212 1.31 203 1.31
 158  0.752  0.997  0.648-  74 1.09 211 1.31 204 1.32
 159  0.500  0.250  0.743- 110 1.09 221 1.31 215 1.31
 160  0.500  0.750  0.743- 111 1.09 222 1.31 216 1.31
 161  1.000  0.250  0.743- 108 1.09 223 1.31 213 1.31
 162  1.000  0.750  0.743- 109 1.09 224 1.31 214 1.31
 163  0.250  0.000  0.743- 112 1.09 225 1.31 218 1.31
 164  0.250  0.500  0.743- 113 1.09 226 1.31 217 1.31
 165  0.750  0.000  0.743- 114 1.09 227 1.31 220 1.31
 166  0.750  0.500  0.743- 115 1.09 228 1.31 219 1.31
 167  0.705  0.383  0.495- 168 1.40 169 1.41 182 1.51
 168  0.649  0.357  0.509- 139 1.09 170 1.39 167 1.40
 169  0.686  0.440  0.481- 140 1.10 171 1.40 167 1.41
 170  0.579  0.387  0.509- 141 1.09 172 1.39 168 1.39
 171  0.615  0.471  0.481- 142 1.10 169 1.40 172 1.40
 172  0.561  0.444  0.495- 143 1.10 170 1.39 171 1.40
 173  0.761  0.475  0.534- 117 1.09 116 1.10 229 1.52 177 1.53
 174  0.696  0.585  0.549- 118 1.10 119 1.10 179 1.51 229 1.53
 175  0.790  0.522  0.570- 121 1.09 120 1.09 180 1.51 229 1.52
 176  0.825  0.595  0.538- 122 1.09 123 1.10 181 1.51 229 1.52
 177  0.832  0.431  0.529- 125 1.10 124 1.10 173 1.53 178 1.54
 178  0.817  0.355  0.519- 127 1.10 126 1.10 177 1.54 182 1.54
 179  0.656  0.601  0.528- 129 1.10 128 1.10 130 1.10 174 1.51
 180  0.742  0.464  0.580- 132 1.09 133 1.09 131 1.10 175 1.51
 181  0.860  0.650  0.553- 136 1.09 135 1.10 134 1.10 176 1.51
 182  0.783  0.353  0.497- 138 1.11 137 1.12 167 1.51 178 1.54
 183  0.054  0.242  0.565-  15 1.02   8 1.03 144 1.30
 184  0.043  0.709  0.574-   9 1.02  16 1.03 145 1.31
 185  0.540  0.209  0.562-  10 1.02  17 1.02 146 1.31
 186  0.485  0.699  0.568-  18 1.02  11 1.03 147 1.31
 187  0.443  0.294  0.563-   1 1.01  22 1.02 146 1.30
 188  0.482  0.825  0.560-  23 1.01   2 1.03 147 1.31
 189  0.926  0.244  0.565-   3 1.02  24 1.03 144 1.31
 190  0.980  0.816  0.564-   4 1.03  25 1.03 145 1.32
 191  0.242  0.460  0.566-  19 1.02  26 1.03 148 1.31
 192  0.188  0.014  0.561-  20 1.02  27 1.03 149 1.31
 193  0.694  0.987  0.565-  21 1.01  28 1.03 150 1.31
 194  0.316  0.027  0.561-   5 1.02  12 1.04 149 1.30
 195  0.290  0.579  0.562-   6 1.01  13 1.04 148 1.31
 196  0.812  0.038  0.568-   7 1.01  14 1.03 150 1.31
 197  0.055  0.198  0.657-  44 1.01  52 1.02 151 1.32
 198  0.055  0.711  0.660-  45 1.01  53 1.01 152 1.32
 199  0.553  0.205  0.657-  46 1.02  54 1.02 153 1.32
 200  0.540  0.705  0.661-  55 1.01  47 1.02 154 1.32
 201  0.212  0.444  0.658-  56 1.02  48 1.02 155 1.31
 202  0.206  0.957  0.657-  57 1.02  49 1.02 156 1.32
 203  0.701  0.470  0.661-  58 1.01  50 1.02 157 1.31
 204  0.708  0.947  0.657-  59 1.02  51 1.03 158 1.32
 205  0.461  0.296  0.658-  60 1.01  36 1.02 153 1.30
 206  0.453  0.800  0.657-  61 1.02  37 1.02 154 1.30
 207  0.958  0.283  0.660-  38 1.02  62 1.02 151 1.31
 208  0.944  0.778  0.661-  39 1.01  63 1.01 152 1.31
 209  0.302  0.043  0.656-  64 1.02  40 1.03 156 1.31
 210  0.292  0.546  0.660-  65 1.01  41 1.02 155 1.32
 211  0.790  0.047  0.659-  66 1.02  42 1.02 158 1.31
 212  0.820  0.516  0.656-  43 1.02  67 1.03 157 1.31
 213  0.046  0.204  0.753-  92 1.02  84 1.02 161 1.31
 214  0.046  0.704  0.753-  93 1.02  85 1.02 162 1.31
 215  0.546  0.204  0.753-  94 1.02  86 1.02 159 1.31
 216  0.546  0.704  0.753-  95 1.02  87 1.02 160 1.31
 217  0.204  0.454  0.753-  96 1.02  88 1.02 164 1.31
 218  0.204  0.954  0.753-  97 1.02  89 1.02 163 1.31
 219  0.704  0.454  0.753-  98 1.02  90 1.02 166 1.31
 220  0.704  0.954  0.753-  99 1.02  91 1.02 165 1.31
 221  0.454  0.296  0.753-  76 1.02 100 1.02 159 1.31
 222  0.454  0.796  0.753-  77 1.02 101 1.02 160 1.31
 223  0.954  0.296  0.753-  78 1.02 102 1.02 161 1.31
 224  0.954  0.796  0.753-  79 1.02 103 1.02 162 1.31
 225  0.296  0.046  0.753-  80 1.02 104 1.02 163 1.31
 226  0.296  0.546  0.753-  81 1.02 105 1.02 164 1.31
 227  0.796  0.046  0.753-  82 1.02 106 1.02 165 1.31
 228  0.796  0.546  0.753-  83 1.02 107 1.02 166 1.31
 229  0.769  0.543  0.548- 175 1.52 176 1.52 173 1.52 174 1.53
 230  0.509  0.015  0.551- 304 3.32
 231  0.483  0.509  0.555- 305 3.16
 232  0.995  0.007  0.552- 302 3.32
 233  0.032  0.507  0.555- 303 3.16
 234  0.250  0.248  0.553- 306 3.21
 235  0.240  0.767  0.553- 307 3.21
 236  0.732  0.211  0.556- 308 3.20
 237  0.701  0.795  0.554- 309 3.22
 238  1.000  0.992  0.654- 302 3.10 310 3.15
 239  0.017  0.495  0.656- 311 3.10 303 3.18
 240  0.502  0.004  0.654- 304 3.13 312 3.16
 241  0.505  0.496  0.655- 313 3.10 305 3.15
 242  0.257  0.243  0.655- 314 3.11 306 3.16
 243  0.251  0.757  0.655- 315 3.14 307 3.17
 244  0.747  0.268  0.655- 316 3.10 308 3.14
 245  0.747  0.744  0.654- 317 3.20 309 3.21
 246  0.134  0.118  0.607- 302 3.24 306 3.26
 247  0.150  0.608  0.611- 303 3.19 307 3.19
 248  0.640  0.114  0.610- 304 3.19 308 3.22
 249  0.626  0.623  0.611- 305 3.18 309 3.24
 250  0.363  0.388  0.609- 306 3.15 305 3.23
 251  0.373  0.882  0.606- 304 3.23 307 3.26
 252  0.887  0.371  0.611- 308 3.29 303 3.29
 253  0.867  0.879  0.608- 309 3.19 302 3.24
 254  0.122  0.365  0.609- 306 3.06 303 3.30
 255  0.123  0.877  0.608- 307 3.16 302 3.23
 256  0.593  0.346  0.603- 308 3.20 305 3.26
 257  0.614  0.866  0.611- 309 3.07 304 3.27
 258  0.384  0.132  0.606- 304 3.12 306 3.28
 259  0.381  0.633  0.612- 305 3.24 307 3.30
 260  0.885  0.139  0.612- 302 3.22 308 3.32
 261  0.907  0.646  0.616- 303 3.18 309 3.71
 262  0.000  0.000  0.755- 310 3.13 318 3.27
 263  0.000  0.500  0.755- 311 3.13 319 3.27
 264  0.500  0.000  0.755- 312 3.13 320 3.27
 265  0.500  0.500  0.755- 313 3.13 321 3.27
 266  0.250  0.250  0.755- 314 3.13 322 3.27
 267  0.250  0.750  0.755- 315 3.13 323 3.27
 268  0.750  0.250  0.755- 316 3.13 324 3.27
 269  0.750  0.750  0.755- 317 3.13 325 3.27
 270  0.136  0.114  0.705- 310 3.20 314 3.20
 271  0.136  0.614  0.705- 311 3.20 315 3.20
 272  0.636  0.114  0.705- 312 3.20 316 3.20
 273  0.636  0.614  0.705- 313 3.20 317 3.20
 274  0.364  0.386  0.705- 313 3.20 314 3.20
 275  0.364  0.886  0.705- 312 3.20 315 3.20
 276  0.864  0.386  0.705- 311 3.20 316 3.20
 277  0.864  0.886  0.705- 310 3.20 317 3.20
 278  0.114  0.364  0.705- 314 3.21 311 3.21
 279  0.114  0.864  0.705- 315 3.21 310 3.21
 280  0.614  0.364  0.705- 316 3.21 313 3.21
 281  0.614  0.864  0.705- 317 3.21 312 3.21
 282  0.386  0.136  0.705- 314 3.21 312 3.21
 283  0.386  0.636  0.705- 315 3.21 313 3.21
 284  0.886  0.136  0.705- 316 3.21 310 3.21
 285  0.886  0.636  0.705- 317 3.21 311 3.21
 286  0.135  0.115  0.801- 318 3.22 322 3.22
 287  0.135  0.615  0.801- 319 3.22 323 3.22
 288  0.635  0.115  0.801- 320 3.22 324 3.22
 289  0.635  0.615  0.801- 321 3.22 325 3.22
 290  0.365  0.385  0.801- 321 3.22 322 3.22
 291  0.365  0.885  0.801- 320 3.22 323 3.22
 292  0.865  0.385  0.801- 319 3.22 324 3.22
 293  0.865  0.885  0.801- 318 3.22 325 3.22
 294  0.115  0.365  0.801- 319 3.23 322 3.23
 295  0.115  0.865  0.801- 318 3.23 323 3.23
 296  0.615  0.365  0.801- 321 3.23 324 3.23
 297  0.615  0.865  0.801- 320 3.23 325 3.23
 298  0.385  0.135  0.801- 320 3.23 322 3.23
 299  0.385  0.635  0.801- 321 3.23 323 3.23
 300  0.885  0.135  0.801- 318 3.23 324 3.23
 301  0.885  0.635  0.801- 319 3.23 325 3.23
 302  0.997  0.003  0.605- 238 3.10 260 3.22 255 3.23 246 3.24 253 3.24 232 3.32
 303  0.007  0.506  0.605- 233 3.16 239 3.18 261 3.18 247 3.19 252 3.29 254 3.30
 304  0.502  0.006  0.604- 258 3.12 240 3.13 248 3.19 251 3.23 257 3.27 230 3.32
 305  0.501  0.501  0.605- 241 3.15 231 3.16 249 3.18 250 3.23 259 3.24 256 3.26
 306  0.250  0.255  0.605- 254 3.06 250 3.15 242 3.16 234 3.21 246 3.26 258 3.28
 307  0.247  0.753  0.604- 255 3.16 243 3.17 247 3.19 235 3.21 251 3.26 259 3.30
 308  0.746  0.257  0.605- 244 3.14 256 3.20 236 3.20 248 3.22 252 3.29 260 3.32
 309  0.741  0.757  0.602- 257 3.07 253 3.19 245 3.21 237 3.22 249 3.24 261 3.71
 310  0.000  0.000  0.705- 262 3.13 238 3.15 270 3.20 277 3.20 279 3.21 284 3.21
 311  0.000  0.500  0.705- 239 3.10 263 3.13 271 3.20 276 3.20 278 3.21 285 3.21
 312  0.500  0.000  0.705- 264 3.13 240 3.16 272 3.20 275 3.20 281 3.21 282 3.21
 313  0.500  0.500  0.705- 241 3.10 265 3.13 273 3.20 274 3.20 280 3.21 283 3.21
 314  0.250  0.250  0.705- 242 3.11 266 3.13 270 3.20 274 3.20 282 3.21 278 3.21
 315  0.250  0.750  0.705- 267 3.13 243 3.14 271 3.20 275 3.20 283 3.21 279 3.21
 316  0.750  0.250  0.705- 244 3.10 268 3.13 272 3.20 276 3.20 284 3.21 280 3.21
 317  0.750  0.750  0.705- 269 3.13 245 3.20 273 3.20 277 3.20 285 3.21 281 3.21
 318  0.000  0.000  0.807- 286 3.22 293 3.22 300 3.23 295 3.23 262 3.27
 319  0.000  0.500  0.807- 287 3.22 292 3.22 301 3.23 294 3.23 263 3.27
 320  0.500  0.000  0.807- 288 3.22 291 3.22 298 3.23 297 3.23 264 3.27
 321  0.500  0.500  0.807- 289 3.22 290 3.22 299 3.23 296 3.23 265 3.27
 322  0.250  0.250  0.807- 290 3.22 286 3.22 294 3.23 298 3.23 266 3.27
 323  0.250  0.750  0.807- 291 3.22 287 3.22 299 3.23 295 3.23 267 3.27
 324  0.750  0.250  0.807- 292 3.22 288 3.22 296 3.23 300 3.23 268 3.27
 325  0.750  0.750  0.807- 293 3.22 289 3.22 297 3.23 301 3.23 269 3.27
 

IMPORTANT INFORMATION: All symmetrisations will be switched off!
NOSYMM: (Re-)initialisation of all symmetry stuff for point group C_1.


----------------------------------------------------------------------------------------

                                     Primitive cell                                     

  volume of cell :   20385.2105

  direct lattice vectors                    reciprocal lattice vectors
    18.060800552  0.000000000  0.000000000     0.055368531  0.000015077 -0.000000000
    -0.004918649 18.062799454  0.000000000     0.000000000  0.055362404  0.000000000
     0.000000000  0.000000000 62.487499237     0.000000000 -0.000000000  0.016003201

  length of vectors
    18.060800552 18.062800123 62.487499237     0.055368533  0.055362404  0.016003201

  position of ions in fractional coordinates (direct lattice)
     0.471501898  0.331253368  0.571587225
     0.451060190  0.838358513  0.573514490
     0.921388369  0.241458414  0.580938033
     0.942211901  0.813157642  0.576300448
     0.317565602  0.070791523  0.570815708
     0.335262279  0.567599961  0.570966190
     0.795073333  0.086236250  0.574360546
     0.104465279  0.247440103  0.557640527
     0.088115060  0.675464137  0.572190617
     0.554946681  0.155876902  0.559039488
     0.493987239  0.646154918  0.562918987
     0.367224243  0.006112293  0.556319095
     0.281107868  0.633067317  0.557313007
     0.867429860  0.030734081  0.564670436
     0.057269366  0.243182497  0.581741172
     0.007604177  0.694284406  0.586526248
     0.573597709  0.241857855  0.571083462
     0.453624525  0.703739418  0.581804478
     0.283889517  0.439993273  0.574650460
     0.180582501  0.056942897  0.571319044
     0.667970292  0.029256250  0.573140636
     0.387985394  0.302316029  0.560208545
     0.501842997  0.868607373  0.551745121
     0.878298841  0.234918099  0.556344064
     0.985693908  0.867360502  0.556962657
     0.198309648  0.424724705  0.563004698
     0.141116653  0.986987629  0.556236071
     0.664491801  0.939468292  0.562736394
     0.434957235  0.188204315  0.550830998
     0.535715623  0.746439825  0.542261962
     0.993436236  0.242486570  0.537666683
     0.081321826  0.780726758  0.551724487
     0.187515632  0.545638915  0.550709270
     0.259353170  0.941923788  0.545766875
     0.789739278  0.934232225  0.555906842
     0.466188715  0.309401481  0.673652256
     0.441548938  0.808257381  0.672618846
     0.949528725  0.276804813  0.676402989
     0.923100543  0.748353794  0.673646456
     0.307908508  0.050778036  0.671919121
     0.293666444  0.548213014  0.676485830
     0.790722307  0.053034038  0.674766859
     0.845123715  0.475614378  0.664895072
     0.091863865  0.173838627  0.647286326
     0.104318655  0.704772828  0.652309364
     0.579808431  0.167481362  0.647897410
     0.575409282  0.669925288  0.653395091
     0.184854282  0.408755248  0.647542175
     0.170992446  0.923810183  0.648083116
     0.645673677  0.479269404  0.660015373
     0.679723042  0.910984010  0.647599254
     0.058133944  0.183461220  0.673024750
     0.043598181  0.676671990  0.672192186
     0.567123666  0.210208497  0.672731661
     0.537083538  0.702379350  0.677247335
     0.203783027  0.436362665  0.673700727
     0.200707422  0.952669905  0.673255265
     0.716592847  0.426702560  0.670648298
     0.698880905  0.941414032  0.673418017
     0.420446666  0.322973685  0.649722299
     0.425261956  0.832716498  0.646181124
     0.925581144  0.320427674  0.652306434
     0.912966361  0.817937893  0.654710967
     0.335715674  0.073366289  0.646215188
     0.320349855  0.584408427  0.651906512
     0.822713863  0.082308900  0.650005131
     0.853913312  0.553840352  0.648672711
     0.013598533  0.258639842  0.632430754
     0.027308764  0.796950225  0.639512798
     0.489098504  0.235991661  0.631273235
     0.507375145  0.749071156  0.632054641
     0.254218851  0.996532795  0.629353601
     0.255010521  0.499528569  0.631950006
     0.756582310  0.995556541  0.630972821
     0.725931172  0.563268913  0.643345046
     0.448745018  0.301283966  0.768889017
     0.448745007  0.801283913  0.768889017
     0.948744965  0.301283966  0.768889017
     0.948745007  0.801283913  0.768889017
     0.301275995  0.051294496  0.768872961
     0.301276011  0.551294499  0.768872961
     0.801275943  0.051294496  0.768872961
     0.801275984  0.551294499  0.768872961
     0.078771004  0.171180501  0.743441971
     0.078771006  0.671180448  0.743441971
     0.578771004  0.171180501  0.743441971
     0.578770992  0.671180448  0.743441971
     0.171199499  0.421174482  0.743421032
     0.171199501  0.921174508  0.743421032
     0.671199512  0.421174482  0.743421032
     0.671199501  0.921174508  0.743421032
     0.051256000  0.198714991  0.768889017
     0.051256002  0.698714925  0.768889017
     0.551256027  0.198714991  0.768889017
     0.551256016  0.698714925  0.768889017
     0.198723491  0.448703970  0.768872046
     0.198723493  0.948703970  0.768872046
     0.698723518  0.448703970  0.768872046
     0.698723507  0.948703970  0.768872046
     0.421231519  0.328817467  0.743441971
     0.421231508  0.828817440  0.743441971
     0.921231466  0.328817467  0.743441971
     0.921231508  0.828817440  0.743441971
     0.328800503  0.078824997  0.743421032
     0.328800492  0.578824964  0.743421032
     0.828800477  0.078824997  0.743421032
     0.828800519  0.578824964  0.743421032
     0.000003500  0.250001478  0.725821992
     0.000003500  0.750001452  0.725821992
     0.500003506  0.250001478  0.725821992
     0.500003495  0.750001452  0.725821992
     0.250000502  0.000000000  0.725803983
     0.250000517  0.500000000  0.725803983
     0.750000502  0.000000000  0.725803983
     0.750000490  0.500000000  0.725803983
     0.718950145  0.439654628  0.541580918
     0.736663941  0.493755352  0.518832349
     0.658742307  0.553394211  0.559323847
     0.709298933  0.637651214  0.557112223
     0.848083677  0.504723546  0.570122576
     0.788293476  0.573334267  0.579810122
     0.867941426  0.561622364  0.530044675
     0.794880858  0.624645028  0.525065835
     0.868174399  0.462752065  0.518563863
     0.863255709  0.422664538  0.544236051
     0.870028052  0.325035620  0.518179082
     0.782640319  0.321826285  0.530309560
     0.635498757  0.551225282  0.519841585
     0.687801550  0.635503139  0.516715471
     0.606549175  0.632714787  0.532570876
     0.753171326  0.462515901  0.597622828
     0.754712494  0.408580487  0.574269951
     0.682629037  0.474443325  0.578201035
     0.818633249  0.688375129  0.559581039
     0.901997244  0.681687244  0.544595193
     0.888444270  0.622381907  0.566473775
     0.819224653  0.382626721  0.485168054
     0.782017546  0.294072143  0.491413261
     0.661970415  0.312253323  0.520358473
     0.728766713  0.461831115  0.469835825
     0.536635246  0.368150910  0.520165746
     0.601924732  0.515746968  0.469425281
     0.505985309  0.469119521  0.494867107
     0.991231499  0.242566796  0.555311997
     0.036039299  0.769476941  0.563027957
     0.471099188  0.229157077  0.558354537
     0.502093906  0.756876663  0.556369276
     0.237936630  0.529108746  0.559047302
     0.254811419  0.992001025  0.555430917
     0.765950609  0.984504780  0.562829186
     0.008491310  0.247568217  0.649439222
     0.008786825  0.762766194  0.653000298
     0.500037655  0.245680831  0.648093494
     0.500077682  0.751349588  0.649479574
     0.253048295  0.496063509  0.649440870
     0.253558638  0.998725972  0.646822732
     0.748113724  0.517873659  0.653344422
     0.751609494  0.996566359  0.648401844
     0.499988984  0.249994984  0.743277021
     0.499989025  0.749994958  0.743277021
     0.999988984  0.249994984  0.743277021
     0.999989025  0.749994958  0.743277021
     0.250000502  0.000001000  0.743255960
     0.250000517  0.500001003  0.743255960
     0.750000502  0.000001000  0.743255960
     0.750000491  0.500001003  0.743255960
     0.704520922  0.382966236  0.495144079
     0.649415828  0.356793121  0.509084825
     0.686243125  0.440132764  0.480821268
     0.578587346  0.387148844  0.508914747
     0.615124088  0.470573253  0.480556780
     0.561464967  0.444015639  0.494771507
     0.760684636  0.474532500  0.533826804
     0.695790638  0.585348806  0.548871622
     0.790130338  0.522288339  0.570431720
     0.825231399  0.595416431  0.537713995
     0.831580759  0.431185401  0.529367416
     0.816886079  0.354861570  0.519327016
     0.656271465  0.601072649  0.528013324
     0.741634691  0.463641179  0.580384395
     0.859945099  0.649569187  0.553194569
     0.782566369  0.352757397  0.496708998
     0.054369157  0.241919945  0.565427301
     0.043468542  0.709355299  0.574486975
     0.539605251  0.209413627  0.561910057
     0.484908861  0.699392161  0.568182796
     0.443015428  0.293688805  0.562806965
     0.482310506  0.825235063  0.560339248
     0.926481513  0.243899806  0.564641744
     0.980319805  0.816287120  0.564173877
     0.241776194  0.460497392  0.565655496
     0.188275576  0.014314752  0.560953567
     0.694169995  0.987213901  0.565487555
     0.315545187  0.026709526  0.560655229
     0.290010846  0.578717362  0.561940276
     0.811744957  0.038009581  0.567710717
     0.055270020  0.198386405  0.657329594
     0.054845544  0.710722548  0.659702688
     0.552824764  0.205489609  0.656989865
     0.539740434  0.705019604  0.661090478
     0.212379429  0.443529583  0.657747463
     0.205548168  0.956526104  0.656977351
     0.701147149  0.470231177  0.661440280
     0.707873089  0.947051540  0.657343452
     0.460602805  0.295703566  0.657865285
     0.453048631  0.800036832  0.656771987
     0.958065440  0.283369336  0.660402657
     0.944405532  0.777967814  0.661483501
     0.301560667  0.043180928  0.655745415
     0.291695042  0.545663466  0.660190945
     0.790287801  0.046687537  0.658505305
     0.819814692  0.515680707  0.655929473
     0.045862501  0.204119496  0.752725994
     0.045862500  0.704119456  0.752725994
     0.545862507  0.204119496  0.752725994
     0.545862496  0.704119456  0.752725994
     0.204119002  0.454101003  0.752704994
     0.204118991  0.954100951  0.752704994
     0.704118976  0.454101003  0.752704994
     0.704118964  0.954100951  0.752704994
     0.454140018  0.295888490  0.752726971
     0.454140007  0.795888516  0.752726971
     0.954140018  0.295888490  0.752726971
     0.954140060  0.795888516  0.752726971
     0.295882492  0.045900498  0.752704994
     0.295882481  0.545900528  0.752704994
     0.795882439  0.045900498  0.752704994
     0.795882481  0.545900528  0.752704994
     0.769053674  0.543338361  0.547726129
     0.508586452  0.015176767  0.551238184
     0.482624994  0.508770068  0.554700608
     0.995417872  0.007220797  0.551906042
     0.032429084  0.506744748  0.554961158
     0.249725903  0.247814518  0.553276678
     0.239748592  0.766559023  0.552608331
     0.732293221  0.210827404  0.556014530
     0.701401842  0.794881136  0.553514030
     0.999906330  0.992059293  0.654498400
     0.017496263  0.494803492  0.655564715
     0.502456601  0.003956503  0.654280644
     0.504629958  0.495524920  0.655328400
     0.257071385  0.242894908  0.655129874
     0.250953484  0.757273385  0.654548825
     0.746805519  0.267766612  0.655455745
     0.747220220  0.743505064  0.653730241
     0.133798748  0.118226596  0.607477948
     0.149780843  0.607869508  0.610590204
     0.640035783  0.113957202  0.610250598
     0.626482556  0.622592623  0.611308426
     0.363119852  0.388079852  0.608511969
     0.373269973  0.881961179  0.606196625
     0.886659835  0.370742538  0.610940250
     0.866982605  0.879357302  0.608156124
     0.122163562  0.364935636  0.608573077
     0.123048002  0.876733256  0.607632093
     0.592609810  0.346069987  0.603029366
     0.614003307  0.865821819  0.611482778
     0.383858423  0.131968637  0.605731322
     0.381038894  0.632576985  0.611990753
     0.884537832  0.139092723  0.612194834
     0.907127264  0.646194305  0.616029891
     0.000000000  0.000000000  0.754927972
     0.000000000  0.500000000  0.754927972
     0.500000000  0.000000000  0.754927972
     0.499999989  0.500000000  0.754927972
     0.250000496  0.250000000  0.754939022
     0.250000511  0.749999974  0.754939022
     0.750000470  0.250000000  0.754939022
     0.750000458  0.749999974  0.754939022
     0.135790500  0.114209997  0.704782994
     0.135790502  0.614209984  0.704782994
     0.635790447  0.114209997  0.704782994
     0.635790488  0.614209984  0.704782994
     0.364209516  0.385789989  0.704782994
     0.364209505  0.885789963  0.704782994
     0.864209542  0.385789989  0.704782994
     0.864209531  0.885789963  0.704782994
     0.114217990  0.364218986  0.704780979
     0.114217992  0.864218986  0.704780979
     0.614218004  0.364218986  0.704780979
     0.614217992  0.864218986  0.704780979
     0.385782012  0.135781489  0.704782017
     0.385782001  0.635781489  0.704782017
     0.885781985  0.135781489  0.704782017
     0.885782027  0.635781489  0.704782017
     0.134667000  0.115332001  0.801256025
     0.134666989  0.615331988  0.801256025
     0.634666987  0.115332001  0.801256025
     0.634666976  0.615331988  0.801256025
     0.365333002  0.384667985  0.801256025
     0.365332990  0.884667959  0.801256025
     0.865332949  0.384667985  0.801256025
     0.865332938  0.884667959  0.801256025
     0.115328503  0.365337004  0.801264999
     0.115328505  0.865336978  0.801264999
     0.615328503  0.365337004  0.801264999
     0.615328492  0.865336978  0.801264999
     0.384671513  0.134662996  0.801264999
     0.384671501  0.634662970  0.801264999
     0.884671486  0.134662996  0.801264999
     0.884671528  0.634662970  0.801264999
     0.996886990  0.002842750  0.604974640
     0.006995905  0.506206634  0.604927206
     0.502071967  0.006040726  0.604200437
     0.500567865  0.501455897  0.604893691
     0.250484183  0.255258862  0.604650478
     0.246762206  0.753408804  0.603845874
     0.745534040  0.256827403  0.605374805
     0.740843662  0.757264885  0.602497521
     0.000000500  0.000000500  0.704828963
     0.000000500  0.500000475  0.704828963
     0.500000475  0.000000500  0.704828963
     0.500000464  0.500000475  0.704828963
     0.249999994  0.249999472  0.704824995
     0.250000010  0.749999498  0.704824995
     0.749999994  0.249999472  0.704824995
     0.749999983  0.749999498  0.704824995
     0.000000000  0.000000000  0.807317968
     0.000000000  0.500000000  0.807317968
     0.500000000  0.000000000  0.807317968
     0.499999989  0.500000000  0.807317968
     0.249999994  0.250000000  0.807317968
     0.250000010  0.749999974  0.807317968
     0.749999994  0.250000000  0.807317968
     0.749999983  0.749999974  0.807317968

  ion indices of the primitive-cell ions
   primitive index   ion index
                 1           1
                 2           2
                 3           3
                 4           4
                 5           5
                 6           6
                 7           7
                 8           8
                 9           9
                10          10
                11          11
                12          12
                13          13
                14          14
                15          15
                16          16
                17          17
                18          18
                19          19
                20          20
                21          21
                22          22
                23          23
                24          24
                25          25
                26          26
                27          27
                28          28
                29          29
                30          30
                31          31
                32          32
                33          33
                34          34
                35          35
                36          36
                37          37
                38          38
                39          39
                40          40
                41          41
                42          42
                43          43
                44          44
                45          45
                46          46
                47          47
                48          48
                49          49
                50          50
                51          51
                52          52
                53          53
                54          54
                55          55
                56          56
                57          57
                58          58
                59          59
                60          60
                61          61
                62          62
                63          63
                64          64
                65          65
                66          66
                67          67
                68          68
                69          69
                70          70
                71          71
                72          72
                73          73
                74          74
                75          75
                76          76
                77          77
                78          78
                79          79
                80          80
                81          81
                82          82
                83          83
                84          84
                85          85
                86          86
                87          87
                88          88
                89          89
                90          90
                91          91
                92          92
                93          93
                94          94
                95          95
                96          96
                97          97
                98          98
                99          99
               100         100
               101         101
               102         102
               103         103
               104         104
               105         105
               106         106
               107         107
               108         108
               109         109
               110         110
               111         111
               112         112
               113         113
               114         114
               115         115
               116         116
               117         117
               118         118
               119         119
               120         120
               121         121
               122         122
               123         123
               124         124
               125         125
               126         126
               127         127
               128         128
               129         129
               130         130
               131         131
               132         132
               133         133
               134         134
               135         135
               136         136
               137         137
               138         138
               139         139
               140         140
               141         141
               142         142
               143         143
               144         144
               145         145
               146         146
               147         147
               148         148
               149         149
               150         150
               151         151
               152         152
               153         153
               154         154
               155         155
               156         156
               157         157
               158         158
               159         159
               160         160
               161         161
               162         162
               163         163
               164         164
               165         165
               166         166
               167         167
               168         168
               169         169
               170         170
               171         171
               172         172
               173         173
               174         174
               175         175
               176         176
               177         177
               178         178
               179         179
               180         180
               181         181
               182         182
               183         183
               184         184
               185         185
               186         186
               187         187
               188         188
               189         189
               190         190
               191         191
               192         192
               193         193
               194         194
               195         195
               196         196
               197         197
               198         198
               199         199
               200         200
               201         201
               202         202
               203         203
               204         204
               205         205
               206         206
               207         207
               208         208
               209         209
               210         210
               211         211
               212         212
               213         213
               214         214
               215         215
               216         216
               217         217
               218         218
               219         219
               220         220
               221         221
               222         222
               223         223
               224         224
               225         225
               226         226
               227         227
               228         228
               229         229
               230         230
               231         231
               232         232
               233         233
               234         234
               235         235
               236         236
               237         237
               238         238
               239         239
               240         240
               241         241
               242         242
               243         243
               244         244
               245         245
               246         246
               247         247
               248         248
               249         249
               250         250
               251         251
               252         252
               253         253
               254         254
               255         255
               256         256
               257         257
               258         258
               259         259
               260         260
               261         261
               262         262
               263         263
               264         264
               265         265
               266         266
               267         267
               268         268
               269         269
               270         270
               271         271
               272         272
               273         273
               274         274
               275         275
               276         276
               277         277
               278         278
               279         279
               280         280
               281         281
               282         282
               283         283
               284         284
               285         285
               286         286
               287         287
               288         288
               289         289
               290         290
               291         291
               292         292
               293         293
               294         294
               295         295
               296         296
               297         297
               298         298
               299         299
               300         300
               301         301
               302         302
               303         303
               304         304
               305         305
               306         306
               307         307
               308         308
               309         309
               310         310
               311         311
               312         312
               313         313
               314         314
               315         315
               316         316
               317         317
               318         318
               319         319
               320         320
               321         321
               322         322
               323         323
               324         324
               325         325

----------------------------------------------------------------------------------------

 
 
 KPOINTS: Automatic Mesh                          

Automatic generation of k-mesh.
 Grid dimensions read from file:
 generate k-points for:    3    3    1

 Generating k-lattice:

  Cartesian coordinates                     Fractional coordinates (reciprocal lattice)
     0.018456177  0.000005026 -0.000000000     0.333333333  0.000000000  0.000000000
     0.000000000  0.018454135  0.000000000     0.000000000  0.333333333  0.000000000
     0.000000000 -0.000000000  0.016003201     0.000000000  0.000000000  1.000000000

  Length of vectors
     0.018456178  0.018454135  0.016003201

  Shift w.r.t. Gamma in fractional coordinates (k-lattice)
     0.000000000  0.000000000  0.000000000

 
 Subroutine IBZKPT returns following result:
 ===========================================
 
 Found      5 irreducible k-points:
 
 Following reciprocal coordinates:
            Coordinates               Weight
  0.000000  0.000000  0.000000      1.000000
  0.333333  0.000000  0.000000      2.000000
  0.000000  0.333333  0.000000      2.000000
  0.333333  0.333333  0.000000      2.000000
 -0.333333  0.333333  0.000000      2.000000
 
 Following cartesian coordinates:
            Coordinates               Weight
  0.000000  0.000000  0.000000      1.000000
  0.018456  0.000005  0.000000      2.000000
  0.000000  0.018454  0.000000      2.000000
  0.018456  0.018459  0.000000      2.000000
 -0.018456  0.018449  0.000000      2.000000
 


--------------------------------------------------------------------------------------------------------




 Dimension of arrays:
   k-points           NKPTS =      5   k-points in BZ     NKDIM =      5   number of bands    NBANDS=    732
   number of dos      NEDOS =    301   number of ions     NIONS =    325
   non local maximal  LDIM  =      5   non local SUM 2l+1 LMDIM =     13
   total plane-waves  NPLWV = ******
   max r-space proj   IRMAX =   3336   max aug-charges    IRDMAX=  19845
   dimension x,y,z NGX =   100 NGY =  100 NGZ =  350
   dimension x,y,z NGXF=   200 NGYF=  200 NGZF=  700
   support grid    NGXF=   200 NGYF=  200 NGZF=  700
   ions per type =             143  39  47  72  24
   NGX,Y,Z   is equivalent  to a cutoff of   9.20,  9.20,  9.31 a.u.
   NGXF,Y,Z  is equivalent  to a cutoff of  18.41, 18.41, 18.62 a.u.

 SYSTEM =  PSC                                     
 POSCAR =   H  C  N  I Pb                          

 Startparameter for this run:
   NWRITE =      2    write-flag & timer
   PREC   = normal    normal or accurate (medium, high low for compatibility)
   ISTART =      0    job   : 0-new  1-cont  2-samecut
   ICHARG =      1    charge: 1-file 2-atom 10-const
   ISPIN  =      1    spin polarized calculation?
   LNONCOLLINEAR =      F non collinear calculations
   LSORBIT =      F    spin-orbit coupling
   INIWAV =      1    electr: 0-lowe 1-rand  2-diag
   LASPH  =      F    aspherical Exc in radial PAW
 Electronic Relaxation 1
   ENCUT  =  500.0 eV  36.75 Ry    6.06 a.u.  32.93 32.93113.93*2*pi/ulx,y,z
   ENINI  =  500.0     initial cutoff
   ENAUG  =  644.9 eV  augmentation charge cutoff
   NELM   =    600;   NELMIN=  2; NELMDL=  0     # of ELM steps 
   EDIFF  = 0.1E-03   stopping-criterion for ELM
   LREAL  =      T    real-space projection
   NLSPLINE    = F    spline interpolate recip. space projectors
   LCOMPAT=      F    compatible to vasp.4.4
   GGA_COMPAT  = F    GGA compatible to vasp.4.4-vasp.4.6
   LMAXPAW     = -100 max onsite density
   LMAXMIX     =    2 max onsite mixed and CHGCAR
   VOSKOWN=      0    Vosko Wilk Nusair interpolation
   ROPT   =   -0.00050  -0.00050  -0.00050  -0.00050
   ROPT   =   -0.00050
 Ionic relaxation
   EDIFFG = 0.1E-02   stopping-criterion for IOM
   NSW    =      0    number of steps for IOM
   NBLOCK =      1;   KBLOCK =      1    inner block; outer block 
   IBRION =     -1    ionic relax: 0-MD 1-quasi-New 2-CG
   NFREE  =      0    steps in history (QN), initial steepest desc. (CG)
   ISIF   =      2    stress and relaxation
   IWAVPR =     10    prediction:  0-non 1-charg 2-wave 3-comb
   ISYM   =      0    0-nonsym 1-usesym 2-fastsym
   LCORR  =      T    Harris-Foulkes like correction to forces

   POTIM  = 0.5000    time-step for ionic-motion
   TEIN   =    0.0    initial temperature
   TEBEG  =    0.0;   TEEND  =   0.0 temperature during run
   SMASS  =  -3.00    Nose mass-parameter (am)
   estimated Nose-frequenzy (Omega)   =  0.10E-29 period in steps = 0.13E+47 mass=  -0.745E-26a.u.
   SCALEE = 1.0000    scale energy and forces
   NPACO  =    256;   APACO  = 16.0  distance and # of slots for P.C.
   PSTRESS=    0.0 pullay stress

  Mass of Ions in am
   POMASS =   1.00 12.01 14.00126.90207.20
  Ionic Valenz
   ZVAL   =   1.00  4.00  5.00  7.00  4.00
  Atomic Wigner-Seitz radii
   RWIGS  =  -1.00 -1.00 -1.00 -1.00 -1.00
  virtual crystal weights 
   VCA    =   1.00  1.00  1.00  1.00  1.00
   NELECT =    1134.0000    total number of electrons
   NUPDOWN=      -1.0000    fix difference up-down

 DOS related values:
   EMIN   =  10.00;   EMAX   =-10.00  energy-range for DOS
   EFERMI =   0.00
   ISMEAR =     0;   SIGMA  =   0.05  broadening in eV -4-tet -1-fermi 0-gaus

 Electronic relaxation 2 (details)
   IALGO  =     38    algorithm
   LDIAG  =      T    sub-space diagonalisation (order eigenvalues)
   LSUBROT=      F    optimize rotation matrix (better conditioning)
   TURBO    =      0    0=normal 1=particle mesh
   IRESTART =      0    0=no restart 2=restart with 2 vectors
   NREBOOT  =      0    no. of reboots
   NMIN     =      0    reboot dimension
   EREF     =   0.00    reference energy to select bands
   IMIX   =      4    mixing-type and parameters
     AMIX     =   0.40;   BMIX     =  0.01
     AMIX_MAG =   1.60;   BMIX_MAG =  0.01
     AMIN     =   0.01
     WC   =   100.;   INIMIX=   1;  MIXPRE=   1;  MAXMIX= -45

 Intra band minimization:
   WEIMIN = 0.0000     energy-eigenvalue tresh-hold
   EBREAK =  0.34E-07  absolut break condition
   DEPER  =   0.30     relativ break condition  

   TIME   =   0.40     timestep for ELM

  volume/ion in A,a.u.               =      62.72       423.28
  Fermi-wavevector in a.u.,A,eV,Ry     =   0.624944  1.180972  5.313816  0.390554
  Thomas-Fermi vector in A             =   1.685677
 
 Write flags
   LWAVE        =      F    write WAVECAR
   LDOWNSAMPLE  =      F    k-point downsampling of WAVECAR
   LCHARG       =      T    write CHGCAR
   LVTOT        =      T    write LOCPOT, total local potential
   LVHAR        =      F    write LOCPOT, Hartree potential only
   LELF         =      F    write electronic localiz. function (ELF)
   LORBIT       =      0    0 simple, 1 ext, 2 COOP (PROOUT), +10 PAW based schemes


 Dipole corrections
   LMONO  =      F    monopole corrections only (constant potential shift)
   LDIPOL =      T    correct potential (dipole corrections)
   IDIPOL =      3    1-x, 2-y, 3-z, 4-all directions 
   EPSILON=  1.0000000 bulk dielectric constant

 Exchange correlation treatment:
   GGA     =    --    GGA type
   LEXCH   =     8    internal setting for exchange type
   VOSKOWN=      0    Vosko Wilk Nusair interpolation
   LHFCALC =     F    Hartree Fock is set to
   LHFONE  =     F    Hartree Fock one center treatment
   AEXX    =    0.0000 exact exchange contribution

 Linear response parameters
   LEPSILON=     F    determine dielectric tensor
   LRPA    =     F    only Hartree local field effects (RPA)
   LNABLA  =     F    use nabla operator in PAW spheres
   LVEL    =     F    velocity operator in full k-point grid
   LINTERFAST=   F  fast interpolation
   KINTER  =     0    interpolate to denser k-point grid
   CSHIFT  =0.1000    complex shift for real part using Kramers Kronig
   OMEGAMAX=  -1.0    maximum frequency
   DEG_THRESHOLD= 0.2000000E-02 threshold for treating states as degnerate
   RTIME   =   -0.100 relaxation time in fs
  (WPLASMAI=    0.000 imaginary part of plasma frequency in eV, 0.658/RTIME)
   DFIELD  = 0.0000000 0.0000000 0.0000000 field for delta impulse in time
 
 Orbital magnetization related:
   ORBITALMAG=     F  switch on orbital magnetization
   LCHIMAG   =     F  perturbation theory with respect to B field
   DQ        =  0.001000  dq finite difference perturbation B field
   LLRAUG    =     F  two centre corrections for induced B field



--------------------------------------------------------------------------------------------------------


 Static calculation
 charge density and potential will be updated during run
 non-spin polarized calculation
 Variant of blocked Davidson
 Davidson routine will perform the subspace rotation
 perform sub-space diagonalisation
    after iterative eigenvector-optimisation
 modified Broyden-mixing scheme, WC =      100.0
 initial mixing is a Kerker type mixing with AMIX =  0.4000 and BMIX =      0.0100
 Hartree-type preconditioning will be used
 using additional bands           165
 real space projection scheme for non local part
[...]
     13.54561      0.00000     45.35368         0.002407     -0.008684      0.011848
     13.54315      9.03140     45.35368        -0.005593      0.007204     -0.004931
     12.98265      7.94139     33.84204        -0.025058      0.026258      0.034298
     13.30231      8.91860     32.42054        -0.058811      0.059998     -0.116594
     11.89469      9.99585     34.95075         0.079996      0.049405     -0.074759
     12.80737     11.51777     34.81255        -0.091921     -0.151911     -0.075898
     15.31459      9.11672     35.62553         0.143604     -0.073077     -0.062404
     14.23439     10.35602     36.23088        -0.089146      0.102183      0.036769
     15.67295     10.14447     33.12117         0.046866     -0.034180      0.154479
     14.35311     11.28284     32.81005         0.091586     -0.010184     -0.014553
     15.67765      8.35860     32.40376        -0.039751     -0.044446      0.083337
     15.58901      7.63450     34.00795        -0.011354      0.009044     -0.026545
     15.71180      5.87105     32.37971         0.040390      0.102150      0.103384
     14.13353      5.81308     33.13772        -0.010220      0.031124     -0.032196
     11.47491      9.95667     32.48360         0.126122      0.088839      0.090851
     12.41912     11.47897     32.28826        -0.018746     -0.040949      0.069624
     10.95165     11.42860     33.27902         0.116960      0.003872     -0.085304
     13.60060      8.35433     37.34396        -0.068275      0.050222     -0.055275
     13.62870      7.38011     35.88469        -0.049740     -0.200055     -0.094948
     12.32649      8.56977     36.13034        -0.108724     -0.053784      0.081977
     14.78179     12.43398     34.96682         0.105746      0.063537     -0.026806
     16.28744     12.31318     34.03039        -0.065444      0.071961     -0.095509
     16.04295     11.24196     35.39753         0.073246     -0.052090     -0.004459
     14.79397      6.91131     30.31694        -0.286306     -0.183348      0.301397
     14.12242      5.31177     30.70719         0.044905      0.207601      0.090002
     11.95418      5.64017     32.51590         0.050802      0.018226     -0.005144
     13.15984      8.34196     29.35887        -0.176079     -0.136547      0.196259
      9.69025      6.64984     32.50386        -0.008845     -0.084490      0.041082
     10.86871      9.31583     29.33321         0.033933     -0.192182      0.146479
      9.13619      8.47361     30.92301         0.248069     -0.152029      0.027194
     17.90124      4.38144     34.70006         0.049184      0.020495     -0.718844
      0.64711     13.89891     35.18221         0.193853      0.065201     -0.142220
      8.50730      4.13922     34.89018        -0.132211     -0.718917     -0.295229
      9.06450     13.67131     34.76612         0.097329     -0.216918     -0.117423
      4.29472      9.55719     34.93347         0.108317      0.268951     -0.010378
      4.59722     17.91832     34.70749        -0.454468      0.041324     -0.070161
     13.82884     17.78291     35.16979         0.323360      0.135049      0.012226
      0.15214      4.47178     40.58183         0.491810     -0.608604      0.469494
      0.15495     13.77769     40.80436         0.701493     -0.288093      0.007670
      9.02987      4.43768     40.49774         0.718841     -0.582654      0.216747
      9.02811     13.57148     40.58435         0.358450     -0.381904     -0.177227
      4.56781      8.96030     40.58194         0.231069      0.331410     -0.056765
      4.57456     18.03979     40.41833        -0.246808     -0.250817      0.121959
     13.50899      9.35425     40.82586        -0.278444      0.478444     -0.360843
     13.56977     18.00078     40.51701        -0.366250     -0.477508     -0.004221
      9.02897      4.51561     46.44552         0.004096      0.009030      0.027886
      9.02651     13.54701     46.44552         0.025995     -0.010375      0.046223
     18.05937      4.51561     46.44552         0.025911     -0.006072      0.037632
     18.05691     13.54701     46.44552         0.014510      0.005211      0.012350
      4.51521      0.00002     46.44421        -0.004066     -0.004289      0.052936
      4.51275      9.03142     46.44421        -0.007687     -0.006913      0.047878
     13.54561      0.00002     46.44421        -0.007061     -0.009510      0.033106
     13.54315      9.03142     46.44421        -0.005771      0.001642      0.018593
     12.72233      6.91744     30.94032         0.104154      0.116568      0.077698
     11.72721      6.44468     31.81144         0.029995     -0.197182     -0.040559
     12.39194      7.95003     30.04532         0.253839      0.013498     -0.117020
     10.44785      6.99299     31.80081        -0.021035     -0.060539      0.092204
     11.10732      8.49987     30.02879        -0.079600      0.043982     -0.061576
     10.13832      8.02017     30.91703        -0.387344      0.533609     -0.331039
     13.73624      8.57139     33.35750        -0.034590      0.095716     -0.073967
     12.56366     10.57304     34.29762        -0.158673     -0.073445      0.247780
     14.26782      9.43399     35.64485         0.165342      0.072191      0.055361
     14.90141     10.75489     33.60040         0.289047      0.030345     -0.098174
     15.01689      7.78842     33.07885         0.148745     -0.017480     -0.033451
     14.75187      6.40979     32.45145        -0.014262     -0.064096     -0.135548
     11.84983     10.85705     32.99423        -0.233061     -0.030747     -0.115786
     13.39224      8.37466     36.26677         0.079392      0.071341      0.005965
     15.52810     11.73304     34.56775        -0.039007      0.087725      0.043618
     14.13204      6.37179     31.03810         0.179821      0.110269     -0.341929
      0.98076      4.36975     35.33214         0.584732      0.182431      0.149054
      0.78159     12.81294     35.89825        -0.021044     -0.245687      0.046047
      9.74467      3.78260     35.11235         0.204877     -0.025756      0.283576
      8.75440     12.63298     35.50432        -0.191735      0.107347      0.009463
      7.99977      5.30484     35.16840        -0.256022      0.371200      0.020136
      8.70685     14.90606     35.01420        -0.173499     -0.216506      0.239829
     16.73180      4.40551     35.28305        -0.342717     -0.159158     -0.040101
     17.70135     14.74443     35.25381         0.130022     -0.037103     -0.015810
      4.36441      8.31787     35.34640        -0.730712     -0.720650     -0.251110
      3.40034      0.25856     35.05259        -0.082659     -0.495002     -0.308867
     12.53241     17.83185     35.33590        -0.339695     -0.777727     -0.103243
      5.69887      0.48245     35.03394         0.987440     -0.354564     -0.189137
      5.23498     10.45326     35.11424        -0.330774      0.287540     -0.228037
     14.66058      0.68656     35.47482         0.448470     -0.398809     -0.170066
      0.99725      3.58341     41.07488        -0.481706      0.453720     -0.152070
      0.98706     12.83764     41.22317        -0.774742      0.598092     -0.295059
      9.98345      3.71172     41.05365        -0.524608      0.470244     -0.033271
      9.74468     12.73463     41.30989        -0.126735      0.164735     -0.636726
      3.83356      8.01139     41.10099        -0.073413     -0.131117     -0.253532
      3.70766     17.27754     41.05287         0.025702      0.024681     -0.169664
     12.66097      8.49369     41.33175         0.048730      0.151343     -0.051027
     12.78010     17.10640     41.07575         0.083158      0.053353     -0.251960
      8.31740      5.34123     41.10836        -0.251398      0.345597      0.398336
      8.17849     14.45090     41.04004        -0.214569      0.213043      0.228434
     17.30204      5.11844     41.26691        -0.073159      0.195034     -0.238342
     17.05289     14.05228     41.33445         0.324459      0.202589     -0.411970
      5.44621      0.77997     40.97589         0.203790      0.186721      0.428829
      5.26556      9.85621     41.25368        -0.324129     -0.405547     -0.001268
     14.27300      0.84331     41.14835         0.207298      0.345286      0.414089
     14.80397      9.31464     40.98739         0.657111     -0.021126      0.001568
      0.82731      3.68697     47.03596         0.010953     -0.017632     -0.092365
      0.82485     12.71837     47.03596         0.023041     -0.023942     -0.072806
      9.85771      3.68697     47.03596         0.025694     -0.028273     -0.080685
      9.85525     12.71837     47.03596         0.009123     -0.010149     -0.082796
      3.68432      8.20234     47.03465        -0.005933     -0.006028     -0.069867
      3.68186     17.23373     47.03465        -0.006479     -0.004816     -0.062102
     12.71472      8.20234     47.03465        -0.010335     -0.017039     -0.066586
     12.71226     17.23373     47.03465        -0.011752     -0.004708     -0.066583
      8.20068      5.34457     47.03603        -0.017706      0.015855     -0.087597
      8.19822     14.37597     47.03603        -0.027429      0.027713     -0.087374
     17.23108      5.34457     47.03603        -0.033940      0.027253     -0.104416
     17.22862     14.37597     47.03603        -0.021136      0.021682     -0.070379
      5.34365      0.82909     47.03465         0.011439      0.010116     -0.062285
      5.34119      9.86049     47.03465         0.015896      0.016598     -0.072161
     14.37405      0.82909     47.03465         0.017494      0.021582     -0.070028
     14.37159      9.86049     47.03465         0.017859      0.015582     -0.071444
     13.88705      9.81421     34.22604        -0.203667     -0.138107     -0.220322
      9.18540      0.27413     34.44550        -0.038903      0.023266      0.014976
      8.71409      9.18981     34.66185         0.039135     -0.075186      0.052233
     17.97801      0.13043     34.48723         0.058786      0.004475     -0.004313
      0.58320      9.15323     34.67813        -0.120935     -0.032404     -0.029410
      4.50903      4.47622     34.57288        -0.009522      0.013123     -0.000549
      4.32628     13.84620     34.53111         0.079402     -0.016580      0.013503
     13.22476      3.80813     34.74396         0.104052      0.055943      0.037361
     12.66397     14.35778     34.58771        -0.000846     -0.008237     -0.058810
     18.05423     17.91937     40.89797        -0.016716     -0.008217     -0.008113
      0.31356      8.93754     40.96460        -0.036490     -0.018949      0.053585
      9.07475      0.07147     40.88436        -0.028561     -0.010484     -0.011350
      9.11158      8.95057     40.94983        -0.039079     -0.010529     -0.046639
      4.64172      4.38736     40.93743         0.013730      0.010371     -0.109128
      4.52870     13.67848     40.90112         0.032414     -0.036341     -0.020503
     13.48659      4.83661     40.95779         0.010612     -0.026252     -0.057764
     13.49174     13.42978     40.84997         0.002526     -0.007686      0.073334
      2.41593      2.13550     37.95978        -0.017136      0.020317      0.000483
      2.70217     10.97983     38.15425         0.032066      0.027154     -0.051296
     11.55900      2.05839     38.13303         0.032014     -0.018002     -0.007058
     11.31171     11.24577     38.19913         0.025169     -0.024622     -0.162702
      6.55633      7.00981     38.02439         0.005397      0.034400     -0.001979
      6.73722     15.93069     37.87971         0.005683     -0.003868     -0.008188
     16.01196      6.69665     38.17613         0.012307     -0.014871     -0.085176
     15.65407     15.88365     38.00216         0.038574      0.048454     -0.026054
      2.20458      6.59176     38.02821        -0.069815      0.032021     -0.000860
      2.21803     15.83626     37.96941        -0.015160     -0.017767     -0.015288
     10.70131      6.25099     37.68180         0.007671      0.016869     -0.004668
     11.08513     15.63917     38.21003         0.001742      0.002058     -0.002336
      6.93214      2.38372     37.85064         0.000079      0.051071      0.002624
      6.87876     11.42611     38.24177         0.038655      0.010668      0.017327
     15.97478      2.51240     38.25452        -0.003513     -0.021153      0.061648
     16.38027     11.67208     38.49417        -0.129213     -0.048195     -0.322402
      0.00000      0.00000     47.17356        -0.002270      0.006503      0.380479
     -0.00246      9.03140     47.17356        -0.003087     -0.003830      0.480258
      9.03040      0.00000     47.17356         0.002537     -0.000202      0.372435
      9.02794      9.03140     47.17356        -0.001228     -0.000946      0.449270
      4.51398      4.51570     47.17425         0.000252     -0.003002      0.446933
      4.51152     13.54710     47.17425         0.004778      0.001105      0.406694
     13.54438      4.51570     47.17425         0.004824      0.003914      0.419358
     13.54192     13.54710     47.17425        -0.001817     -0.001844      0.386050
      2.45192      2.06295     44.04013        -0.004820     -0.028063     -0.019561
      2.44946     11.09435     44.04013         0.046287     -0.030178      0.022221
     11.48232      2.06295     44.04013         0.049250      0.025371     -0.054639
     11.47986     11.09435     44.04013        -0.039984      0.012067      0.046996
      6.57602      6.96845     44.04013         0.009700      0.006708     -0.058867
      6.57356     15.99985     44.04013         0.030725      0.007956     -0.058164
     15.60642      6.96845     44.04013        -0.008743      0.011745     -0.075973
     15.60396     15.99985     44.04013        -0.060883      0.043071     -0.007434
      2.06108      6.57881     44.04000         0.048625     -0.036083     -0.002747
      2.05862     15.61021     44.04000         0.051540      0.060846     -0.018177
     11.09148      6.57881     44.04000        -0.048816     -0.068553      0.004399
     11.08902     15.61021     44.04000        -0.002625      0.015663     -0.050096
      6.96686      2.45259     44.04007        -0.008235     -0.059150     -0.039769
      6.96440     11.48399     44.04007         0.024386      0.020154     -0.030670
     15.99726      2.45259     44.04007        -0.005501      0.042738     -0.082488
     15.99481     11.48399     44.04007         0.041183      0.037120     -0.095039
      2.43163      2.08322     50.06849         0.003879     -0.015120      0.022156
      2.42917     11.11462     50.06849         0.016086     -0.005088      0.024251
     11.46203      2.08322     50.06849         0.007941     -0.013146      0.022129
     11.45957     11.11462     50.06849         0.013837     -0.005880      0.023581
      6.59631      6.94818     50.06849        -0.011088      0.009214      0.023604
      6.59385     15.97958     50.06849        -0.005153      0.015584      0.022601
     15.62671      6.94818     50.06849        -0.015849      0.003161      0.021073
     15.62425     15.97958     50.06849        -0.009775      0.013807      0.024891
      2.08113      6.59901     50.06905        -0.007873     -0.013674      0.023196
      2.07867     15.63041     50.06905        -0.013172     -0.005707      0.024210
     11.11153      6.59901     50.06905        -0.006098     -0.014283      0.023083
     11.10907     15.63041     50.06905        -0.012833     -0.007047      0.023224
      6.94681      2.43239     50.06905         0.017560      0.002795      0.023672
      6.94435     11.46379     50.06905         0.007460      0.013616      0.023739
     15.97721      2.43239     50.06905         0.011757      0.008863      0.022228
     15.97475     11.46379     50.06905         0.002867      0.016189      0.024190
     18.00456      0.05135     37.80335        -0.006742      0.040258      0.013097
      0.12386      9.14351     37.80039        -0.055145     -0.020712     -0.034217
      9.06779      0.10911     37.75497         0.032851     -0.074171      0.046801
      9.03819      9.05770     37.79829         0.024112      0.015996     -0.094523
      4.52269      4.61069     37.78310         0.059490     -0.168192      0.004194
      4.45302     13.60867     37.73282         0.016965      0.000834     -0.013452
     13.46368      4.63902     37.82836         0.029718     -0.013035      0.005122
     13.37650     13.67832     37.64856        -0.011355     -0.023375      0.072561
      0.00001      0.00001     44.04300        -0.003245     -0.125951      0.134696
     -0.00245      9.03141     44.04300         0.076251      0.022372      0.127657
      9.03041      0.00001     44.04300        -0.019917      0.028218      0.099751
      9.02795      9.03141     44.04300         0.015706      0.036104      0.276484
      4.51397      4.51569     44.04275         0.014001      0.019308      0.159928
      4.51151     13.54709     44.04275        -0.085607      0.018759      0.129169
     13.54437      4.51569     44.04275        -0.051909     -0.038239      0.234829
     13.54191     13.54709     44.04275        -0.026624     -0.006234      0.017169
      0.00000      0.00000     50.44728         0.002782     -0.001040     -0.621659
     -0.00246      9.03140     50.44728         0.003232      0.000721     -0.645716
      9.03040      0.00000     50.44728        -0.003617      0.002004     -0.618108
      9.02794      9.03140     50.44728        -0.002967     -0.000815     -0.640066
      4.51397      4.51570     50.44728        -0.001306      0.009210     -0.639027
      4.51151     13.54710     50.44728        -0.002686     -0.009368     -0.629723
     13.54437      4.51570     50.44728         0.000180      0.009966     -0.627360
     13.54191     13.54710     50.44728         0.003423     -0.008708     -0.626214
 -----------------------------------------------------------------------------------
    total drift:                                0.040872     -0.081013      0.267951


--------------------------------------------------------------------------------------------------------



  FREE ENERGIE OF THE ION-ELECTRON SYSTEM (eV)
  ---------------------------------------------------
  free  energy   TOTEN  =     -1575.42130247 eV

  energy  without entropy=    -1575.42130247  energy(sigma->0) =    -1575.42130247
 


--------------------------------------------------------------------------------------------------------


    POTLOK:  cpu time    0.5008: real time    0.5007


--------------------------------------------------------------------------------------------------------


     LOOP+:  cpu time  305.8286: real time  306.4463
 vacuum level on the upper side and lower side of the slab         2.355         1.551
    4ORBIT:  cpu time    0.0000: real time    0.0000

 total amount of memory used by VASP MPI-rank0  8653587. kBytes
=======================================================================

   base      :      30000. kBytes
   nonlr-proj:      53625. kBytes
   fftplans  :     249280. kBytes
   grid      :     701440. kBytes
   one-center:       2636. kBytes
   wavefun   :    7616606. kBytes
 
  
  
 General timing and accounting informations for this job:
 ========================================================
  
                  Total CPU time used (sec):      517.928
                            User time (sec):      417.535
                          System time (sec):      100.393
                         Elapsed time (sec):      519.563
  
                   Maximum memory used (kb):    10335476.
                   Average memory used (kb):          N/A
  
                          Minor page faults:      3737977
                          Major page faults:           10
                 Voluntary context switches:        11511
