<?xml version="1.0" encoding="ISO-8859-1"?>
<modeling>
 <generator>
  <i name="program" type="string">vasp </i>
  <i name="version" type="string">6.2.1  </i>
  <i name="subversion" type="string">16May21 (build Nov 15 2021 14:57:28) complex                          parallel </i>
  <i name="platform" type="string">LinuxPGI </i>
  <i name="date" type="string">2023 07 30 </i>
  <i name="time" type="string">20:19:19 </i>
 </generator>
 <incar>
  <i type="string" name="SYSTEM">PSC</i>
  <i type="int" name="ISTART">     1</i>
  <i type="string" name="PREC">Normal</i>
  <i name="BMIX">      0.01000000</i>
  <i name="AMIN">      0.01000000</i>
  <i type="int" name="ICHARG">     1</i>
  <i type="int" name="NELM">   600</i>
  <i type="int" name="ISYM">     0</i>
  <i name="ENCUT">    500.00000000</i>
  <i type="string" name="LREAL">Auto</i>
  <i type="int" name="ISMEAR">     0</i>
  <i name="SIGMA">      0.05000000</i>
  <i type="logical" name="LWAVE"> F  </i>
  <i type="logical" name="LVTOT"> T  </i>
  <i type="logical" name="GGA_COMPAT"> F  </i>
  <i type="logical" name="LDIPOL"> T  </i>
  <i type="int" name="IDIPOL">     3</i>
  <i type="int" name="IVDW">    12</i>
 </incar>
 <primitive_cell>
  <structure name="primitive_cell" >
   <crystal>
    <varray name="basis" >
     <v>      18.06080055       0.00000000       0.00000000 </v>
     <v>      -0.00491865      18.06279945       0.00000000 </v>
     <v>       0.00000000       0.00000000      62.48749924 </v>
    </varray>
    <i name="volume">  20385.21054034 </i>
    <varray name="rec_basis" >
     <v>       0.05536853       0.00001508      -0.00000000 </v>
     <v>       0.00000000       0.05536240       0.00000000 </v>
     <v>       0.00000000      -0.00000000       0.01600320 </v>
    </varray>
   </crystal>
   <varray name="positions" >
    <v>       0.47150190       0.33125337       0.57158722 </v>
    <v>       0.45106019       0.83835851       0.57351449 </v>
    <v>       0.92138837       0.24145841       0.58093803 </v>
    <v>       0.94221190       0.81315764       0.57630045 </v>
    <v>       0.31756560       0.07079152       0.57081571 </v>
    <v>       0.33526228       0.56759996       0.57096619 </v>
    <v>       0.79507333       0.08623625       0.57436055 </v>
    <v>       0.10446528       0.24744010       0.55764053 </v>
    <v>       0.08811506       0.67546414       0.57219062 </v>
    <v>       0.55494668       0.15587690       0.55903949 </v>
    <v>       0.49398724       0.64615492       0.56291899 </v>
    <v>       0.36722424       0.00611229       0.55631910 </v>
    <v>       0.28110787       0.63306732       0.55731301 </v>
    <v>       0.86742986       0.03073408       0.56467044 </v>
    <v>       0.05726937       0.24318250       0.58174117 </v>
    <v>       0.00760418       0.69428441       0.58652625 </v>
    <v>       0.57359771       0.24185786       0.57108346 </v>
    <v>       0.45362452       0.70373942       0.58180448 </v>
    <v>       0.28388952       0.43999327       0.57465046 </v>
    <v>       0.18058250       0.05694290       0.57131904 </v>
    <v>       0.66797029       0.02925625       0.57314064 </v>
    <v>       0.38798539       0.30231603       0.56020855 </v>
    <v>       0.50184300       0.86860737       0.55174512 </v>
    <v>       0.87829884       0.23491810       0.55634406 </v>
    <v>       0.98569391       0.86736050       0.55696266 </v>
    <v>       0.19830965       0.42472470       0.56300470 </v>
    <v>       0.14111665       0.98698763       0.55623607 </v>
    <v>       0.66449180       0.93946829       0.56273639 </v>
    <v>       0.43495723       0.18820431       0.55083100 </v>
    <v>       0.53571562       0.74643982       0.54226196 </v>
    <v>       0.99343624       0.24248657       0.53766668 </v>
    <v>       0.08132183       0.78072676       0.55172449 </v>
    <v>       0.18751563       0.54563892       0.55070927 </v>
    <v>       0.25935317       0.94192379       0.54576687 </v>
    <v>       0.78973928       0.93423222       0.55590684 </v>
    <v>       0.46618872       0.30940148       0.67365226 </v>
    <v>       0.44154894       0.80825738       0.67261885 </v>
    <v>       0.94952872       0.27680481       0.67640299 </v>
    <v>       0.92310054       0.74835379       0.67364646 </v>
    <v>       0.30790851       0.05077804       0.67191912 </v>
    <v>       0.29366644       0.54821301       0.67648583 </v>
    <v>       0.79072231       0.05303404       0.67476686 </v>
    <v>       0.84512371       0.47561438       0.66489507 </v>
    <v>       0.09186387       0.17383863       0.64728633 </v>
    <v>       0.10431866       0.70477283       0.65230936 </v>
    <v>       0.57980843       0.16748136       0.64789741 </v>
    <v>       0.57540928       0.66992529       0.65339509 </v>
    <v>       0.18485428       0.40875525       0.64754218 </v>
    <v>       0.17099245       0.92381018       0.64808312 </v>
    <v>       0.64567368       0.47926940       0.66001537 </v>
    <v>       0.67972304       0.91098401       0.64759925 </v>
    <v>       0.05813394       0.18346122       0.67302475 </v>
    <v>       0.04359818       0.67667199       0.67219219 </v>
    <v>       0.56712367       0.21020850       0.67273166 </v>
    <v>       0.53708354       0.70237935       0.67724734 </v>
    <v>       0.20378303       0.43636266       0.67370073 </v>
    <v>       0.20070742       0.95266991       0.67325526 </v>
    <v>       0.71659285       0.42670256       0.67064830 </v>
    <v>       0.69888090       0.94141403       0.67341802 </v>
    <v>       0.42044667       0.32297368       0.64972230 </v>
    <v>       0.42526196       0.83271650       0.64618112 </v>
    <v>       0.92558114       0.32042767       0.65230643 </v>
    <v>       0.91296636       0.81793789       0.65471097 </v>
    <v>       0.33571567       0.07336629       0.64621519 </v>
    <v>       0.32034985       0.58440843       0.65190651 </v>
    <v>       0.82271386       0.08230890       0.65000513 </v>
    <v>       0.85391331       0.55384035       0.64867271 </v>
    <v>       0.01359853       0.25863984       0.63243075 </v>
    <v>       0.02730876       0.79695023       0.63951280 </v>
    <v>       0.48909850       0.23599166       0.63127324 </v>
    <v>       0.50737514       0.74907116       0.63205464 </v>
    <v>       0.25421885       0.99653279       0.62935360 </v>
    <v>       0.25501052       0.49952857       0.63195001 </v>
    <v>       0.75658231       0.99555654       0.63097282 </v>
    <v>       0.72593117       0.56326891       0.64334505 </v>
    <v>       0.44874502       0.30128397       0.76888902 </v>
    <v>       0.44874501       0.80128391       0.76888902 </v>
    <v>       0.94874497       0.30128397       0.76888902 </v>
    <v>       0.94874501       0.80128391       0.76888902 </v>
    <v>       0.30127600       0.05129450       0.76887296 </v>
    <v>       0.30127601       0.55129450       0.76887296 </v>
    <v>       0.80127594       0.05129450       0.76887296 </v>
    <v>       0.80127598       0.55129450       0.76887296 </v>
    <v>       0.07877100       0.17118050       0.74344197 </v>
    <v>       0.07877101       0.67118045       0.74344197 </v>
    <v>       0.57877100       0.17118050       0.74344197 </v>
    <v>       0.57877099       0.67118045       0.74344197 </v>
    <v>       0.17119950       0.42117448       0.74342103 </v>
    <v>       0.17119950       0.92117451       0.74342103 </v>
    <v>       0.67119951       0.42117448       0.74342103 </v>
    <v>       0.67119950       0.92117451       0.74342103 </v>
    <v>       0.05125600       0.19871499       0.76888902 </v>
    <v>       0.05125600       0.69871493       0.76888902 </v>
    <v>       0.55125603       0.19871499       0.76888902 </v>
    <v>       0.55125602       0.69871493       0.76888902 </v>
    <v>       0.19872349       0.44870397       0.76887205 </v>
    <v>       0.19872349       0.94870397       0.76887205 </v>
    <v>       0.69872352       0.44870397       0.76887205 </v>
    <v>       0.69872351       0.94870397       0.76887205 </v>
    <v>       0.42123152       0.32881747       0.74344197 </v>
    <v>       0.42123151       0.82881744       0.74344197 </v>
    <v>       0.92123147       0.32881747       0.74344197 </v>
    <v>       0.92123151       0.82881744       0.74344197 </v>
    <v>       0.32880050       0.07882500       0.74342103 </v>
    <v>       0.32880049       0.57882496       0.74342103 </v>
    <v>       0.82880048       0.07882500       0.74342103 </v>
    <v>       0.82880052       0.57882496       0.74342103 </v>
    <v>       0.00000350       0.25000148       0.72582199 </v>
    <v>       0.00000350       0.75000145       0.72582199 </v>
    <v>       0.50000351       0.25000148       0.72582199 </v>
    <v>       0.50000350       0.75000145       0.72582199 </v>
    <v>       0.25000050       0.00000000       0.72580398 </v>
    <v>       0.25000052       0.50000000       0.72580398 </v>
    <v>       0.75000050       0.00000000       0.72580398 </v>
    <v>       0.75000049       0.50000000       0.72580398 </v>
    <v>       0.71895014       0.43965463       0.54158092 </v>
    <v>       0.73666394       0.49375535       0.51883235 </v>
    <v>       0.65874231       0.55339421       0.55932385 </v>
    <v>       0.70929893       0.63765121       0.55711222 </v>
    <v>       0.84808368       0.50472355       0.57012258 </v>
    <v>       0.78829348       0.57333427       0.57981012 </v>
    <v>       0.86794143       0.56162236       0.53004468 </v>
    <v>       0.79488086       0.62464503       0.52506584 </v>
    <v>       0.86817440       0.46275207       0.51856386 </v>
    <v>       0.86325571       0.42266454       0.54423605 </v>
    <v>       0.87002805       0.32503562       0.51817908 </v>
    <v>       0.78264032       0.32182629       0.53030956 </v>
    <v>       0.63549876       0.55122528       0.51984158 </v>
    <v>       0.68780155       0.63550314       0.51671547 </v>
    <v>       0.60654918       0.63271479       0.53257088 </v>
    <v>       0.75317133       0.46251590       0.59762283 </v>
    <v>       0.75471249       0.40858049       0.57426995 </v>
    <v>       0.68262904       0.47444332       0.57820104 </v>
    <v>       0.81863325       0.68837513       0.55958104 </v>
    <v>       0.90199724       0.68168724       0.54459519 </v>
    <v>       0.88844427       0.62238191       0.56647378 </v>
    <v>       0.81922465       0.38262672       0.48516805 </v>
    <v>       0.78201755       0.29407214       0.49141326 </v>
    <v>       0.66197041       0.31225332       0.52035847 </v>
    <v>       0.72876671       0.46183112       0.46983582 </v>
    <v>       0.53663525       0.36815091       0.52016575 </v>
    <v>       0.60192473       0.51574697       0.46942528 </v>
    <v>       0.50598531       0.46911952       0.49486711 </v>
    <v>       0.99123150       0.24256680       0.55531200 </v>
    <v>       0.03603930       0.76947694       0.56302796 </v>
    <v>       0.47109919       0.22915708       0.55835454 </v>
    <v>       0.50209391       0.75687666       0.55636928 </v>
    <v>       0.23793663       0.52910875       0.55904730 </v>
    <v>       0.25481142       0.99200103       0.55543092 </v>
    <v>       0.76595061       0.98450478       0.56282919 </v>
    <v>       0.00849131       0.24756822       0.64943922 </v>
    <v>       0.00878682       0.76276619       0.65300030 </v>
    <v>       0.50003766       0.24568083       0.64809349 </v>
    <v>       0.50007768       0.75134959       0.64947957 </v>
    <v>       0.25304830       0.49606351       0.64944087 </v>
    <v>       0.25355864       0.99872597       0.64682273 </v>
    <v>       0.74811372       0.51787366       0.65334442 </v>
    <v>       0.75160949       0.99656636       0.64840184 </v>
    <v>       0.49998898       0.24999498       0.74327702 </v>
    <v>       0.49998903       0.74999496       0.74327702 </v>
    <v>       0.99998898       0.24999498       0.74327702 </v>
    <v>       0.99998903       0.74999496       0.74327702 </v>
    <v>       0.25000050       0.00000100       0.74325596 </v>
    <v>       0.25000052       0.50000100       0.74325596 </v>
    <v>       0.75000050       0.00000100       0.74325596 </v>
    <v>       0.75000049       0.50000100       0.74325596 </v>
    <v>       0.70452092       0.38296624       0.49514408 </v>
    <v>       0.64941583       0.35679312       0.50908482 </v>
    <v>       0.68624312       0.44013276       0.48082127 </v>
    <v>       0.57858735       0.38714884       0.50891475 </v>
    <v>       0.61512409       0.47057325       0.48055678 </v>
    <v>       0.56146497       0.44401564       0.49477151 </v>
    <v>       0.76068464       0.47453250       0.53382680 </v>
    <v>       0.69579064       0.58534881       0.54887162 </v>
    <v>       0.79013034       0.52228834       0.57043172 </v>
    <v>       0.82523140       0.59541643       0.53771399 </v>
    <v>       0.83158076       0.43118540       0.52936742 </v>
    <v>       0.81688608       0.35486157       0.51932702 </v>
    <v>       0.65627147       0.60107265       0.52801332 </v>
    <v>       0.74163469       0.46364118       0.58038439 </v>
    <v>       0.85994510       0.64956919       0.55319457 </v>
    <v>       0.78256637       0.35275740       0.49670900 </v>
    <v>       0.05436916       0.24191995       0.56542730 </v>
    <v>       0.04346854       0.70935530       0.57448697 </v>
    <v>       0.53960525       0.20941363       0.56191006 </v>
    <v>       0.48490886       0.69939216       0.56818280 </v>
    <v>       0.44301543       0.29368881       0.56280697 </v>
    <v>       0.48231051       0.82523506       0.56033925 </v>
    <v>       0.92648151       0.24389981       0.56464174 </v>
    <v>       0.98031980       0.81628712       0.56417388 </v>
    <v>       0.24177619       0.46049739       0.56565550 </v>
    <v>       0.18827558       0.01431475       0.56095357 </v>
    <v>       0.69417000       0.98721390       0.56548756 </v>
    <v>       0.31554519       0.02670953       0.56065523 </v>
    <v>       0.29001085       0.57871736       0.56194028 </v>
    <v>       0.81174496       0.03800958       0.56771072 </v>
    <v>       0.05527002       0.19838640       0.65732959 </v>
    <v>       0.05484554       0.71072255       0.65970269 </v>
    <v>       0.55282476       0.20548961       0.65698987 </v>
    <v>       0.53974043       0.70501960       0.66109048 </v>
    <v>       0.21237943       0.44352958       0.65774746 </v>
    <v>       0.20554817       0.95652610       0.65697735 </v>
    <v>       0.70114715       0.47023118       0.66144028 </v>
    <v>       0.70787309       0.94705154       0.65734345 </v>
    <v>       0.46060280       0.29570357       0.65786528 </v>
    <v>       0.45304863       0.80003683       0.65677199 </v>
    <v>       0.95806544       0.28336934       0.66040266 </v>
    <v>       0.94440553       0.77796781       0.66148350 </v>
    <v>       0.30156067       0.04318093       0.65574541 </v>
    <v>       0.29169504       0.54566347       0.66019095 </v>
    <v>       0.79028780       0.04668754       0.65850531 </v>
    <v>       0.81981469       0.51568071       0.65592947 </v>
    <v>       0.04586250       0.20411950       0.75272599 </v>
    <v>       0.04586250       0.70411946       0.75272599 </v>
    <v>       0.54586251       0.20411950       0.75272599 </v>
    <v>       0.54586250       0.70411946       0.75272599 </v>
    <v>       0.20411900       0.45410100       0.75270499 </v>
    <v>       0.20411899       0.95410095       0.75270499 </v>
    <v>       0.70411898       0.45410100       0.75270499 </v>
    <v>       0.70411896       0.95410095       0.75270499 </v>
    <v>       0.45414002       0.29588849       0.75272697 </v>
    <v>       0.45414001       0.79588852       0.75272697 </v>
    <v>       0.95414002       0.29588849       0.75272697 </v>
    <v>       0.95414006       0.79588852       0.75272697 </v>
    <v>       0.29588249       0.04590050       0.75270499 </v>
    <v>       0.29588248       0.54590053       0.75270499 </v>
    <v>       0.79588244       0.04590050       0.75270499 </v>
    <v>       0.79588248       0.54590053       0.75270499 </v>
    <v>       0.76905367       0.54333836       0.54772613 </v>
    <v>       0.50858645       0.01517677       0.55123818 </v>
    <v>       0.48262499       0.50877007       0.55470061 </v>
    <v>       0.99541787       0.00722080       0.55190604 </v>
    <v>       0.03242908       0.50674475       0.55496116 </v>
    <v>       0.24972590       0.24781452       0.55327668 </v>
    <v>       0.23974859       0.76655902       0.55260833 </v>
    <v>       0.73229322       0.21082740       0.55601453 </v>
    <v>       0.70140184       0.79488114       0.55351403 </v>
    <v>       0.99990633       0.99205929       0.65449840 </v>
    <v>       0.01749626       0.49480349       0.65556471 </v>
    <v>       0.50245660       0.00395650       0.65428064 </v>
    <v>       0.50462996       0.49552492       0.65532840 </v>
    <v>       0.25707138       0.24289491       0.65512987 </v>
    <v>       0.25095348       0.75727339       0.65454883 </v>
    <v>       0.74680552       0.26776661       0.65545575 </v>
    <v>       0.74722022       0.74350506       0.65373024 </v>
    <v>       0.13379875       0.11822660       0.60747795 </v>
    <v>       0.14978084       0.60786951       0.61059020 </v>
    <v>       0.64003578       0.11395720       0.61025060 </v>
    <v>       0.62648256       0.62259262       0.61130843 </v>
    <v>       0.36311985       0.38807985       0.60851197 </v>
    <v>       0.37326997       0.88196118       0.60619663 </v>
    <v>       0.88665984       0.37074254       0.61094025 </v>
    <v>       0.86698261       0.87935730       0.60815612 </v>
    <v>       0.12216356       0.36493564       0.60857308 </v>
    <v>       0.12304800       0.87673326       0.60763209 </v>
    <v>       0.59260981       0.34606999       0.60302937 </v>
    <v>       0.61400331       0.86582182       0.61148278 </v>
    <v>       0.38385842       0.13196864       0.60573132 </v>
    <v>       0.38103889       0.63257699       0.61199075 </v>
    <v>       0.88453783       0.13909272       0.61219483 </v>
    <v>       0.90712726       0.64619430       0.61602989 </v>
    <v>       0.00000000       0.00000000       0.75492797 </v>
    <v>       0.00000000       0.50000000       0.75492797 </v>
    <v>       0.50000000       0.00000000       0.75492797 </v>
    <v>       0.49999999       0.50000000       0.75492797 </v>
    <v>       0.25000050       0.25000000       0.75493902 </v>
    <v>       0.25000051       0.74999997       0.75493902 </v>
    <v>       0.75000047       0.25000000       0.75493902 </v>
    <v>       0.75000046       0.74999997       0.75493902 </v>
    <v>       0.13579050       0.11421000       0.70478299 </v>
    <v>       0.13579050       0.61420998       0.70478299 </v>
    <v>       0.63579045       0.11421000       0.70478299 </v>
    <v>       0.63579049       0.61420998       0.70478299 </v>
    <v>       0.36420952       0.38578999       0.70478299 </v>
    <v>       0.36420950       0.88578996       0.70478299 </v>
    <v>       0.86420954       0.38578999       0.70478299 </v>
    <v>       0.86420953       0.88578996       0.70478299 </v>
    <v>       0.11421799       0.36421899       0.70478098 </v>
    <v>       0.11421799       0.86421899       0.70478098 </v>
    <v>       0.61421800       0.36421899       0.70478098 </v>
    <v>       0.61421799       0.86421899       0.70478098 </v>
    <v>       0.38578201       0.13578149       0.70478202 </v>
    <v>       0.38578200       0.63578149       0.70478202 </v>
    <v>       0.88578199       0.13578149       0.70478202 </v>
    <v>       0.88578203       0.63578149       0.70478202 </v>
    <v>       0.13466700       0.11533200       0.80125603 </v>
    <v>       0.13466699       0.61533199       0.80125603 </v>
    <v>       0.63466699       0.11533200       0.80125603 </v>
    <v>       0.63466698       0.61533199       0.80125603 </v>
    <v>       0.36533300       0.38466799       0.80125603 </v>
    <v>       0.36533299       0.88466796       0.80125603 </v>
    <v>       0.86533295       0.38466799       0.80125603 </v>
    <v>       0.86533294       0.88466796       0.80125603 </v>
    <v>       0.11532850       0.36533700       0.80126500 </v>
    <v>       0.11532850       0.86533698       0.80126500 </v>
    <v>       0.61532850       0.36533700       0.80126500 </v>
    <v>       0.61532849       0.86533698       0.80126500 </v>
    <v>       0.38467151       0.13466300       0.80126500 </v>
    <v>       0.38467150       0.63466297       0.80126500 </v>
    <v>       0.88467149       0.13466300       0.80126500 </v>
    <v>       0.88467153       0.63466297       0.80126500 </v>
    <v>       0.99688699       0.00284275       0.60497464 </v>
    <v>       0.00699590       0.50620663       0.60492721 </v>
    <v>       0.50207197       0.00604073       0.60420044 </v>
    <v>       0.50056787       0.50145590       0.60489369 </v>
    <v>       0.25048418       0.25525886       0.60465048 </v>
    <v>       0.24676221       0.75340880       0.60384587 </v>
    <v>       0.74553404       0.25682740       0.60537481 </v>
    <v>       0.74084366       0.75726488       0.60249752 </v>
    <v>       0.00000050       0.00000050       0.70482896 </v>
    <v>       0.00000050       0.50000048       0.70482896 </v>
    <v>       0.50000048       0.00000050       0.70482896 </v>
    <v>       0.50000046       0.50000048       0.70482896 </v>
    <v>       0.24999999       0.24999947       0.70482499 </v>
    <v>       0.25000001       0.74999950       0.70482499 </v>
    <v>       0.74999999       0.24999947       0.70482499 </v>
    <v>       0.74999998       0.74999950       0.70482499 </v>
    <v>       0.00000000       0.00000000       0.80731797 </v>
    <v>       0.00000000       0.50000000       0.80731797 </v>
    <v>       0.50000000       0.00000000       0.80731797 </v>
    <v>       0.49999999       0.50000000       0.80731797 </v>
    <v>       0.24999999       0.25000000       0.80731797 </v>
    <v>       0.25000001       0.74999997       0.80731797 </v>
    <v>       0.74999999       0.25000000       0.80731797 </v>
    <v>       0.74999998       0.74999997       0.80731797 </v>
   </varray>
  </structure>
  <varray name="primitive_index" >
   <v type="int" >        1 </v>
   <v type="int" >        2 </v>
   <v type="int" >        3 </v>
   <v type="int" >        4 </v>
   <v type="int" >        5 </v>
   <v type="int" >        6 </v>
   <v type="int" >        7 </v>
   <v type="int" >        8 </v>
   <v type="int" >        9 </v>
   <v type="int" >       10 </v>
   <v type="int" >       11 </v>
   <v type="int" >       12 </v>
   <v type="int" >       13 </v>
   <v type="int" >       14 </v>
   <v type="int" >       15 </v>
   <v type="int" >       16 </v>
   <v type="int" >       17 </v>
   <v type="int" >       18 </v>
   <v type="int" >       19 </v>
   <v type="int" >       20 </v>
   <v type="int" >       21 </v>
   <v type="int" >       22 </v>
   <v type="int" >       23 </v>
   <v type="int" >       24 </v>
   <v type="int" >       25 </v>
   <v type="int" >       26 </v>
   <v type="int" >       27 </v>
   <v type="int" >       28 </v>
   <v type="int" >       29 </v>
   <v type="int" >       30 </v>
   <v type="int" >       31 </v>
   <v type="int" >       32 </v>
   <v type="int" >       33 </v>
   <v type="int" >       34 </v>
   <v type="int" >       35 </v>
   <v type="int" >       36 </v>
   <v type="int" >       37 </v>
   <v type="int" >       38 </v>
   <v type="int" >       39 </v>
   <v type="int" >       40 </v>
   <v type="int" >       41 </v>
   <v type="int" >       42 </v>
   <v type="int" >       43 </v>
   <v type="int" >       44 </v>
   <v type="int" >       45 </v>
   <v type="int" >       46 </v>
   <v type="int" >       47 </v>
   <v type="int" >       48 </v>
   <v type="int" >       49 </v>
   <v type="int" >       50 </v>
   <v type="int" >       51 </v>
   <v type="int" >       52 </v>
   <v type="int" >       53 </v>
   <v type="int" >       54 </v>
   <v type="int" >       55 </v>
   <v type="int" >       56 </v>
   <v type="int" >       57 </v>
   <v type="int" >       58 </v>
   <v type="int" >       59 </v>
   <v type="int" >       60 </v>
   <v type="int" >       61 </v>
   <v type="int" >       62 </v>
   <v type="int" >       63 </v>
   <v type="int" >       64 </v>
   <v type="int" >       65 </v>
   <v type="int" >       66 </v>
   <v type="int" >       67 </v>
   <v type="int" >       68 </v>
   <v type="int" >       69 </v>
   <v type="int" >       70 </v>
   <v type="int" >       71 </v>
   <v type="int" >       72 </v>
   <v type="int" >       73 </v>
   <v type="int" >       74 </v>
   <v type="int" >       75 </v>
   <v type="int" >       76 </v>
   <v type="int" >       77 </v>
   <v type="int" >       78 </v>
   <v type="int" >       79 </v>
   <v type="int" >       80 </v>
   <v type="int" >       81 </v>
   <v type="int" >       82 </v>
   <v type="int" >       83 </v>
   <v type="int" >       84 </v>
   <v type="int" >       85 </v>
   <v type="int" >       86 </v>
   <v type="int" >       87 </v>
   <v type="int" >       88 </v>
   <v type="int" >       89 </v>
   <v type="int" >       90 </v>
   <v type="int" >       91 </v>
   <v type="int" >       92 </v>
   <v type="int" >       93 </v>
   <v type="int" >       94 </v>
   <v type="int" >       95 </v>
   <v type="int" >       96 </v>
   <v type="int" >       97 </v>
   <v type="int" >       98 </v>
   <v type="int" >       99 </v>
   <v type="int" >      100 </v>
   <v type="int" >      101 </v>
   <v type="int" >      102 </v>
   <v type="int" >      103 </v>
   <v type="int" >      104 </v>
   <v type="int" >      105 </v>
   <v type="int" >      106 </v>
   <v type="int" >      107 </v>
   <v type="int" >      108 </v>
   <v type="int" >      109 </v>
   <v type="int" >      110 </v>
   <v type="int" >      111 </v>
   <v type="int" >      112 </v>
   <v type="int" >      113 </v>
   <v type="int" >      114 </v>
   <v type="int" >      115 </v>
   <v type="int" >      116 </v>
   <v type="int" >      117 </v>
   <v type="int" >      118 </v>
   <v type="int" >      119 </v>
   <v type="int" >      120 </v>
   <v type="int" >      121 </v>
   <v type="int" >      122 </v>
   <v type="int" >      123 </v>
   <v type="int" >      124 </v>
   <v type="int" >      125 </v>
   <v type="int" >      126 </v>
   <v type="int" >      127 </v>
   <v type="int" >      128 </v>
   <v type="int" >      129 </v>
   <v type="int" >      130 </v>
   <v type="int" >      131 </v>
   <v type="int" >      132 </v>
   <v type="int" >      133 </v>
   <v type="int" >      134 </v>
   <v type="int" >      135 </v>
   <v type="int" >      136 </v>
   <v type="int" >      137 </v>
   <v type="int" >      138 </v>
   <v type="int" >      139 </v>
   <v type="int" >      140 </v>
   <v type="int" >      141 </v>
   <v type="int" >      142 </v>
   <v type="int" >      143 </v>
   <v type="int" >      144 </v>
   <v type="int" >      145 </v>
   <v type="int" >      146 </v>
   <v type="int" >      147 </v>
   <v type="int" >      148 </v>
   <v type="int" >      149 </v>
   <v type="int" >      150 </v>
   <v type="int" >      151 </v>
   <v type="int" >      152 </v>
   <v type="int" >      153 </v>
   <v type="int" >      154 </v>
   <v type="int" >      155 </v>
   <v type="int" >      156 </v>
   <v type="int" >      157 </v>
   <v type="int" >      158 </v>
   <v type="int" >      159 </v>
   <v type="int" >      160 </v>
   <v type="int" >      161 </v>
   <v type="int" >      162 </v>
   <v type="int" >      163 </v>
   <v type="int" >      164 </v>
   <v type="int" >      165 </v>
   <v type="int" >      166 </v>
   <v type="int" >      167 </v>
   <v type="int" >      168 </v>
   <v type="int" >      169 </v>
   <v type="int" >      170 </v>
   <v type="int" >      171 </v>
   <v type="int" >      172 </v>
   <v type="int" >      173 </v>
   <v type="int" >      174 </v>
   <v type="int" >      175 </v>
   <v type="int" >      176 </v>
   <v type="int" >      177 </v>
   <v type="int" >      178 </v>
   <v type="int" >      179 </v>
   <v type="int" >      180 </v>
   <v type="int" >      181 </v>
   <v type="int" >      182 </v>
   <v type="int" >      183 </v>
   <v type="int" >      184 </v>
   <v type="int" >      185 </v>
   <v type="int" >      186 </v>
   <v type="int" >      187 </v>
   <v type="int" >      188 </v>
   <v type="int" >      189 </v>
   <v type="int" >      190 </v>
   <v type="int" >      191 </v>
   <v type="int" >      192 </v>
   <v type="int" >      193 </v>
   <v type="int" >      194 </v>
   <v type="int" >      195 </v>
   <v type="int" >      196 </v>
   <v type="int" >      197 </v>
   <v type="int" >      198 </v>
   <v type="int" >      199 </v>
   <v type="int" >      200 </v>
   <v type="int" >      201 </v>
   <v type="int" >      202 </v>
   <v type="int" >      203 </v>
   <v type="int" >      204 </v>
   <v type="int" >      205 </v>
   <v type="int" >      206 </v>
   <v type="int" >      207 </v>
   <v type="int" >      208 </v>
   <v type="int" >      209 </v>
   <v type="int" >      210 </v>
   <v type="int" >      211 </v>
   <v type="int" >      212 </v>
   <v type="int" >      213 </v>
   <v type="int" >      214 </v>
   <v type="int" >      215 </v>
   <v type="int" >      216 </v>
   <v type="int" >      217 </v>
   <v type="int" >      218 </v>
   <v type="int" >      219 </v>
   <v type="int" >      220 </v>
   <v type="int" >      221 </v>
   <v type="int" >      222 </v>
   <v type="int" >      223 </v>
   <v type="int" >      224 </v>
   <v type="int" >      225 </v>
   <v type="int" >      226 </v>
   <v type="int" >      227 </v>
   <v type="int" >      228 </v>
   <v type="int" >      229 </v>
   <v type="int" >      230 </v>
   <v type="int" >      231 </v>
   <v type="int" >      232 </v>
   <v type="int" >      233 </v>
   <v type="int" >      234 </v>
   <v type="int" >      235 </v>
   <v type="int" >      236 </v>
   <v type="int" >      237 </v>
   <v type="int" >      238 </v>
   <v type="int" >      239 </v>
   <v type="int" >      240 </v>
   <v type="int" >      241 </v>
   <v type="int" >      242 </v>
   <v type="int" >      243 </v>
   <v type="int" >      244 </v>
   <v type="int" >      245 </v>
   <v type="int" >      246 </v>
   <v type="int" >      247 </v>
   <v type="int" >      248 </v>
   <v type="int" >      249 </v>
   <v type="int" >      250 </v>
   <v type="int" >      251 </v>
   <v type="int" >      252 </v>
   <v type="int" >      253 </v>
   <v type="int" >      254 </v>
   <v type="int" >      255 </v>
   <v type="int" >      256 </v>
   <v type="int" >      257 </v>
   <v type="int" >      258 </v>
   <v type="int" >      259 </v>
   <v type="int" >      260 </v>
   <v type="int" >      261 </v>
   <v type="int" >      262 </v>
   <v type="int" >      263 </v>
   <v type="int" >      264 </v>
   <v type="int" >      265 </v>
   <v type="int" >      266 </v>
   <v type="int" >      267 </v>
   <v type="int" >      268 </v>
   <v type="int" >      269 </v>
   <v type="int" >      270 </v>
   <v type="int" >      271 </v>
   <v type="int" >      272 </v>
   <v type="int" >      273 </v>
   <v type="int" >      274 </v>
   <v type="int" >      275 </v>
   <v type="int" >      276 </v>
   <v type="int" >      277 </v>
   <v type="int" >      278 </v>
   <v type="int" >      279 </v>
   <v type="int" >      280 </v>
   <v type="int" >      281 </v>
   <v type="int" >      282 </v>
   <v type="int" >      283 </v>
   <v type="int" >      284 </v>
   <v type="int" >      285 </v>
   <v type="int" >      286 </v>
   <v type="int" >      287 </v>
   <v type="int" >      288 </v>
   <v type="int" >      289 </v>
   <v type="int" >      290 </v>
   <v type="int" >      291 </v>
   <v type="int" >      292 </v>
   <v type="int" >      293 </v>
   <v type="int" >      294 </v>
   <v type="int" >      295 </v>
   <v type="int" >      296 </v>
   <v type="int" >      297 </v>
   <v type="int" >      298 </v>
   <v type="int" >      299 </v>
   <v type="int" >      300 </v>
   <v type="int" >      301 </v>
   <v type="int" >      302 </v>
   <v type="int" >      303 </v>
   <v type="int" >      304 </v>
   <v type="int" >      305 </v>
   <v type="int" >      306 </v>
   <v type="int" >      307 </v>
   <v type="int" >      308 </v>
   <v type="int" >      309 </v>
   <v type="int" >      310 </v>
   <v type="int" >      311 </v>
   <v type="int" >      312 </v>
   <v type="int" >      313 </v>
   <v type="int" >      314 </v>
   <v type="int" >      315 </v>
   <v type="int" >      316 </v>
   <v type="int" >      317 </v>
   <v type="int" >      318 </v>
   <v type="int" >      319 </v>
   <v type="int" >      320 </v>
   <v type="int" >      321 </v>
   <v type="int" >      322 </v>
   <v type="int" >      323 </v>
   <v type="int" >      324 </v>
   <v type="int" >      325 </v>
  </varray>
 </primitive_cell>
 <kpoints>
  <generation param="Gamma">
   <v type="int" name="divisions">       3        3        1 </v>
   <v name="usershift">      0.00000000       0.00000000       0.00000000 </v>
   <v name="genvec1">      0.33333333       0.00000000       0.00000000 </v>
   <v name="genvec2">      0.00000000       0.33333333       0.00000000 </v>
   <v name="genvec3">      0.00000000       0.00000000       1.00000000 </v>
   <v name="shift">      0.00000000       0.00000000       0.00000000 </v>
  </generation>
  <varray name="kpointlist" >
   <v>       0.00000000       0.00000000       0.00000000 </v>
   <v>       0.33333333       0.00000000       0.00000000 </v>
   <v>       0.00000000       0.33333333       0.00000000 </v>
   <v>       0.33333333       0.33333333       0.00000000 </v>
   <v>      -0.33333333       0.33333333       0.00000000 </v>
  </varray>
  <varray name="weights" >
   <v>       0.11111111 </v>
   <v>       0.22222222 </v>
   <v>       0.22222222 </v>
   <v>       0.22222222 </v>
   <v>       0.22222222 </v>
  </varray>
 </kpoints>
 <parameters>
  <separator name="general" >
   <i type="string" name="SYSTEM">PSC</i>
   <i type="logical" name="LCOMPAT"> F  </i>
  </separator>
  <separator name="electronic" >
   <i type="string" name="PREC">normal</i>
   <i name="ENMAX">    500.00000000</i>
   <i name="ENAUG">    644.87300000</i>
   <i name="EDIFF">      0.00010000</i>
   <i type="int" name="IALGO">    38</i>
   <i type="int" name="IWAVPR">    10</i>
   <i type="int" name="NBANDS">   732</i>
   <i type="int" name="NBANDSLOW">    -1</i>
   <i type="int" name="NBANDSHIGH">    -1</i>
   <i name="NELECT">   1134.00000000</i>
   <i type="int" name="TURBO">     0</i>
   <i type="int" name="IRESTART">     0</i>
   <i type="int" name="NREBOOT">     0</i>
   <i type="int" name="NMIN">     0</i>
   <i name="EREF">      0.00000000</i>
   <separator name="electronic smearing" >
    <i type="int" name="ISMEAR">     0</i>
    <i name="SIGMA">      0.05000000</i>
    <i name="KSPACING">      0.50000000</i>
    <i type="logical" name="KGAMMA"> T  </i>
    <i type="logical" name="KBLOWUP"> T  </i>
   </separator>
   <separator name="electronic projectors" >
    <i type="logical" name="LREAL"> T  </i>
    <v name="ROPT">     -0.00050000     -0.00050000     -0.00050000     -0.00050000     -0.00050000</v>
    <i type="int" name="LMAXPAW">  -100</i>
    <i type="int" name="LMAXMIX">     2</i>
    <i type="logical" name="NLSPLINE"> F  </i>
   </separator>
   <separator name="electronic startup" >
    <i type="int" name="ISTART">     0</i>
    <i type="int" name="ICHARG">     1</i>
    <i type="int" name="INIWAV">     1</i>
   </separator>
   <separator name="electronic spin" >
    <i type="int" name="ISPIN">     1</i>
    <i type="logical" name="LNONCOLLINEAR"> F  </i>
    <v name="MAGMOM">      1.00000000      1.00000000      1.00000000      1.00000000      1.00000000      1.00000000      1.00000000      1.00000000      1.00000000      1.00000000      1.00000000      1.00000000      1.00000000      1.00000000      1.00000000      1.00000000      1.00000000      1.00000000      1.00000000      1.00000000
      1.00000000      1.00000000      1.00000000      1.00000000      1.00000000      1.00000000      1.00000000      1.00000000      1.00000000      1.00000000      1.00000000      1.00000000      1.00000000      1.00000000      1.00000000      1.00000000      1.00000000      1.00000000      1.00000000      1.00000000
      1.00000000      1.00000000      1.00000000      1.00000000      1.00000000      1.00000000      1.00000000      1.00000000      1.00000000      1.00000000      1.00000000      1.00000000      1.00000000      1.00000000      1.00000000      1.00000000      1.00000000      1.00000000      1.00000000      1.00000000
      1.00000000      1.00000000      1.00000000      1.00000000      1.00000000      1.00000000      1.00000000      1.00000000      1.00000000      1.00000000      1.00000000      1.00000000      1.00000000      1.00000000      1.00000000      1.00000000      1.00000000      1.00000000      1.00000000      1.00000000
      1.00000000      1.00000000      1.00000000      1.00000000      1.00000000      1.00000000      1.00000000      1.00000000      1.00000000      1.00000000      1.00000000      1.00000000      1.00000000      1.00000000      1.00000000      1.00000000      1.00000000      1.00000000      1.00000000      1.00000000
      1.00000000      1.00000000      1.00000000      1.00000000      1.00000000      1.00000000      1.00000000      1.00000000      1.00000000      1.00000000      1.00000000      1.00000000      1.00000000      1.00000000      1.00000000      1.00000000      1.00000000      1.00000000      1.00000000      1.00000000
      1.00000000      1.00000000      1.00000000      1.00000000      1.00000000      1.00000000      1.00000000      1.00000000      1.00000000      1.00000000      1.00000000      1.00000000      1.00000000      1.00000000      1.00000000      1.00000000      1.00000000      1.00000000      1.00000000      1.00000000
      1.00000000      1.00000000      1.00000000      1.00000000      1.00000000      1.00000000      1.00000000      1.00000000      1.00000000      1.00000000      1.00000000      1.00000000      1.00000000      1.00000000      1.00000000      1.00000000      1.00000000      1.00000000      1.00000000      1.00000000
      1.00000000      1.00000000      1.00000000      1.00000000      1.00000000      1.00000000      1.00000000      1.00000000      1.00000000      1.00000000      1.00000000      1.00000000      1.00000000      1.00000000      1.00000000      1.00000000      1.00000000      1.00000000      1.00000000      1.00000000
      1.00000000      1.00000000      1.00000000      1.00000000      1.00000000      1.00000000      1.00000000      1.00000000      1.00000000      1.00000000      1.00000000      1.00000000      1.00000000      1.00000000      1.00000000      1.00000000      1.00000000      1.00000000      1.00000000      1.00000000
      1.00000000      1.00000000      1.00000000      1.00000000      1.00000000      1.00000000      1.00000000      1.00000000      1.00000000      1.00000000      1.00000000      1.00000000      1.00000000      1.00000000      1.00000000      1.00000000      1.00000000      1.00000000      1.00000000      1.00000000
      1.00000000      1.00000000      1.00000000      1.00000000      1.00000000      1.00000000      1.00000000      1.00000000      1.00000000      1.00000000      1.00000000      1.00000000      1.00000000      1.00000000      1.00000000      1.00000000      1.00000000      1.00000000      1.00000000      1.00000000
      1.00000000      1.00000000      1.00000000      1.00000000      1.00000000      1.00000000      1.00000000      1.00000000      1.00000000      1.00000000      1.00000000      1.00000000      1.00000000      1.00000000      1.00000000      1.00000000      1.00000000      1.00000000      1.00000000      1.00000000
      1.00000000      1.00000000      1.00000000      1.00000000      1.00000000      1.00000000      1.00000000      1.00000000      1.00000000      1.00000000      1.00000000      1.00000000      1.00000000      1.00000000      1.00000000      1.00000000      1.00000000      1.00000000      1.00000000      1.00000000
      1.00000000      1.00000000      1.00000000      1.00000000      1.00000000      1.00000000      1.00000000      1.00000000      1.00000000      1.00000000      1.00000000      1.00000000      1.00000000      1.00000000      1.00000000      1.00000000      1.00000000      1.00000000      1.00000000      1.00000000
      1.00000000      1.00000000      1.00000000      1.00000000      1.00000000      1.00000000      1.00000000      1.00000000      1.00000000      1.00000000      1.00000000      1.00000000      1.00000000      1.00000000      1.00000000      1.00000000      1.00000000      1.00000000      1.00000000      1.00000000
      1.00000000      1.00000000      1.00000000      1.00000000      1.00000000</v>
    <i name="NUPDOWN">     -1.00000000</i>
    <i type="logical" name="LSORBIT"> F  </i>
    <v name="SAXIS">      0.00000000      0.00000000      1.00000000</v>
    <i type="logical" name="LSPIRAL"> F  </i>
    <v name="QSPIRAL">      0.00000000      0.00000000      0.00000000</v>
    <i type="logical" name="LZEROZ"> F  </i>
   </separator>
   <separator name="electronic exchange-correlation" >
    <i type="logical" name="LASPH"> F  </i>
    <i type="logical" name="LMETAGGA"> F  </i>
   </separator>
   <separator name="electronic convergence" >
    <i type="int" name="NELM">   600</i>
    <i type="int" name="NELMDL">     0</i>
    <i type="int" name="NELMIN">     2</i>
    <i name="ENINI">    500.00000000</i>
    <separator name="electronic convergence detail" >
     <i type="logical" name="LDIAG"> T  </i>
     <i type="logical" name="LSUBROT"> F  </i>
     <i name="WEIMIN">      0.00000000</i>
     <i name="EBREAK">      0.00000003</i>
     <i name="DEPER">      0.30000000</i>
     <i type="int" name="NRMM">     4</i>
     <i name="TIME">      0.40000000</i>
    </separator>
   </separator>
   <separator name="electronic mixer" >
    <i name="AMIX">      0.40000000</i>
    <i name="BMIX">      0.01000000</i>
    <i name="AMIN">      0.01000000</i>
    <i name="AMIX_MAG">      1.60000000</i>
    <i name="BMIX_MAG">      0.01000000</i>
    <separator name="electronic mixer details" >
     <i type="int" name="IMIX">     4</i>
     <i type="logical" name="MIXFIRST"> F  </i>
     <i type="int" name="MAXMIX">   -45</i>
     <i name="WC">    100.00000000</i>
     <i type="int" name="INIMIX">     1</i>
     <i type="int" name="MIXPRE">     1</i>
     <i type="int" name="MREMOVE">     5</i>
    </separator>
   </separator>
   <separator name="electronic dipolcorrection" >
    <i type="logical" name="LDIPOL"> T  </i>
    <i type="logical" name="LMONO"> F  </i>
    <i type="int" name="IDIPOL">     3</i>
    <i name="EPSILON">      1.00000000</i>
    <v name="DIPOL">   -100.00000000   -100.00000000   -100.00000000</v>
    <i name="EFIELD">      0.00000000</i>
   </separator>
  </separator>
  <separator name="grids" >
   <i type="int" name="NGX">   100</i>
   <i type="int" name="NGY">   100</i>
   <i type="int" name="NGZ">   350</i>
   <i type="int" name="NGXF">   200</i>
   <i type="int" name="NGYF">   200</i>
   <i type="int" name="NGZF">   700</i>
   <i type="logical" name="ADDGRID"> F  </i>
  </separator>
  <separator name="ionic" >
   <i type="int" name="NSW">     0</i>
   <i type="int" name="IBRION">    -1</i>
   <i type="int" name="MDALGO">     0</i>
   <i type="int" name="ISIF">     2</i>
   <i name="PSTRESS">      0.00000000</i>
   <i name="EDIFFG">      0.00100000</i>
   <i type="int" name="NFREE">     0</i>
   <i name="POTIM">      0.50000000</i>
   <i name="SMASS">     -3.00000000</i>
   <i name="SCALEE">      1.00000000</i>
  </separator>
  <separator name="ionic md" >
   <i name="TEBEG">      0.00010000</i>
   <i name="TEEND">      0.00010000</i>
   <i type="int" name="NBLOCK">     1</i>
   <i type="int" name="KBLOCK">     1</i>
   <i type="int" name="NPACO">   256</i>
   <i name="APACO">     16.00000000</i>
  </separator>
  <separator name="symmetry" >
   <i type="int" name="ISYM">     0</i>
   <i name="SYMPREC">      0.00001000</i>
  </separator>
  <separator name="dos" >
   <i type="int" name="LORBIT">     0</i>
   <v name="RWIGS">     -1.00000000     -1.00000000     -1.00000000     -1.00000000     -1.00000000</v>
   <i type="int" name="NEDOS">   301</i>
   <i name="EMIN">     10.00000000</i>
   <i name="EMAX">    -10.00000000</i>
   <i name="EFERMI">      0.00000000</i>
  </separator>
  <separator name="writing" >
   <i type="int" name="NWRITE">     2</i>
   <i type="logical" name="LWAVE"> F  </i>
   <i type="logical" name="LDOWNSAMPLE"> F  </i>
   <i type="logical" name="LCHARG"> T  </i>
   <i type="logical" name="LPARD"> F  </i>
   <i type="logical" name="LVTOT"> T  </i>
   <i type="logical" name="LVHAR"> F  </i>
   <i type="logical" name="LELF"> F  </i>
   <i type="logical" name="LOPTICS"> F  </i>
   <v name="STM">      0.00000000      0.00000000      0.00000000      0.00000000      0.00000000      0.00000000      0.00000000</v>
  </separator>
  <separator name="performance" >
   <i type="int" name="NPAR">     4</i>
   <i type="int" name="NSIM">     4</i>
   <i type="int" name="NBLK">    -1</i>
   <i type="logical" name="LPLANE"> T  </i>
   <i type="logical" name="LSCALAPACK"> T  </i>
   <i type="logical" name="LSCAAWARE"> F  </i>
   <i type="logical" name="LSCALU"> F  </i>
   <i type="logical" name="LASYNC"> F  </i>
   <i type="logical" name="LORBITALREAL"> F  </i>
  </separator>
  <separator name="miscellaneous" >
   <i type="int" name="IDIOT">     3</i>
   <i type="int" name="PHON_NSTRUCT">    -1</i>
   <i type="logical" name="LMUSIC"> F  </i>
   <v name="POMASS">      1.00000000     12.01100000     14.00100000    126.90400000    207.20000000</v>
   <v name="DARWINR">      0.00000000      0.00000000      0.00000000      0.00000000      0.00000000</v>
   <v name="DARWINV">      1.00000000      1.00000000      1.00000000      1.00000000      1.00000000</v>
   <i type="logical" name="LCORR"> T  </i>
  </separator>
  <i type="logical" name="GGA_COMPAT"> F  </i>
  <i type="logical" name="LBERRY"> F  </i>
  <i type="int" name="ICORELEVEL">     0</i>
  <i type="logical" name="LDAU"> F  </i>
  <i type="int" name="I_CONSTRAINED_M">     0</i>
  <separator name="electronic exchange-correlation" >
   <i type="string" name="GGA">--</i>
   <i type="int" name="VOSKOWN">     0</i>
   <i type="logical" name="LHFCALC"> F  </i>
   <i type="string" name="PRECFOCK"></i>
   <i type="logical" name="LSYMGRAD"> F  </i>
   <i type="logical" name="LHFONE"> F  </i>
   <i type="logical" name="LRHFCALC"> F  </i>
   <i type="logical" name="LTHOMAS"> F  </i>
   <i type="logical" name="LMODELHF"> F  </i>
   <i type="logical" name="LFOCKACE"> F  </i>
   <i name="ENCUT4O">     -1.00000000</i>
   <i type="int" name="EXXOEP">     0</i>
   <i type="int" name="FOURORBIT">     0</i>
   <i name="AEXX">      0.00000000</i>
   <i name="HFALPHA">      0.00000000</i>
   <i name="MCALPHA">      0.00000000</i>
   <i name="ALDAX">      1.00000000</i>
   <i name="AGGAX">      1.00000000</i>
   <i name="ALDAC">      1.00000000</i>
   <i name="AGGAC">      1.00000000</i>
   <i type="int" name="NKREDX">     1</i>
   <i type="int" name="NKREDY">     1</i>
   <i type="int" name="NKREDZ">     1</i>
   <i type="logical" name="SHIFTRED"> F  </i>
   <i type="logical" name="ODDONLY"> F  </i>
   <i type="logical" name="EVENONLY"> F  </i>
   <i type="int" name="LMAXFOCK">     0</i>
   <i type="int" name="NMAXFOCKAE">     0</i>
   <i type="logical" name="LFOCKAEDFT"> F  </i>
   <i name="HFSCREEN">      0.00000000</i>
   <i name="HFSCREENC">      0.00000000</i>
   <i type="int" name="NBANDSGWLOW">     0</i>
  </separator>
  <separator name="vdW DFT" >
   <i type="logical" name="LUSE_VDW"> F  </i>
   <i name="Zab_VDW">     -0.84910000</i>
   <i name="PARAM1">      0.12340000</i>
   <i name="PARAM2">      1.00000000</i>
   <i name="PARAM3">      0.00000000</i>
  </separator>
  <separator name="model GW" >
   <i type="int" name="MODEL_GW">     0</i>
   <i name="MODEL_EPS0">     37.63423484</i>
   <i name="MODEL_ALPHA">      1.00000000</i>
  </separator>
  <separator name="linear response parameters" >
   <i type="logical" name="LEPSILON"> F  </i>
   <i type="logical" name="LRPA"> F  </i>
   <i type="logical" name="LNABLA"> F  </i>
   <i type="logical" name="LVEL"> F  </i>
   <i type="int" name="KINTER">     0</i>
   <i name="CSHIFT">      0.10000000</i>
   <i name="OMEGAMAX">     -1.00000000</i>
   <i name="DEG_THRESHOLD">      0.00200000</i>
   <i name="RTIME">     -0.10000000</i>
   <i name="WPLASMAI">      0.00000000</i>
   <v name="DFIELD">      0.00000000      0.00000000      0.00000000</v>
   <v name="WPLASMA">      0.00000000      0.00000000      0.00000000      0.00000000      0.00000000      0.00000000      0.00000000      0.00000000      0.00000000</v>
  </separator>
  <separator name="orbital magnetization" >
   <i type="logical" name="NUCIND"> F  </i>
   <v name="MAGPOS">      0.00000000      0.00000000      0.00000000</v>
   <i type="logical" name="LNICSALL"> T  </i>
   <i type="logical" name="ORBITALMAG"> F  </i>
   <i type="logical" name="LMAGBLOCH"> F  </i>
   <i type="logical" name="LCHIMAG"> F  </i>
   <i type="logical" name="LGAUGE"> T  </i>
   <i type="int" name="MAGATOM">     0</i>
   <v name="MAGDIPOL">      0.00000000      0.00000000      0.00000000</v>
   <v name="AVECCONST">      0.00000000      0.00000000      0.00000000</v>
  </separator>
  <separator name="response functions" >
   <i type="logical" name="LFINITE_TEMPERATURE"> F  </i>
   <i type="logical" name="LADDER"> F  </i>
   <i type="logical" name="LRPAFORCE"> F  </i>
   <i type="logical" name="LFXC"> F  </i>
   <i type="logical" name="LHARTREE"> T  </i>
   <i type="int" name="IBSE">     0</i>
   <v type="int" name="KPOINT">    -1     0     0     0</v>
   <i type="logical" name="LTCTC"> F  </i>
   <i type="logical" name="LTCTE"> F  </i>
   <i type="logical" name="LTETE"> F  </i>
   <i type="logical" name="LTRIPLET"> F  </i>
   <i type="logical" name="LFXCEPS"> F  </i>
   <i type="logical" name="LFXHEG"> F  </i>
   <i type="int" name="NATURALO">     2</i>
   <i type="logical" name="LHOLEGF"> F  </i>
   <i type="logical" name="L2ORDER"> F  </i>
   <i type="logical" name="LDMP1"> F  </i>
   <i type="logical" name="LMP2LT"> F  </i>
   <i type="logical" name="LSMP2LT"> F  </i>
   <i type="logical" name="LGWLF"> F  </i>
   <i name="ENCUTGW">     -2.00000000</i>
   <i name="ENCUTGWSOFT">     -2.00000000</i>
   <i name="ENCUTLF">     -1.00000000</i>
   <i type="logical" name="LESF_SPLINES"> F  </i>
   <i type="int" name="LMAXMP2">    -1</i>
   <i name="SCISSOR">      0.00000000</i>
   <i type="int" name="NOMEGA">     0</i>
   <i type="int" name="NOMEGAR">     0</i>
   <i type="int" name="NBANDSGW">    -1</i>
   <i type="int" name="NBANDSO">    -1</i>
   <i type="int" name="NBANDSV">    -1</i>
   <i type="int" name="NELM">   600</i>
   <i type="int" name="NELMHF">     1</i>
   <i type="int" name="DIM">     3</i>
   <i type="int" name="IESPILON">     4</i>
   <i type="int" name="ANTIRES">     0</i>
   <i name="OMEGAMAX">    -30.00000000</i>
   <i name="OMEGAMIN">    -30.00000000</i>
   <i name="OMEGATL">   -200.00000000</i>
   <i type="int" name="OMEGAGRID">     0</i>
   <i name="CSHIFT">     -0.10000000</i>
   <i type="logical" name="LSELFENERGY"> F  </i>
   <i type="logical" name="LSPECTRAL"> F  </i>
   <i type="logical" name="LSPECTRALGW"> F  </i>
   <i type="logical" name="LSINGLES"> F  </i>
   <i type="logical" name="LFERMIGW"> F  </i>
   <i type="logical" name="ODDONLYGW"> F  </i>
   <i type="logical" name="EVENONLYGW"> F  </i>
   <i type="int" name="NKREDLFX">     1</i>
   <i type="int" name="NKREDLFY">     1</i>
   <i type="int" name="NKREDLFZ">     1</i>
   <i type="int" name="MAXMEM">  2800</i>
   <i type="int" name="TELESCOPE">     0</i>
   <i type="int" name="NTAUPAR">    -1</i>
   <i type="int" name="NOMEGAPAR">    -1</i>
   <i name="DAMP_NEWTON">      0.80000001</i>
   <i name="LAMBDA">      1.00000000</i>
  </separator>
  <separator name="External order field" >
   <i name="OFIELD_KAPPA">      0.00000000</i>
   <v name="OFIELD_K">      0.00000000      0.00000000      0.00000000</v>
   <i name="OFIELD_Q6_NEAR">      0.00000000</i>
   <i name="OFIELD_Q6_FAR">      0.00000000</i>
   <i name="OFIELD_A">      0.00000000</i>
  </separator>
 </parameters>
 <atominfo>
  <atoms>     325 </atoms>
  <types>       5 </types>
  <array name="atoms" >
   <dimension dim="1">ion</dimension>
   <field type="string">element</field>
   <field type="int">atomtype</field>
   <set>
    <rc><c>H </c><c>   1</c></rc>
    <rc><c>H </c><c>   1</c></rc>
    <rc><c>H </c><c>   1</c></rc>
    <rc><c>H </c><c>   1</c></rc>
    <rc><c>H </c><c>   1</c></rc>
    <rc><c>H </c><c>   1</c></rc>
    <rc><c>H </c><c>   1</c></rc>
    <rc><c>H </c><c>   1</c></rc>
    <rc><c>H </c><c>   1</c></rc>
    <rc><c>H </c><c>   1</c></rc>
    <rc><c>H </c><c>   1</c></rc>
    <rc><c>H </c><c>   1</c></rc>
    <rc><c>H </c><c>   1</c></rc>
    <rc><c>H </c><c>   1</c></rc>
    <rc><c>H </c><c>   1</c></rc>
    <rc><c>H </c><c>   1</c></rc>
    <rc><c>H </c><c>   1</c></rc>
    <rc><c>H </c><c>   1</c></rc>
    <rc><c>H </c><c>   1</c></rc>
    <rc><c>H </c><c>   1</c></rc>
    <rc><c>H </c><c>   1</c></rc>
    <rc><c>H </c><c>   1</c></rc>
    <rc><c>H </c><c>   1</c></rc>
    <rc><c>H </c><c>   1</c></rc>
    <rc><c>H </c><c>   1</c></rc>
    <rc><c>H </c><c>   1</c></rc>
    <rc><c>H </c><c>   1</c></rc>
    <rc><c>H </c><c>   1</c></rc>
    <rc><c>H </c><c>   1</c></rc>
    <rc><c>H </c><c>   1</c></rc>
    <rc><c>H </c><c>   1</c></rc>
    <rc><c>H </c><c>   1</c></rc>
    <rc><c>H </c><c>   1</c></rc>
    <rc><c>H </c><c>   1</c></rc>
    <rc><c>H </c><c>   1</c></rc>
    <rc><c>H </c><c>   1</c></rc>
    <rc><c>H </c><c>   1</c></rc>
    <rc><c>H </c><c>   1</c></rc>
    <rc><c>H </c><c>   1</c></rc>
    <rc><c>H </c><c>   1</c></rc>
    <rc><c>H </c><c>   1</c></rc>
    <rc><c>H </c><c>   1</c></rc>
    <rc><c>H </c><c>   1</c></rc>
    <rc><c>H </c><c>   1</c></rc>
    <rc><c>H </c><c>   1</c></rc>
    <rc><c>H </c><c>   1</c></rc>
    <rc><c>H </c><c>   1</c></rc>
    <rc><c>H </c><c>   1</c></rc>
    <rc><c>H </c><c>   1</c></rc>
    <rc><c>H </c><c>   1</c></rc>
    <rc><c>H </c><c>   1</c></rc>
    <rc><c>H </c><c>   1</c></rc>
    <rc><c>H </c><c>   1</c></rc>
    <rc><c>H </c><c>   1</c></rc>
    <rc><c>H </c><c>   1</c></rc>
    <rc><c>H </c><c>   1</c></rc>
    <rc><c>H </c><c>   1</c></rc>
    <rc><c>H </c><c>   1</c></rc>
    <rc><c>H </c><c>   1</c></rc>
    <rc><c>H </c><c>   1</c></rc>
    <rc><c>H </c><c>   1</c></rc>
    <rc><c>H </c><c>   1</c></rc>
    <rc><c>H </c><c>   1</c></rc>
    <rc><c>H </c><c>   1</c></rc>
    <rc><c>H </c><c>   1</c></rc>
    <rc><c>H </c><c>   1</c></rc>
    <rc><c>H </c><c>   1</c></rc>
    <rc><c>H </c><c>   1</c></rc>
    <rc><c>H </c><c>   1</c></rc>
    <rc><c>H </c><c>   1</c></rc>
    <rc><c>H </c><c>   1</c></rc>
    <rc><c>H </c><c>   1</c></rc>
    <rc><c>H </c><c>   1</c></rc>
    <rc><c>H </c><c>   1</c></rc>
    <rc><c>H </c><c>   1</c></rc>
    <rc><c>H </c><c>   1</c></rc>
    <rc><c>H </c><c>   1</c></rc>
    <rc><c>H </c><c>   1</c></rc>
    <rc><c>H </c><c>   1</c></rc>
    <rc><c>H </c><c>   1</c></rc>
    <rc><c>H </c><c>   1</c></rc>
    <rc><c>H </c><c>   1</c></rc>
    <rc><c>H </c><c>   1</c></rc>
    <rc><c>H </c><c>   1</c></rc>
    <rc><c>H </c><c>   1</c></rc>
    <rc><c>H </c><c>   1</c></rc>
    <rc><c>H </c><c>   1</c></rc>
    <rc><c>H </c><c>   1</c></rc>
    <rc><c>H </c><c>   1</c></rc>
    <rc><c>H </c><c>   1</c></rc>
    <rc><c>H </c><c>   1</c></rc>
    <rc><c>H </c><c>   1</c></rc>
    <rc><c>H </c><c>   1</c></rc>
    <rc><c>H </c><c>   1</c></rc>
    <rc><c>H </c><c>   1</c></rc>
    <rc><c>H </c><c>   1</c></rc>
    <rc><c>H </c><c>   1</c></rc>
    <rc><c>H </c><c>   1</c></rc>
    <rc><c>H </c><c>   1</c></rc>
    <rc><c>H </c><c>   1</c></rc>
    <rc><c>H </c><c>   1</c></rc>
    <rc><c>H </c><c>   1</c></rc>
    <rc><c>H </c><c>   1</c></rc>
    <rc><c>H </c><c>   1</c></rc>
    <rc><c>H </c><c>   1</c></rc>
    <rc><c>H </c><c>   1</c></rc>
    <rc><c>H </c><c>   1</c></rc>
    <rc><c>H </c><c>   1</c></rc>
    <rc><c>H </c><c>   1</c></rc>
    <rc><c>H </c><c>   1</c></rc>
    <rc><c>H </c><c>   1</c></rc>
    <rc><c>H </c><c>   1</c></rc>
    <rc><c>H </c><c>   1</c></rc>
    <rc><c>H </c><c>   1</c></rc>
    <rc><c>H </c><c>   1</c></rc>
    <rc><c>H </c><c>   1</c></rc>
    <rc><c>H </c><c>   1</c></rc>
    <rc><c>H </c><c>   1</c></rc>
    <rc><c>H </c><c>   1</c></rc>
    <rc><c>H </c><c>   1</c></rc>
    <rc><c>H </c><c>   1</c></rc>
    <rc><c>H </c><c>   1</c></rc>
    <rc><c>H </c><c>   1</c></rc>
    <rc><c>H </c><c>   1</c></rc>
    <rc><c>H </c><c>   1</c></rc>
    <rc><c>H </c><c>   1</c></rc>
    <rc><c>H </c><c>   1</c></rc>
    <rc><c>H </c><c>   1</c></rc>
    <rc><c>H </c><c>   1</c></rc>
    <rc><c>H </c><c>   1</c></rc>
    <rc><c>H </c><c>   1</c></rc>
    <rc><c>H </c><c>   1</c></rc>
    <rc><c>H </c><c>   1</c></rc>
    <rc><c>H </c><c>   1</c></rc>
    <rc><c>H </c><c>   1</c></rc>
    <rc><c>H </c><c>   1</c></rc>
    <rc><c>H </c><c>   1</c></rc>
    <rc><c>H </c><c>   1</c></rc>
    <rc><c>H </c><c>   1</c></rc>
    <rc><c>H </c><c>   1</c></rc>
    <rc><c>H </c><c>   1</c></rc>
    <rc><c>H </c><c>   1</c></rc>
    <rc><c>H </c><c>   1</c></rc>
    <rc><c>C </c><c>   2</c></rc>
    <rc><c>C </c><c>   2</c></rc>
    <rc><c>C </c><c>   2</c></rc>
    <rc><c>C </c><c>   2</c></rc>
    <rc><c>C </c><c>   2</c></rc>
    <rc><c>C </c><c>   2</c></rc>
    <rc><c>C </c><c>   2</c></rc>
    <rc><c>C </c><c>   2</c></rc>
    <rc><c>C </c><c>   2</c></rc>
    <rc><c>C </c><c>   2</c></rc>
    <rc><c>C </c><c>   2</c></rc>
    <rc><c>C </c><c>   2</c></rc>
    <rc><c>C </c><c>   2</c></rc>
    <rc><c>C </c><c>   2</c></rc>
    <rc><c>C </c><c>   2</c></rc>
    <rc><c>C </c><c>   2</c></rc>
    <rc><c>C </c><c>   2</c></rc>
    <rc><c>C </c><c>   2</c></rc>
    <rc><c>C </c><c>   2</c></rc>
    <rc><c>C </c><c>   2</c></rc>
    <rc><c>C </c><c>   2</c></rc>
    <rc><c>C </c><c>   2</c></rc>
    <rc><c>C </c><c>   2</c></rc>
    <rc><c>C </c><c>   2</c></rc>
    <rc><c>C </c><c>   2</c></rc>
    <rc><c>C </c><c>   2</c></rc>
    <rc><c>C </c><c>   2</c></rc>
    <rc><c>C </c><c>   2</c></rc>
    <rc><c>C </c><c>   2</c></rc>
    <rc><c>C </c><c>   2</c></rc>
    <rc><c>C </c><c>   2</c></rc>
    <rc><c>C </c><c>   2</c></rc>
    <rc><c>C </c><c>   2</c></rc>
    <rc><c>C </c><c>   2</c></rc>
    <rc><c>C </c><c>   2</c></rc>
    <rc><c>C </c><c>   2</c></rc>
    <rc><c>C </c><c>   2</c></rc>
    <rc><c>C </c><c>   2</c></rc>
    <rc><c>C </c><c>   2</c></rc>
    <rc><c>N </c><c>   3</c></rc>
    <rc><c>N </c><c>   3</c></rc>
    <rc><c>N </c><c>   3</c></rc>
    <rc><c>N </c><c>   3</c></rc>
    <rc><c>N </c><c>   3</c></rc>
    <rc><c>N </c><c>   3</c></rc>
    <rc><c>N </c><c>   3</c></rc>
    <rc><c>N </c><c>   3</c></rc>
    <rc><c>N </c><c>   3</c></rc>
    <rc><c>N </c><c>   3</c></rc>
    <rc><c>N </c><c>   3</c></rc>
    <rc><c>N </c><c>   3</c></rc>
    <rc><c>N </c><c>   3</c></rc>
    <rc><c>N </c><c>   3</c></rc>
    <rc><c>N </c><c>   3</c></rc>
    <rc><c>N </c><c>   3</c></rc>
    <rc><c>N </c><c>   3</c></rc>
    <rc><c>N </c><c>   3</c></rc>
    <rc><c>N </c><c>   3</c></rc>
    <rc><c>N </c><c>   3</c></rc>
    <rc><c>N </c><c>   3</c></rc>
    <rc><c>N </c><c>   3</c></rc>
    <rc><c>N </c><c>   3</c></rc>
    <rc><c>N </c><c>   3</c></rc>
    <rc><c>N </c><c>   3</c></rc>
    <rc><c>N </c><c>   3</c></rc>
    <rc><c>N </c><c>   3</c></rc>
    <rc><c>N </c><c>   3</c></rc>
    <rc><c>N </c><c>   3</c></rc>
    <rc><c>N </c><c>   3</c></rc>
    <rc><c>N </c><c>   3</c></rc>
    <rc><c>N </c><c>   3</c></rc>
    <rc><c>N </c><c>   3</c></rc>
    <rc><c>N </c><c>   3</c></rc>
    <rc><c>N </c><c>   3</c></rc>
    <rc><c>N </c><c>   3</c></rc>
    <rc><c>N </c><c>   3</c></rc>
    <rc><c>N </c><c>   3</c></rc>
    <rc><c>N </c><c>   3</c></rc>
    <rc><c>N </c><c>   3</c></rc>
    <rc><c>N </c><c>   3</c></rc>
    <rc><c>N </c><c>   3</c></rc>
    <rc><c>N </c><c>   3</c></rc>
    <rc><c>N </c><c>   3</c></rc>
    <rc><c>N </c><c>   3</c></rc>
    <rc><c>N </c><c>   3</c></rc>
    <rc><c>N </c><c>   3</c></rc>
    <rc><c>I </c><c>   4</c></rc>
    <rc><c>I </c><c>   4</c></rc>
    <rc><c>I </c><c>   4</c></rc>
    <rc><c>I </c><c>   4</c></rc>
    <rc><c>I </c><c>   4</c></rc>
    <rc><c>I </c><c>   4</c></rc>
    <rc><c>I </c><c>   4</c></rc>
    <rc><c>I </c><c>   4</c></rc>
    <rc><c>I </c><c>   4</c></rc>
    <rc><c>I </c><c>   4</c></rc>
    <rc><c>I </c><c>   4</c></rc>
    <rc><c>I </c><c>   4</c></rc>
    <rc><c>I </c><c>   4</c></rc>
    <rc><c>I </c><c>   4</c></rc>
    <rc><c>I </c><c>   4</c></rc>
    <rc><c>I </c><c>   4</c></rc>
    <rc><c>I </c><c>   4</c></rc>
    <rc><c>I </c><c>   4</c></rc>
    <rc><c>I </c><c>   4</c></rc>
    <rc><c>I </c><c>   4</c></rc>
    <rc><c>I </c><c>   4</c></rc>
    <rc><c>I </c><c>   4</c></rc>
    <rc><c>I </c><c>   4</c></rc>
    <rc><c>I </c><c>   4</c></rc>
    <rc><c>I </c><c>   4</c></rc>
    <rc><c>I </c><c>   4</c></rc>
    <rc><c>I </c><c>   4</c></rc>
    <rc><c>I </c><c>   4</c></rc>
    <rc><c>I </c><c>   4</c></rc>
    <rc><c>I </c><c>   4</c></rc>
    <rc><c>I </c><c>   4</c></rc>
    <rc><c>I </c><c>   4</c></rc>
    <rc><c>I </c><c>   4</c></rc>
    <rc><c>I </c><c>   4</c></rc>
    <rc><c>I </c><c>   4</c></rc>
    <rc><c>I </c><c>   4</c></rc>
    <rc><c>I </c><c>   4</c></rc>
    <rc><c>I </c><c>   4</c></rc>
    <rc><c>I </c><c>   4</c></rc>
    <rc><c>I </c><c>   4</c></rc>
    <rc><c>I </c><c>   4</c></rc>
    <rc><c>I </c><c>   4</c></rc>
    <rc><c>I </c><c>   4</c></rc>
    <rc><c>I </c><c>   4</c></rc>
    <rc><c>I </c><c>   4</c></rc>
    <rc><c>I </c><c>   4</c></rc>
    <rc><c>I </c><c>   4</c></rc>
    <rc><c>I </c><c>   4</c></rc>
    <rc><c>I </c><c>   4</c></rc>
    <rc><c>I </c><c>   4</c></rc>
    <rc><c>I </c><c>   4</c></rc>
    <rc><c>I </c><c>   4</c></rc>
    <rc><c>I </c><c>   4</c></rc>
    <rc><c>I </c><c>   4</c></rc>
    <rc><c>I </c><c>   4</c></rc>
    <rc><c>I </c><c>   4</c></rc>
    <rc><c>I </c><c>   4</c></rc>
    <rc><c>I </c><c>   4</c></rc>
    <rc><c>I </c><c>   4</c></rc>
    <rc><c>I </c><c>   4</c></rc>
    <rc><c>I </c><c>   4</c></rc>
    <rc><c>I </c><c>   4</c></rc>
    <rc><c>I </c><c>   4</c></rc>
    <rc><c>I </c><c>   4</c></rc>
    <rc><c>I </c><c>   4</c></rc>
    <rc><c>I </c><c>   4</c></rc>
    <rc><c>I </c><c>   4</c></rc>
    <rc><c>I </c><c>   4</c></rc>
    <rc><c>I </c><c>   4</c></rc>
    <rc><c>I </c><c>   4</c></rc>
    <rc><c>I </c><c>   4</c></rc>
    <rc><c>I </c><c>   4</c></rc>
    <rc><c>Pb</c><c>   5</c></rc>
    <rc><c>Pb</c><c>   5</c></rc>
    <rc><c>Pb</c><c>   5</c></rc>
    <rc><c>Pb</c><c>   5</c></rc>
    <rc><c>Pb</c><c>   5</c></rc>
    <rc><c>Pb</c><c>   5</c></rc>
    <rc><c>Pb</c><c>   5</c></rc>
    <rc><c>Pb</c><c>   5</c></rc>
    <rc><c>Pb</c><c>   5</c></rc>
    <rc><c>Pb</c><c>   5</c></rc>
    <rc><c>Pb</c><c>   5</c></rc>
    <rc><c>Pb</c><c>   5</c></rc>
    <rc><c>Pb</c><c>   5</c></rc>
    <rc><c>Pb</c><c>   5</c></rc>
    <rc><c>Pb</c><c>   5</c></rc>
    <rc><c>Pb</c><c>   5</c></rc>
    <rc><c>Pb</c><c>   5</c></rc>
    <rc><c>Pb</c><c>   5</c></rc>
    <rc><c>Pb</c><c>   5</c></rc>
    <rc><c>Pb</c><c>   5</c></rc>
    <rc><c>Pb</c><c>   5</c></rc>
    <rc><c>Pb</c><c>   5</c></rc>
    <rc><c>Pb</c><c>   5</c></rc>
    <rc><c>Pb</c><c>   5</c></rc>
   </set>
  </array>
  <array name="atomtypes" >
   <dimension dim="1">type</dimension>
   <field type="int">atomspertype</field>
   <field type="string">element</field>
   <field>mass</field>
   <field>valence</field>
   <field type="string">pseudopotential</field>
   <set>
    <rc><c> 143</c><c>H </c><c>      1.00000000</c><c>      1.00000000</c><c>  PAW_PBE H 15Jun2001                   </c></rc>
    <rc><c>  39</c><c>C </c><c>     12.01100000</c><c>      4.00000000</c><c>  PAW_PBE C 08Apr2002                   </c></rc>
    <rc><c>  47</c><c>N </c><c>     14.00100000</c><c>      5.00000000</c><c>  PAW_PBE N 08Apr2002                   </c></rc>
    <rc><c>  72</c><c>I </c><c>    126.90400000</c><c>      7.00000000</c><c>  PAW_PBE I 08Apr2002                   </c></rc>
    <rc><c>  24</c><c>Pb</c><c>    207.20000000</c><c>      4.00000000</c><c>  PAW_PBE Pb 08Apr2002                  </c></rc>
   </set>
  </array>
 </atominfo>
 <structure name="initialpos" >
  <crystal>
   <varray name="basis" >
    <v>      18.06080055       0.00000000       0.00000000 </v>
    <v>      -0.00491865      18.06279945       0.00000000 </v>
    <v>       0.00000000       0.00000000      62.48749924 </v>
   </varray>
   <i name="volume">  20385.21054034 </i>
   <varray name="rec_basis" >
    <v>       0.05536853       0.00001508      -0.00000000 </v>
    <v>       0.00000000       0.05536240       0.00000000 </v>
    <v>       0.00000000      -0.00000000       0.01600320 </v>
   </varray>
  </crystal>
  <varray name="positions" >
   <v>       0.47150190       0.33125337       0.57158722 </v>
   <v>       0.45106019       0.83835851       0.57351449 </v>
   <v>       0.92138837       0.24145841       0.58093803 </v>
   <v>       0.94221190       0.81315764       0.57630045 </v>
   <v>       0.31756560       0.07079152       0.57081571 </v>
   <v>       0.33526228       0.56759996       0.57096619 </v>
   <v>       0.79507333       0.08623625       0.57436055 </v>
   <v>       0.10446528       0.24744010       0.55764053 </v>
   <v>       0.08811506       0.67546414       0.57219062 </v>
   <v>       0.55494668       0.15587690       0.55903949 </v>
   <v>       0.49398724       0.64615492       0.56291899 </v>
   <v>       0.36722424       0.00611229       0.55631910 </v>
   <v>       0.28110787       0.63306732       0.55731301 </v>
   <v>       0.86742986       0.03073408       0.56467044 </v>
   <v>       0.05726937       0.24318250       0.58174117 </v>
   <v>       0.00760418       0.69428441       0.58652625 </v>
   <v>       0.57359771       0.24185786       0.57108346 </v>
   <v>       0.45362452       0.70373942       0.58180448 </v>
   <v>       0.28388952       0.43999327       0.57465046 </v>
   <v>       0.18058250       0.05694290       0.57131904 </v>
   <v>       0.66797029       0.02925625       0.57314064 </v>
   <v>       0.38798539       0.30231603       0.56020855 </v>
   <v>       0.50184300       0.86860737       0.55174512 </v>
   <v>       0.87829884       0.23491810       0.55634406 </v>
   <v>       0.98569391       0.86736050       0.55696266 </v>
   <v>       0.19830965       0.42472470       0.56300470 </v>
   <v>       0.14111665       0.98698763       0.55623607 </v>
   <v>       0.66449180       0.93946829       0.56273639 </v>
   <v>       0.43495723       0.18820431       0.55083100 </v>
   <v>       0.53571562       0.74643982       0.54226196 </v>
   <v>       0.99343624       0.24248657       0.53766668 </v>
   <v>       0.08132183       0.78072676       0.55172449 </v>
   <v>       0.18751563       0.54563892       0.55070927 </v>
   <v>       0.25935317       0.94192379       0.54576687 </v>
   <v>       0.78973928       0.93423222       0.55590684 </v>
   <v>       0.46618872       0.30940148       0.67365226 </v>
   <v>       0.44154894       0.80825738       0.67261885 </v>
   <v>       0.94952872       0.27680481       0.67640299 </v>
   <v>       0.92310054       0.74835379       0.67364646 </v>
   <v>       0.30790851       0.05077804       0.67191912 </v>
   <v>       0.29366644       0.54821301       0.67648583 </v>
   <v>       0.79072231       0.05303404       0.67476686 </v>
   <v>       0.84512371       0.47561438       0.66489507 </v>
   <v>       0.09186387       0.17383863       0.64728633 </v>
   <v>       0.10431866       0.70477283       0.65230936 </v>
   <v>       0.57980843       0.16748136       0.64789741 </v>
   <v>       0.57540928       0.66992529       0.65339509 </v>
   <v>       0.18485428       0.40875525       0.64754218 </v>
   <v>       0.17099245       0.92381018       0.64808312 </v>
   <v>       0.64567368       0.47926940       0.66001537 </v>
   <v>       0.67972304       0.91098401       0.64759925 </v>
   <v>       0.05813394       0.18346122       0.67302475 </v>
   <v>       0.04359818       0.67667199       0.67219219 </v>
   <v>       0.56712367       0.21020850       0.67273166 </v>
   <v>       0.53708354       0.70237935       0.67724734 </v>
   <v>       0.20378303       0.43636266       0.67370073 </v>
   <v>       0.20070742       0.95266991       0.67325526 </v>
   <v>       0.71659285       0.42670256       0.67064830 </v>
   <v>       0.69888090       0.94141403       0.67341802 </v>
   <v>       0.42044667       0.32297368       0.64972230 </v>
   <v>       0.42526196       0.83271650       0.64618112 </v>
   <v>       0.92558114       0.32042767       0.65230643 </v>
   <v>       0.91296636       0.81793789       0.65471097 </v>
   <v>       0.33571567       0.07336629       0.64621519 </v>
   <v>       0.32034985       0.58440843       0.65190651 </v>
   <v>       0.82271386       0.08230890       0.65000513 </v>
   <v>       0.85391331       0.55384035       0.64867271 </v>
   <v>       0.01359853       0.25863984       0.63243075 </v>
   <v>       0.02730876       0.79695023       0.63951280 </v>
   <v>       0.48909850       0.23599166       0.63127324 </v>
   <v>       0.50737514       0.74907116       0.63205464 </v>
   <v>       0.25421885       0.99653279       0.62935360 </v>
   <v>       0.25501052       0.49952857       0.63195001 </v>
   <v>       0.75658231       0.99555654       0.63097282 </v>
   <v>       0.72593117       0.56326891       0.64334505 </v>
   <v>       0.44874502       0.30128397       0.76888902 </v>
   <v>       0.44874501       0.80128391       0.76888902 </v>
   <v>       0.94874497       0.30128397       0.76888902 </v>
   <v>       0.94874501       0.80128391       0.76888902 </v>
   <v>       0.30127600       0.05129450       0.76887296 </v>
   <v>       0.30127601       0.55129450       0.76887296 </v>
   <v>       0.80127594       0.05129450       0.76887296 </v>
   <v>       0.80127598       0.55129450       0.76887296 </v>
   <v>       0.07877100       0.17118050       0.74344197 </v>
   <v>       0.07877101       0.67118045       0.74344197 </v>
   <v>       0.57877100       0.17118050       0.74344197 </v>
   <v>       0.57877099       0.67118045       0.74344197 </v>
   <v>       0.17119950       0.42117448       0.74342103 </v>
   <v>       0.17119950       0.92117451       0.74342103 </v>
   <v>       0.67119951       0.42117448       0.74342103 </v>
   <v>       0.67119950       0.92117451       0.74342103 </v>
   <v>       0.05125600       0.19871499       0.76888902 </v>
   <v>       0.05125600       0.69871493       0.76888902 </v>
   <v>       0.55125603       0.19871499       0.76888902 </v>
   <v>       0.55125602       0.69871493       0.76888902 </v>
   <v>       0.19872349       0.44870397       0.76887205 </v>
   <v>       0.19872349       0.94870397       0.76887205 </v>
   <v>       0.69872352       0.44870397       0.76887205 </v>
   <v>       0.69872351       0.94870397       0.76887205 </v>
   <v>       0.42123152       0.32881747       0.74344197 </v>
   <v>       0.42123151       0.82881744       0.74344197 </v>
   <v>       0.92123147       0.32881747       0.74344197 </v>
   <v>       0.92123151       0.82881744       0.74344197 </v>
   <v>       0.32880050       0.07882500       0.74342103 </v>
   <v>       0.32880049       0.57882496       0.74342103 </v>
   <v>       0.82880048       0.07882500       0.74342103 </v>
   <v>       0.82880052       0.57882496       0.74342103 </v>
   <v>       0.00000350       0.25000148       0.72582199 </v>
   <v>       0.00000350       0.75000145       0.72582199 </v>
   <v>       0.50000351       0.25000148       0.72582199 </v>
   <v>       0.50000350       0.75000145       0.72582199 </v>
   <v>       0.25000050       0.00000000       0.72580398 </v>
   <v>       0.25000052       0.50000000       0.72580398 </v>
   <v>       0.75000050       0.00000000       0.72580398 </v>
   <v>       0.75000049       0.50000000       0.72580398 </v>
   <v>       0.71895014       0.43965463       0.54158092 </v>
   <v>       0.73666394       0.49375535       0.51883235 </v>
   <v>       0.65874231       0.55339421       0.55932385 </v>
   <v>       0.70929893       0.63765121       0.55711222 </v>
   <v>       0.84808368       0.50472355       0.57012258 </v>
   <v>       0.78829348       0.57333427       0.57981012 </v>
   <v>       0.86794143       0.56162236       0.53004468 </v>
   <v>       0.79488086       0.62464503       0.52506584 </v>
   <v>       0.86817440       0.46275207       0.51856386 </v>
   <v>       0.86325571       0.42266454       0.54423605 </v>
   <v>       0.87002805       0.32503562       0.51817908 </v>
   <v>       0.78264032       0.32182629       0.53030956 </v>
   <v>       0.63549876       0.55122528       0.51984158 </v>
   <v>       0.68780155       0.63550314       0.51671547 </v>
   <v>       0.60654918       0.63271479       0.53257088 </v>
   <v>       0.75317133       0.46251590       0.59762283 </v>
   <v>       0.75471249       0.40858049       0.57426995 </v>
   <v>       0.68262904       0.47444332       0.57820104 </v>
   <v>       0.81863325       0.68837513       0.55958104 </v>
   <v>       0.90199724       0.68168724       0.54459519 </v>
   <v>       0.88844427       0.62238191       0.56647378 </v>
   <v>       0.81922465       0.38262672       0.48516805 </v>
   <v>       0.78201755       0.29407214       0.49141326 </v>
   <v>       0.66197041       0.31225332       0.52035847 </v>
   <v>       0.72876671       0.46183112       0.46983582 </v>
   <v>       0.53663525       0.36815091       0.52016575 </v>
   <v>       0.60192473       0.51574697       0.46942528 </v>
   <v>       0.50598531       0.46911952       0.49486711 </v>
   <v>       0.99123150       0.24256680       0.55531200 </v>
   <v>       0.03603930       0.76947694       0.56302796 </v>
   <v>       0.47109919       0.22915708       0.55835454 </v>
   <v>       0.50209391       0.75687666       0.55636928 </v>
   <v>       0.23793663       0.52910875       0.55904730 </v>
   <v>       0.25481142       0.99200103       0.55543092 </v>
   <v>       0.76595061       0.98450478       0.56282919 </v>
   <v>       0.00849131       0.24756822       0.64943922 </v>
   <v>       0.00878682       0.76276619       0.65300030 </v>
   <v>       0.50003766       0.24568083       0.64809349 </v>
   <v>       0.50007768       0.75134959       0.64947957 </v>
   <v>       0.25304830       0.49606351       0.64944087 </v>
   <v>       0.25355864       0.99872597       0.64682273 </v>
   <v>       0.74811372       0.51787366       0.65334442 </v>
   <v>       0.75160949       0.99656636       0.64840184 </v>
   <v>       0.49998898       0.24999498       0.74327702 </v>
   <v>       0.49998903       0.74999496       0.74327702 </v>
   <v>       0.99998898       0.24999498       0.74327702 </v>
   <v>       0.99998903       0.74999496       0.74327702 </v>
   <v>       0.25000050       0.00000100       0.74325596 </v>
   <v>       0.25000052       0.50000100       0.74325596 </v>
   <v>       0.75000050       0.00000100       0.74325596 </v>
   <v>       0.75000049       0.50000100       0.74325596 </v>
   <v>       0.70452092       0.38296624       0.49514408 </v>
   <v>       0.64941583       0.35679312       0.50908482 </v>
   <v>       0.68624312       0.44013276       0.48082127 </v>
   <v>       0.57858735       0.38714884       0.50891475 </v>
   <v>       0.61512409       0.47057325       0.48055678 </v>
   <v>       0.56146497       0.44401564       0.49477151 </v>
   <v>       0.76068464       0.47453250       0.53382680 </v>
   <v>       0.69579064       0.58534881       0.54887162 </v>
   <v>       0.79013034       0.52228834       0.57043172 </v>
   <v>       0.82523140       0.59541643       0.53771399 </v>
   <v>       0.83158076       0.43118540       0.52936742 </v>
   <v>       0.81688608       0.35486157       0.51932702 </v>
   <v>       0.65627147       0.60107265       0.52801332 </v>
   <v>       0.74163469       0.46364118       0.58038439 </v>
   <v>       0.85994510       0.64956919       0.55319457 </v>
   <v>       0.78256637       0.35275740       0.49670900 </v>
   <v>       0.05436916       0.24191995       0.56542730 </v>
   <v>       0.04346854       0.70935530       0.57448697 </v>
   <v>       0.53960525       0.20941363       0.56191006 </v>
   <v>       0.48490886       0.69939216       0.56818280 </v>
   <v>       0.44301543       0.29368881       0.56280697 </v>
   <v>       0.48231051       0.82523506       0.56033925 </v>
   <v>       0.92648151       0.24389981       0.56464174 </v>
   <v>       0.98031980       0.81628712       0.56417388 </v>
   <v>       0.24177619       0.46049739       0.56565550 </v>
   <v>       0.18827558       0.01431475       0.56095357 </v>
   <v>       0.69417000       0.98721390       0.56548756 </v>
   <v>       0.31554519       0.02670953       0.56065523 </v>
   <v>       0.29001085       0.57871736       0.56194028 </v>
   <v>       0.81174496       0.03800958       0.56771072 </v>
   <v>       0.05527002       0.19838640       0.65732959 </v>
   <v>       0.05484554       0.71072255       0.65970269 </v>
   <v>       0.55282476       0.20548961       0.65698987 </v>
   <v>       0.53974043       0.70501960       0.66109048 </v>
   <v>       0.21237943       0.44352958       0.65774746 </v>
   <v>       0.20554817       0.95652610       0.65697735 </v>
   <v>       0.70114715       0.47023118       0.66144028 </v>
   <v>       0.70787309       0.94705154       0.65734345 </v>
   <v>       0.46060280       0.29570357       0.65786528 </v>
   <v>       0.45304863       0.80003683       0.65677199 </v>
   <v>       0.95806544       0.28336934       0.66040266 </v>
   <v>       0.94440553       0.77796781       0.66148350 </v>
   <v>       0.30156067       0.04318093       0.65574541 </v>
   <v>       0.29169504       0.54566347       0.66019095 </v>
   <v>       0.79028780       0.04668754       0.65850531 </v>
   <v>       0.81981469       0.51568071       0.65592947 </v>
   <v>       0.04586250       0.20411950       0.75272599 </v>
   <v>       0.04586250       0.70411946       0.75272599 </v>
   <v>       0.54586251       0.20411950       0.75272599 </v>
   <v>       0.54586250       0.70411946       0.75272599 </v>
   <v>       0.20411900       0.45410100       0.75270499 </v>
   <v>       0.20411899       0.95410095       0.75270499 </v>
   <v>       0.70411898       0.45410100       0.75270499 </v>
   <v>       0.70411896       0.95410095       0.75270499 </v>
   <v>       0.45414002       0.29588849       0.75272697 </v>
   <v>       0.45414001       0.79588852       0.75272697 </v>
   <v>       0.95414002       0.29588849       0.75272697 </v>
[...]
   <v>       0.55494668       0.15587690       0.55903949 </v>
   <v>       0.49398724       0.64615492       0.56291899 </v>
   <v>       0.36722424       0.00611229       0.55631910 </v>
   <v>       0.28110787       0.63306732       0.55731301 </v>
   <v>       0.86742986       0.03073408       0.56467044 </v>
   <v>       0.05726937       0.24318250       0.58174117 </v>
   <v>       0.00760418       0.69428441       0.58652625 </v>
   <v>       0.57359771       0.24185786       0.57108346 </v>
   <v>       0.45362452       0.70373942       0.58180448 </v>
   <v>       0.28388952       0.43999327       0.57465046 </v>
   <v>       0.18058250       0.05694290       0.57131904 </v>
   <v>       0.66797029       0.02925625       0.57314064 </v>
   <v>       0.38798539       0.30231603       0.56020855 </v>
   <v>       0.50184300       0.86860737       0.55174512 </v>
   <v>       0.87829884       0.23491810       0.55634406 </v>
   <v>       0.98569391       0.86736050       0.55696266 </v>
   <v>       0.19830965       0.42472470       0.56300470 </v>
   <v>       0.14111665       0.98698763       0.55623607 </v>
   <v>       0.66449180       0.93946829       0.56273639 </v>
   <v>       0.43495723       0.18820431       0.55083100 </v>
   <v>       0.53571562       0.74643982       0.54226196 </v>
   <v>       0.99343624       0.24248657       0.53766668 </v>
   <v>       0.08132183       0.78072676       0.55172449 </v>
   <v>       0.18751563       0.54563892       0.55070927 </v>
   <v>       0.25935317       0.94192379       0.54576687 </v>
   <v>       0.78973928       0.93423222       0.55590684 </v>
   <v>       0.46618872       0.30940148       0.67365226 </v>
   <v>       0.44154894       0.80825738       0.67261885 </v>
   <v>       0.94952872       0.27680481       0.67640299 </v>
   <v>       0.92310054       0.74835379       0.67364646 </v>
   <v>       0.30790851       0.05077804       0.67191912 </v>
   <v>       0.29366644       0.54821301       0.67648583 </v>
   <v>       0.79072231       0.05303404       0.67476686 </v>
   <v>       0.84512371       0.47561438       0.66489507 </v>
   <v>       0.09186387       0.17383863       0.64728633 </v>
   <v>       0.10431866       0.70477283       0.65230936 </v>
   <v>       0.57980843       0.16748136       0.64789741 </v>
   <v>       0.57540928       0.66992529       0.65339509 </v>
   <v>       0.18485428       0.40875525       0.64754218 </v>
   <v>       0.17099245       0.92381018       0.64808312 </v>
   <v>       0.64567368       0.47926940       0.66001537 </v>
   <v>       0.67972304       0.91098401       0.64759925 </v>
   <v>       0.05813394       0.18346122       0.67302475 </v>
   <v>       0.04359818       0.67667199       0.67219219 </v>
   <v>       0.56712367       0.21020850       0.67273166 </v>
   <v>       0.53708354       0.70237935       0.67724734 </v>
   <v>       0.20378303       0.43636266       0.67370073 </v>
   <v>       0.20070742       0.95266991       0.67325526 </v>
   <v>       0.71659285       0.42670256       0.67064830 </v>
   <v>       0.69888090       0.94141403       0.67341802 </v>
   <v>       0.42044667       0.32297368       0.64972230 </v>
   <v>       0.42526196       0.83271650       0.64618112 </v>
   <v>       0.92558114       0.32042767       0.65230643 </v>
   <v>       0.91296636       0.81793789       0.65471097 </v>
   <v>       0.33571567       0.07336629       0.64621519 </v>
   <v>       0.32034985       0.58440843       0.65190651 </v>
   <v>       0.82271386       0.08230890       0.65000513 </v>
   <v>       0.85391331       0.55384035       0.64867271 </v>
   <v>       0.01359853       0.25863984       0.63243075 </v>
   <v>       0.02730876       0.79695023       0.63951280 </v>
   <v>       0.48909850       0.23599166       0.63127324 </v>
   <v>       0.50737514       0.74907116       0.63205464 </v>
   <v>       0.25421885       0.99653279       0.62935360 </v>
   <v>       0.25501052       0.49952857       0.63195001 </v>
   <v>       0.75658231       0.99555654       0.63097282 </v>
   <v>       0.72593117       0.56326891       0.64334505 </v>
   <v>       0.44874502       0.30128397       0.76888902 </v>
   <v>       0.44874501       0.80128391       0.76888902 </v>
   <v>       0.94874497       0.30128397       0.76888902 </v>
   <v>       0.94874501       0.80128391       0.76888902 </v>
   <v>       0.30127600       0.05129450       0.76887296 </v>
   <v>       0.30127601       0.55129450       0.76887296 </v>
   <v>       0.80127594       0.05129450       0.76887296 </v>
   <v>       0.80127598       0.55129450       0.76887296 </v>
   <v>       0.07877100       0.17118050       0.74344197 </v>
   <v>       0.07877101       0.67118045       0.74344197 </v>
   <v>       0.57877100       0.17118050       0.74344197 </v>
   <v>       0.57877099       0.67118045       0.74344197 </v>
   <v>       0.17119950       0.42117448       0.74342103 </v>
   <v>       0.17119950       0.92117451       0.74342103 </v>
   <v>       0.67119951       0.42117448       0.74342103 </v>
   <v>       0.67119950       0.92117451       0.74342103 </v>
   <v>       0.05125600       0.19871499       0.76888902 </v>
   <v>       0.05125600       0.69871493       0.76888902 </v>
   <v>       0.55125603       0.19871499       0.76888902 </v>
   <v>       0.55125602       0.69871493       0.76888902 </v>
   <v>       0.19872349       0.44870397       0.76887205 </v>
   <v>       0.19872349       0.94870397       0.76887205 </v>
   <v>       0.69872352       0.44870397       0.76887205 </v>
   <v>       0.69872351       0.94870397       0.76887205 </v>
   <v>       0.42123152       0.32881747       0.74344197 </v>
   <v>       0.42123151       0.82881744       0.74344197 </v>
   <v>       0.92123147       0.32881747       0.74344197 </v>
   <v>       0.92123151       0.82881744       0.74344197 </v>
   <v>       0.32880050       0.07882500       0.74342103 </v>
   <v>       0.32880049       0.57882496       0.74342103 </v>
   <v>       0.82880048       0.07882500       0.74342103 </v>
   <v>       0.82880052       0.57882496       0.74342103 </v>
   <v>       0.00000350       0.25000148       0.72582199 </v>
   <v>       0.00000350       0.75000145       0.72582199 </v>
   <v>       0.50000351       0.25000148       0.72582199 </v>
   <v>       0.50000350       0.75000145       0.72582199 </v>
   <v>       0.25000050       0.00000000       0.72580398 </v>
   <v>       0.25000052       0.50000000       0.72580398 </v>
   <v>       0.75000050       0.00000000       0.72580398 </v>
   <v>       0.75000049       0.50000000       0.72580398 </v>
   <v>       0.71895014       0.43965463       0.54158092 </v>
   <v>       0.73666394       0.49375535       0.51883235 </v>
   <v>       0.65874231       0.55339421       0.55932385 </v>
   <v>       0.70929893       0.63765121       0.55711222 </v>
   <v>       0.84808368       0.50472355       0.57012258 </v>
   <v>       0.78829348       0.57333427       0.57981012 </v>
   <v>       0.86794143       0.56162236       0.53004468 </v>
   <v>       0.79488086       0.62464503       0.52506584 </v>
   <v>       0.86817440       0.46275207       0.51856386 </v>
   <v>       0.86325571       0.42266454       0.54423605 </v>
   <v>       0.87002805       0.32503562       0.51817908 </v>
   <v>       0.78264032       0.32182629       0.53030956 </v>
   <v>       0.63549876       0.55122528       0.51984158 </v>
   <v>       0.68780155       0.63550314       0.51671547 </v>
   <v>       0.60654918       0.63271479       0.53257088 </v>
   <v>       0.75317133       0.46251590       0.59762283 </v>
   <v>       0.75471249       0.40858049       0.57426995 </v>
   <v>       0.68262904       0.47444332       0.57820104 </v>
   <v>       0.81863325       0.68837513       0.55958104 </v>
   <v>       0.90199724       0.68168724       0.54459519 </v>
   <v>       0.88844427       0.62238191       0.56647378 </v>
   <v>       0.81922465       0.38262672       0.48516805 </v>
   <v>       0.78201755       0.29407214       0.49141326 </v>
   <v>       0.66197041       0.31225332       0.52035847 </v>
   <v>       0.72876671       0.46183112       0.46983582 </v>
   <v>       0.53663525       0.36815091       0.52016575 </v>
   <v>       0.60192473       0.51574697       0.46942528 </v>
   <v>       0.50598531       0.46911952       0.49486711 </v>
   <v>       0.99123150       0.24256680       0.55531200 </v>
   <v>       0.03603930       0.76947694       0.56302796 </v>
   <v>       0.47109919       0.22915708       0.55835454 </v>
   <v>       0.50209391       0.75687666       0.55636928 </v>
   <v>       0.23793663       0.52910875       0.55904730 </v>
   <v>       0.25481142       0.99200103       0.55543092 </v>
   <v>       0.76595061       0.98450478       0.56282919 </v>
   <v>       0.00849131       0.24756822       0.64943922 </v>
   <v>       0.00878682       0.76276619       0.65300030 </v>
   <v>       0.50003766       0.24568083       0.64809349 </v>
   <v>       0.50007768       0.75134959       0.64947957 </v>
   <v>       0.25304830       0.49606351       0.64944087 </v>
   <v>       0.25355864       0.99872597       0.64682273 </v>
   <v>       0.74811372       0.51787366       0.65334442 </v>
   <v>       0.75160949       0.99656636       0.64840184 </v>
   <v>       0.49998898       0.24999498       0.74327702 </v>
   <v>       0.49998903       0.74999496       0.74327702 </v>
   <v>       0.99998898       0.24999498       0.74327702 </v>
   <v>       0.99998903       0.74999496       0.74327702 </v>
   <v>       0.25000050       0.00000100       0.74325596 </v>
   <v>       0.25000052       0.50000100       0.74325596 </v>
   <v>       0.75000050       0.00000100       0.74325596 </v>
   <v>       0.75000049       0.50000100       0.74325596 </v>
   <v>       0.70452092       0.38296624       0.49514408 </v>
   <v>       0.64941583       0.35679312       0.50908482 </v>
   <v>       0.68624312       0.44013276       0.48082127 </v>
   <v>       0.57858735       0.38714884       0.50891475 </v>
   <v>       0.61512409       0.47057325       0.48055678 </v>
   <v>       0.56146497       0.44401564       0.49477151 </v>
   <v>       0.76068464       0.47453250       0.53382680 </v>
   <v>       0.69579064       0.58534881       0.54887162 </v>
   <v>       0.79013034       0.52228834       0.57043172 </v>
   <v>       0.82523140       0.59541643       0.53771399 </v>
   <v>       0.83158076       0.43118540       0.52936742 </v>
   <v>       0.81688608       0.35486157       0.51932702 </v>
   <v>       0.65627147       0.60107265       0.52801332 </v>
   <v>       0.74163469       0.46364118       0.58038439 </v>
   <v>       0.85994510       0.64956919       0.55319457 </v>
   <v>       0.78256637       0.35275740       0.49670900 </v>
   <v>       0.05436916       0.24191995       0.56542730 </v>
   <v>       0.04346854       0.70935530       0.57448697 </v>
   <v>       0.53960525       0.20941363       0.56191006 </v>
   <v>       0.48490886       0.69939216       0.56818280 </v>
   <v>       0.44301543       0.29368881       0.56280697 </v>
   <v>       0.48231051       0.82523506       0.56033925 </v>
   <v>       0.92648151       0.24389981       0.56464174 </v>
   <v>       0.98031980       0.81628712       0.56417388 </v>
   <v>       0.24177619       0.46049739       0.56565550 </v>
   <v>       0.18827558       0.01431475       0.56095357 </v>
   <v>       0.69417000       0.98721390       0.56548756 </v>
   <v>       0.31554519       0.02670953       0.56065523 </v>
   <v>       0.29001085       0.57871736       0.56194028 </v>
   <v>       0.81174496       0.03800958       0.56771072 </v>
   <v>       0.05527002       0.19838640       0.65732959 </v>
   <v>       0.05484554       0.71072255       0.65970269 </v>
   <v>       0.55282476       0.20548961       0.65698987 </v>
   <v>       0.53974043       0.70501960       0.66109048 </v>
   <v>       0.21237943       0.44352958       0.65774746 </v>
   <v>       0.20554817       0.95652610       0.65697735 </v>
   <v>       0.70114715       0.47023118       0.66144028 </v>
   <v>       0.70787309       0.94705154       0.65734345 </v>
   <v>       0.46060280       0.29570357       0.65786528 </v>
   <v>       0.45304863       0.80003683       0.65677199 </v>
   <v>       0.95806544       0.28336934       0.66040266 </v>
   <v>       0.94440553       0.77796781       0.66148350 </v>
   <v>       0.30156067       0.04318093       0.65574541 </v>
   <v>       0.29169504       0.54566347       0.66019095 </v>
   <v>       0.79028780       0.04668754       0.65850531 </v>
   <v>       0.81981469       0.51568071       0.65592947 </v>
   <v>       0.04586250       0.20411950       0.75272599 </v>
   <v>       0.04586250       0.70411946       0.75272599 </v>
   <v>       0.54586251       0.20411950       0.75272599 </v>
   <v>       0.54586250       0.70411946       0.75272599 </v>
   <v>       0.20411900       0.45410100       0.75270499 </v>
   <v>       0.20411899       0.95410095       0.75270499 </v>
   <v>       0.70411898       0.45410100       0.75270499 </v>
   <v>       0.70411896       0.95410095       0.75270499 </v>
   <v>       0.45414002       0.29588849       0.75272697 </v>
   <v>       0.45414001       0.79588852       0.75272697 </v>
   <v>       0.95414002       0.29588849       0.75272697 </v>
   <v>       0.95414006       0.79588852       0.75272697 </v>
   <v>       0.29588249       0.04590050       0.75270499 </v>
   <v>       0.29588248       0.54590053       0.75270499 </v>
   <v>       0.79588244       0.04590050       0.75270499 </v>
   <v>       0.79588248       0.54590053       0.75270499 </v>
   <v>       0.76905367       0.54333836       0.54772613 </v>
   <v>       0.50858645       0.01517677       0.55123818 </v>
   <v>       0.48262499       0.50877007       0.55470061 </v>
   <v>       0.99541787       0.00722080       0.55190604 </v>
   <v>       0.03242908       0.50674475       0.55496116 </v>
   <v>       0.24972590       0.24781452       0.55327668 </v>
   <v>       0.23974859       0.76655902       0.55260833 </v>
   <v>       0.73229322       0.21082740       0.55601453 </v>
   <v>       0.70140184       0.79488114       0.55351403 </v>
   <v>       0.99990633       0.99205929       0.65449840 </v>
   <v>       0.01749626       0.49480349       0.65556471 </v>
   <v>       0.50245660       0.00395650       0.65428064 </v>
   <v>       0.50462996       0.49552492       0.65532840 </v>
   <v>       0.25707138       0.24289491       0.65512987 </v>
   <v>       0.25095348       0.75727339       0.65454883 </v>
   <v>       0.74680552       0.26776661       0.65545575 </v>
   <v>       0.74722022       0.74350506       0.65373024 </v>
   <v>       0.13379875       0.11822660       0.60747795 </v>
   <v>       0.14978084       0.60786951       0.61059020 </v>
   <v>       0.64003578       0.11395720       0.61025060 </v>
   <v>       0.62648256       0.62259262       0.61130843 </v>
   <v>       0.36311985       0.38807985       0.60851197 </v>
   <v>       0.37326997       0.88196118       0.60619663 </v>
   <v>       0.88665984       0.37074254       0.61094025 </v>
   <v>       0.86698261       0.87935730       0.60815612 </v>
   <v>       0.12216356       0.36493564       0.60857308 </v>
   <v>       0.12304800       0.87673326       0.60763209 </v>
   <v>       0.59260981       0.34606999       0.60302937 </v>
   <v>       0.61400331       0.86582182       0.61148278 </v>
   <v>       0.38385842       0.13196864       0.60573132 </v>
   <v>       0.38103889       0.63257699       0.61199075 </v>
   <v>       0.88453783       0.13909272       0.61219483 </v>
   <v>       0.90712726       0.64619430       0.61602989 </v>
   <v>       0.00000000       0.00000000       0.75492797 </v>
   <v>       0.00000000       0.50000000       0.75492797 </v>
   <v>       0.50000000       0.00000000       0.75492797 </v>
   <v>       0.49999999       0.50000000       0.75492797 </v>
   <v>       0.25000050       0.25000000       0.75493902 </v>
   <v>       0.25000051       0.74999997       0.75493902 </v>
   <v>       0.75000047       0.25000000       0.75493902 </v>
   <v>       0.75000046       0.74999997       0.75493902 </v>
   <v>       0.13579050       0.11421000       0.70478299 </v>
   <v>       0.13579050       0.61420998       0.70478299 </v>
   <v>       0.63579045       0.11421000       0.70478299 </v>
   <v>       0.63579049       0.61420998       0.70478299 </v>
   <v>       0.36420952       0.38578999       0.70478299 </v>
   <v>       0.36420950       0.88578996       0.70478299 </v>
   <v>       0.86420954       0.38578999       0.70478299 </v>
   <v>       0.86420953       0.88578996       0.70478299 </v>
   <v>       0.11421799       0.36421899       0.70478098 </v>
   <v>       0.11421799       0.86421899       0.70478098 </v>
   <v>       0.61421800       0.36421899       0.70478098 </v>
   <v>       0.61421799       0.86421899       0.70478098 </v>
   <v>       0.38578201       0.13578149       0.70478202 </v>
   <v>       0.38578200       0.63578149       0.70478202 </v>
   <v>       0.88578199       0.13578149       0.70478202 </v>
   <v>       0.88578203       0.63578149       0.70478202 </v>
   <v>       0.13466700       0.11533200       0.80125603 </v>
   <v>       0.13466699       0.61533199       0.80125603 </v>
   <v>       0.63466699       0.11533200       0.80125603 </v>
   <v>       0.63466698       0.61533199       0.80125603 </v>
   <v>       0.36533300       0.38466799       0.80125603 </v>
   <v>       0.36533299       0.88466796       0.80125603 </v>
   <v>       0.86533295       0.38466799       0.80125603 </v>
   <v>       0.86533294       0.88466796       0.80125603 </v>
   <v>       0.11532850       0.36533700       0.80126500 </v>
   <v>       0.11532850       0.86533698       0.80126500 </v>
   <v>       0.61532850       0.36533700       0.80126500 </v>
   <v>       0.61532849       0.86533698       0.80126500 </v>
   <v>       0.38467151       0.13466300       0.80126500 </v>
   <v>       0.38467150       0.63466297       0.80126500 </v>
   <v>       0.88467149       0.13466300       0.80126500 </v>
   <v>       0.88467153       0.63466297       0.80126500 </v>
   <v>       0.99688699       0.00284275       0.60497464 </v>
   <v>       0.00699590       0.50620663       0.60492721 </v>
   <v>       0.50207197       0.00604073       0.60420044 </v>
   <v>       0.50056787       0.50145590       0.60489369 </v>
   <v>       0.25048418       0.25525886       0.60465048 </v>
   <v>       0.24676221       0.75340880       0.60384587 </v>
   <v>       0.74553404       0.25682740       0.60537481 </v>
   <v>       0.74084366       0.75726488       0.60249752 </v>
   <v>       0.00000050       0.00000050       0.70482896 </v>
   <v>       0.00000050       0.50000048       0.70482896 </v>
   <v>       0.50000048       0.00000050       0.70482896 </v>
   <v>       0.50000046       0.50000048       0.70482896 </v>
   <v>       0.24999999       0.24999947       0.70482499 </v>
   <v>       0.25000001       0.74999950       0.70482499 </v>
   <v>       0.74999999       0.24999947       0.70482499 </v>
   <v>       0.74999998       0.74999950       0.70482499 </v>
   <v>       0.00000000       0.00000000       0.80731797 </v>
   <v>       0.00000000       0.50000000       0.80731797 </v>
   <v>       0.50000000       0.00000000       0.80731797 </v>
   <v>       0.49999999       0.50000000       0.80731797 </v>
   <v>       0.24999999       0.25000000       0.80731797 </v>
   <v>       0.25000001       0.74999997       0.80731797 </v>
   <v>       0.74999999       0.25000000       0.80731797 </v>
   <v>       0.74999998       0.74999997       0.80731797 </v>
  </varray>
 </structure>
</modeling>
