 vasp.6.2.1 16May21 (build Nov 15 2021 14:57:28) complex                         
 executed on             LinuxPGI date 2023.07.25  00:24:30
 running on    4 total cores
 distrk:  each k-point on    4 cores,    1 groups
 distr:  one band on NCORE=   1 cores,    4 groups


--------------------------------------------------------------------------------------------------------


 INCAR:
   SYSTEM = PSC
   ISTART = 1
   ICHARG = 1
   PREC = Normal
   ENCUT = 500
   GGA_COMPAT = F
   NELM = 600
   ISYM = 0
   LREAL = Auto
   ISMEAR = 0
   SIGMA = 0.05
   AMIN = 0.01
   BMIX = 0.01
   LVTOT = T
   LWAVE = F
   LDIPOL = T
   IDIPOL = 3
   LVDW = T
   IVDW = 12

 POTCAR:    PAW_PBE H 15Jun2001                   
 POTCAR:    PAW_PBE C 08Apr2002                   
 POTCAR:    PAW_PBE N 08Apr2002                   
 POTCAR:    PAW_PBE I 08Apr2002                   
 POTCAR:    PAW_PBE Pb 08Apr2002                  
 WARNING: For LVTOT=.TRUE., VASP.5.x writes the TOTAL local potential to the
     file LOCPOT. If you want only the Hartree contributions, use LVHAR=.TRUE.
     instead. 

 POTCAR:    PAW_PBE H 15Jun2001                   
   SHA256 =  030f79b5d3ab3cf0e668861823c8fb652ff669f3e15e46930bd03bfd63a607b6 H/POTCAR              
   COPYR  = (c) Copyright 15Jun2001 Georg Kresse                                                    
   COPYR  = This file is part of the software VASP. Any use, copying, and all other rights are regul
   COPYR  = If you do not have a valid VASP license, you may not use, copy or distribute this file. 
   VRHFIN =H: ultrasoft test                                                                        
   LEXCH  = PE                                                                                      
   EATOM  =    12.4884 eV,    0.9179 Ry                                                             
                                                                                                    
   TITEL  = PAW_PBE H 15Jun2001                                                                     
   LULTRA =        F    use ultrasoft PP ?                                                          
   IUNSCR =        0    unscreen: 0-lin 1-nonlin 2-no                                               
   RPACOR =    0.000    partial core radius                                                         
   POMASS =    1.000; ZVAL   =    1.000    mass and valenz                                          
   RCORE  =    1.100    outmost cutoff radius                                                       
   RWIGS  =    0.700; RWIGS  =    0.370    wigner-seitz radius (au A)                               
   ENMAX  =  250.000; ENMIN  =  200.000 eV                                                          
   RCLOC  =    0.701    cutoff for local pot                                                        
   LCOR   =        T    correct aug charges                                                         
   LPAW   =        T    paw PP                                                                      
   EAUG   =  400.000                                                                                
   RMAX   =    1.123    core radius for proj-oper                                                   
   RAUG   =    1.200    factor for augmentation sphere                                              
   RDEP   =    1.112    radius for radial grids                                                     
   RDEPT  =    0.926    core radius for aug-charge                                                  
                                                                                                    
   Atomic configuration                                                                             
    2 entries                                                                                       
     n  l   j            E        occ.                                                              
     1  0  0.50        -6.4927   1.0000                                                             
     2  1  0.50        -3.4015   0.0000                                                             
   Description                                                                                      
     l       E           TYP  RCUT    TYP  RCUT                                                     
     0     -6.4927494     23  1.100                                                                 
     0      6.8029130     23  1.100                                                                 
     1     -4.0817478     23  1.100                                                                 
  local pseudopotential read in
  atomic valenz-charges read in
  non local Contribution for L=            0  read in
    real space projection operators read in
  non local Contribution for L=            0  read in
    real space projection operators read in
  non local Contribution for L=            1  read in
    real space projection operators read in
    PAW grid and wavefunctions read in
 
   number of l-projection  operators is LMAX  =            3
   number of lm-projection operators is LMMAX =            5
 
 POTCAR:    PAW_PBE C 08Apr2002                   
   SHA256 =  253f7b50bb8d59471dbedb8285d89021f4a42ed1a2c5d38a03a736e69125dd95 C/POTCAR              
   COPYR  = (c) Copyright 08Apr2002 Georg Kresse                                                    
   COPYR  = This file is part of the software VASP. Any use, copying, and all other rights are regul
   COPYR  = If you do not have a valid VASP license, you may not use, copy or distribute this file. 
   VRHFIN =C: s2p2                                                                                  
   LEXCH  = PE                                                                                      
   EATOM  =   147.1560 eV,   10.8157 Ry                                                             
                                                                                                    
   TITEL  = PAW_PBE C 08Apr2002                                                                     
   LULTRA =        F    use ultrasoft PP ?                                                          
   IUNSCR =        1    unscreen: 0-lin 1-nonlin 2-no                                               
   RPACOR =    1.200    partial core radius                                                         
   POMASS =   12.011; ZVAL   =    4.000    mass and valenz                                          
   RCORE  =    1.500    outmost cutoff radius                                                       
   RWIGS  =    1.630; RWIGS  =    0.863    wigner-seitz radius (au A)                               
   ENMAX  =  400.000; ENMIN  =  300.000 eV                                                          
   ICORE  =        2    local potential                                                             
   LCOR   =        T    correct aug charges                                                         
   LPAW   =        T    paw PP                                                                      
   EAUG   =  644.873                                                                                
   DEXC   =    0.000                                                                                
   RMAX   =    1.529    core radius for proj-oper                                                   
   RAUG   =    1.300    factor for augmentation sphere                                              
   RDEP   =    1.501    radius for radial grids                                                     
   RDEPT  =    1.300    core radius for aug-charge                                                  
                                                                                                    
   Atomic configuration                                                                             
    4 entries                                                                                       
     n  l   j            E        occ.                                                              
     1  0  0.50      -273.3789   2.0000                                                             
     2  0  0.50       -13.7508   2.0000                                                             
     2  1  0.50        -5.2854   2.0000                                                             
     3  2  1.50        -5.4423   0.0000                                                             
   Description                                                                                      
     l       E           TYP  RCUT    TYP  RCUT                                                     
     0    -13.7508458     23  1.200                                                                 
     0     -8.2022199     23  1.200                                                                 
     1     -5.2854383     23  1.500                                                                 
     1     34.0145650     23  1.500                                                                 
     2     -5.4423304      7  1.500                                                                 
  local pseudopotential read in
  partial core-charges read in
  partial kinetic energy density read in
  atomic valenz-charges read in
  non local Contribution for L=            0  read in
    real space projection operators read in
  non local Contribution for L=            0  read in
    real space projection operators read in
  non local Contribution for L=            1  read in
    real space projection operators read in
  non local Contribution for L=            1  read in
    real space projection operators read in
    PAW grid and wavefunctions read in
 
   number of l-projection  operators is LMAX  =            4
   number of lm-projection operators is LMMAX =            8
 
 POTCAR:    PAW_PBE N 08Apr2002                   
   SHA256 =  e053789ff3a61a86a1b75d8a110fcc91f86041011e7b0817c7c99e4e8a6349d7 N/POTCAR              
   COPYR  = (c) Copyright 08Apr2002 Georg Kresse                                                    
   COPYR  = This file is part of the software VASP. Any use, copying, and all other rights are regul
   COPYR  = If you do not have a valid VASP license, you may not use, copy or distribute this file. 
   VRHFIN =N: s2p3                                                                                  
   LEXCH  = PE                                                                                      
   EATOM  =   264.5486 eV,   19.4438 Ry                                                             
                                                                                                    
   TITEL  = PAW_PBE N 08Apr2002                                                                     
   LULTRA =        F    use ultrasoft PP ?                                                          
   IUNSCR =        1    unscreen: 0-lin 1-nonlin 2-no                                               
   RPACOR =    1.200    partial core radius                                                         
   POMASS =   14.001; ZVAL   =    5.000    mass and valenz                                          
   RCORE  =    1.500    outmost cutoff radius                                                       
   RWIGS  =    1.400; RWIGS  =    0.741    wigner-seitz radius (au A)                               
   ENMAX  =  400.000; ENMIN  =  300.000 eV                                                          
   ICORE  =        2    local potential                                                             
   LCOR   =        T    correct aug charges                                                         
   LPAW   =        T    paw PP                                                                      
   EAUG   =  627.112                                                                                
   DEXC   =    0.000                                                                                
   RMAX   =    1.529    core radius for proj-oper                                                   
   RAUG   =    1.300    factor for augmentation sphere                                              
   RDEP   =    1.514    radius for radial grids                                                     
   RDEPT  =    1.338    core radius for aug-charge                                                  
                                                                                                    
   Atomic configuration                                                                             
    4 entries                                                                                       
     n  l   j            E        occ.                                                              
     1  0  0.50      -384.7179   2.0000                                                             
     2  0  0.50       -18.5828   2.0000                                                             
     2  1  0.50        -7.0898   3.0000                                                             
     3  2  1.50        -6.8029   0.0000                                                             
   Description                                                                                      
     l       E           TYP  RCUT    TYP  RCUT                                                     
     0    -18.5828119     23  1.200                                                                 
     0    -13.5018863     23  1.200                                                                 
     1     -7.0897853     23  1.500                                                                 
     1      9.5240782     23  1.500                                                                 
     2     -6.8029130      7  1.500                                                                 
  local pseudopotential read in
  partial core-charges read in
  partial kinetic energy density read in
  atomic valenz-charges read in
  non local Contribution for L=            0  read in
    real space projection operators read in
  non local Contribution for L=            0  read in
    real space projection operators read in
  non local Contribution for L=            1  read in
    real space projection operators read in
  non local Contribution for L=            1  read in
    real space projection operators read in
    PAW grid and wavefunctions read in
 
   number of l-projection  operators is LMAX  =            4
   number of lm-projection operators is LMMAX =            8
 
 POTCAR:    PAW_PBE I 08Apr2002                   
   SHA256 =  e40f3f59b681c1fc3e3091736183c4589116986673d2b852a5012aec72758799 I/POTCAR              
   COPYR  = (c) Copyright 08Apr2002 Georg Kresse                                                    
   COPYR  = This file is part of the software VASP. Any use, copying, and all other rights are regul
   COPYR  = If you do not have a valid VASP license, you may not use, copy or distribute this file. 
   VRHFIN =I : s2p5                                                                                 
   LEXCH  = PE                                                                                      
   EATOM  =   315.8678 eV,   23.2156 Ry                                                             
                                                                                                    
   TITEL  = PAW_PBE I 08Apr2002                                                                     
   LULTRA =        F    use ultrasoft PP ?                                                          
   IUNSCR =        1    unscreen: 0-lin 1-nonlin 2-no                                               
   RPACOR =    2.200    partial core radius                                                         
   POMASS =  126.904; ZVAL   =    7.000    mass and valenz                                          
   RCORE  =    2.300    outmost cutoff radius                                                       
   RWIGS  =    2.810; RWIGS  =    1.487    wigner-seitz radius (au A)                               
   ENMAX  =  175.647; ENMIN  =  131.735 eV                                                          
   ICORE  =        3    local potential                                                             
   LCOR   =        T    correct aug charges                                                         
   LPAW   =        T    paw PP                                                                      
   EAUG   =  370.139                                                                                
   DEXC   =    0.000                                                                                
   RMAX   =    2.359    core radius for proj-oper                                                   
   RAUG   =    1.300    factor for augmentation sphere                                              
   RDEP   =    2.392    radius for radial grids                                                     
   RDEPT  =    2.170    core radius for aug-charge                                                  
                                                                                                    
   Atomic configuration                                                                             
   13 entries                                                                                       
     n  l   j            E        occ.                                                              
     1  0  0.50    -32976.3739   2.0000                                                             
     2  0  0.50     -5094.5933   2.0000                                                             
     2  1  1.50     -4572.0131   6.0000                                                             
     3  0  0.50     -1028.2813   2.0000                                                             
     3  1  1.50      -859.0250   6.0000                                                             
     3  2  2.50      -605.7620  10.0000                                                             
     4  0  0.50      -180.5540   2.0000                                                             
     4  1  1.50      -127.5306   6.0000                                                             
     4  2  2.50       -50.2720  10.0000                                                             
     5  0  0.50       -17.4058   2.0000                                                             
     5  1  0.50        -7.0851   5.0000                                                             
     5  2  1.50        -7.0750   0.0000                                                             
     4  3  2.50        -7.0750   0.0000                                                             
   Description                                                                                      
     l       E           TYP  RCUT    TYP  RCUT                                                     
     0    -17.4058016     23  2.300                                                                 
     0    -18.7663842     23  2.300                                                                 
     1     -7.0850686     23  2.300                                                                 
     1     -4.2150896     23  2.300                                                                 
     2     -7.0750295     23  2.300                                                                 
     3     -1.3605826     23  2.300                                                                 
  local pseudopotential read in
  partial core-charges read in
  partial kinetic energy density read in
  atomic valenz-charges read in
  non local Contribution for L=            0  read in
    real space projection operators read in
  non local Contribution for L=            0  read in
    real space projection operators read in
  non local Contribution for L=            1  read in
    real space projection operators read in
  non local Contribution for L=            1  read in
    real space projection operators read in
  non local Contribution for L=            2  read in
    real space projection operators read in
    PAW grid and wavefunctions read in
 
   number of l-projection  operators is LMAX  =            5
   number of lm-projection operators is LMMAX =           13
 
 POTCAR:    PAW_PBE Pb 08Apr2002                  
   SHA256 =  797118a27cf1bcd06b9881c67a26cdde129e3cd1a551dd4a281f9681ce847303 Pb/POTCAR             
   COPYR  = (c) Copyright 08Apr2002 Georg Kresse                                                    
   COPYR  = This file is part of the software VASP. Any use, copying, and all other rights are regul
   COPYR  = If you do not have a valid VASP license, you may not use, copy or distribute this file. 
   VRHFIN =Pb:                                                                                      
   LEXCH  = PE                                                                                      
   EATOM  =    96.9868 eV,    7.1283 Ry                                                             
                                                                                                    
   TITEL  = PAW_PBE Pb 08Apr2002                                                                    
   LULTRA =        F    use ultrasoft PP ?                                                          
   IUNSCR =        1    unscreen: 0-lin 1-nonlin 2-no                                               
   RPACOR =    2.200    partial core radius                                                         
   POMASS =  207.200; ZVAL   =    4.000    mass and valenz                                          
   RCORE  =    3.100    outmost cutoff radius                                                       
   RWIGS  =    3.260; RWIGS  =    1.725    wigner-seitz radius (au A)                               
   ENMAX  =   97.973; ENMIN  =   73.480 eV                                                          
   ICORE  =        3    local potential                                                             
   LCOR   =        T    correct aug charges                                                         
   LPAW   =        T    paw PP                                                                      
   EAUG   =  234.873                                                                                
   DEXC   =    0.000                                                                                
   RMAX   =    3.158    core radius for proj-oper                                                   
   RAUG   =    1.300    factor for augmentation sphere                                              
   RDEP   =    3.202    radius for radial grids                                                     
   RDEPT  =    2.659    core radius for aug-charge                                                  
                                                                                                    
   Atomic configuration                                                                             
   17 entries                                                                                       
     n  l   j            E        occ.                                                              
     1  0  0.50    -88091.8466   2.0000                                                             
     2  0  0.50    -15753.4197   2.0000                                                             
     2  1  1.50    -13508.1797   6.0000                                                             
     3  0  0.50     -3781.7194   2.0000                                                             
     3  1  1.50     -3138.2529   6.0000                                                             
     3  2  2.50     -2483.2977  10.0000                                                             
     4  0  0.50      -856.2895   2.0000                                                             
     4  1  1.50      -645.4943   6.0000                                                             
     4  2  2.50      -401.8768  10.0000                                                             
     4  3  3.50      -132.9059  14.0000                                                             
     5  0  0.50      -144.0950   2.0000                                                             
     5  1  1.50       -85.7879   6.0000                                                             
     5  2  2.50       -21.1769  10.0000                                                             
     6  0  0.50       -12.0372   2.0000                                                             
     6  1  1.50        -3.4971   2.0000                                                             
     6  2  2.50        -1.3606   0.0000                                                             
     5  3  2.50        -2.7212   0.0000                                                             
   Description                                                                                      
     l       E           TYP  RCUT    TYP  RCUT                                                     
     0    -12.0371566     23  3.100                                                                 
     0    -13.3977392     23  3.100                                                                 
     1     -3.4971341     23  3.100                                                                 
     1     -5.4423304     23  3.100                                                                 
     2     -1.3605826     23  3.100                                                                 
     3     -1.3605826     23  3.100                                                                 
  local pseudopotential read in
  partial core-charges read in
  partial kinetic energy density read in
  atomic valenz-charges read in
  non local Contribution for L=            0  read in
    real space projection operators read in
  non local Contribution for L=            0  read in
    real space projection operators read in
  non local Contribution for L=            1  read in
    real space projection operators read in
  non local Contribution for L=            1  read in
    real space projection operators read in
  non local Contribution for L=            2  read in
    real space projection operators read in
    PAW grid and wavefunctions read in
 
   number of l-projection  operators is LMAX  =            5
   number of lm-projection operators is LMMAX =           13
 
 Optimization of the real space projectors (new method)

 maximal supplied QI-value         = 34.20
 optimisation between [QCUT,QGAM] = [ 11.29, 22.57] = [ 35.68,142.71] Ry 
 Optimized for a Real-space Cutoff    1.16 Angstroem

   l    n(q)    QCUT    max X(q) W(low)/X(q) W(high)/X(q)  e(spline) 
   0      8    11.287    19.460    0.40E-03    0.73E-03    0.16E-06
   0      8    11.287    12.209    0.38E-03    0.70E-03    0.15E-06
   1      7    11.287     4.655    0.22E-03    0.25E-04    0.22E-06
 Optimization of the real space projectors (new method)

 maximal supplied QI-value         = 25.13
 optimisation between [QCUT,QGAM] = [ 11.31, 22.87] = [ 35.82,146.48] Ry 
 Optimized for a Real-space Cutoff    1.00 Angstroem

   l    n(q)    QCUT    max X(q) W(low)/X(q) W(high)/X(q)  e(spline) 
   0      7    11.310   115.676    0.43E-03    0.13E-02    0.19E-06
   0      7    11.310    87.132    0.43E-03    0.13E-02    0.18E-06
   1      6    11.310     4.429    0.42E-03    0.74E-03    0.11E-06
   1      6    11.310     2.733    0.34E-03    0.55E-03    0.92E-07
 Optimization of the real space projectors (new method)

 maximal supplied QI-value         = 25.13
 optimisation between [QCUT,QGAM] = [ 11.31, 22.87] = [ 35.82,146.48] Ry 
 Optimized for a Real-space Cutoff    1.27 Angstroem

   l    n(q)    QCUT    max X(q) W(low)/X(q) W(high)/X(q)  e(spline) 
   0      9    11.310    79.467    0.75E-04    0.16E-03    0.36E-06
   0      9    11.310    66.151    0.74E-04    0.16E-03    0.36E-06
   1      8    11.310    17.416    0.35E-03    0.12E-03    0.95E-06
   1      8    11.310    12.382    0.37E-03    0.13E-03    0.98E-06
 Optimization of the real space projectors (new method)

 maximal supplied QI-value         = 16.25
 optimisation between [QCUT,QGAM] = [ 11.38, 22.75] = [ 36.24,144.96] Ry 
 Optimized for a Real-space Cutoff    1.31 Angstroem

   l    n(q)    QCUT    max X(q) W(low)/X(q) W(high)/X(q)  e(spline) 
   0      9    11.376   194.483    0.24E-03    0.23E-03    0.67E-07
   0      9    11.376   190.334    0.23E-03    0.22E-03    0.65E-07
   1      8    11.376   116.687    0.25E-03    0.63E-04    0.16E-06
   1      8    11.376    88.696    0.25E-03    0.61E-04    0.16E-06
   2      8    11.376     4.877    0.17E-03    0.14E-03    0.29E-07
 Optimization of the real space projectors (new method)

 maximal supplied QI-value         = 12.09
 optimisation between [QCUT,QGAM] = [ 11.37, 22.86] = [ 36.19,146.31] Ry 
 Optimized for a Real-space Cutoff    1.66 Angstroem

   l    n(q)    QCUT    max X(q) W(low)/X(q) W(high)/X(q)  e(spline) 
   0     11    11.369   135.111    0.12E-03    0.69E-04    0.19E-05
   0     11    11.369   146.850    0.11E-03    0.65E-04    0.18E-05
   1     11    11.369   148.016    0.17E-03    0.32E-03    0.89E-06
   1     11    11.369   122.989    0.17E-03    0.32E-03    0.91E-06
   2     10    11.369     8.916    0.12E-03    0.45E-04    0.33E-06
  PAW_PBE H 15Jun2001                   :
 energy of atom  1       EATOM=  -12.4884
 kinetic energy error for atom=    0.0020 (will be added to EATOM!!)
  PAW_PBE C 08Apr2002                   :
 energy of atom  2       EATOM= -147.1560
 kinetic energy error for atom=    0.0076 (will be added to EATOM!!)
  PAW_PBE N 08Apr2002                   :
 energy of atom  3       EATOM= -264.5486
 kinetic energy error for atom=    0.0138 (will be added to EATOM!!)
  PAW_PBE I 08Apr2002                   :
 energy of atom  4       EATOM= -315.8678
 kinetic energy error for atom=    0.0009 (will be added to EATOM!!)
  PAW_PBE Pb 08Apr2002                  :
 energy of atom  5       EATOM=  -96.9868
 kinetic energy error for atom=    0.0000 (will be added to EATOM!!)
 
 
 POSCAR:  H  C  N  I Pb
  positions in cartesian coordinates
  No initial velocities read in
 exchange correlation table for  LEXCH =        8
   RHO(1)=    0.500       N(1)  =     2000
   RHO(2)=  100.500       N(2)  =     4000
 


--------------------------------------------------------------------------------------------------------


 ion  position               nearest neighbor table
   1  0.442  0.321  0.571- 187 1.01
   2  0.421  0.829  0.571- 188 1.02
   3  0.971  0.321  0.580- 189 1.03
   4  0.953  0.811  0.579- 190 1.03
   5  0.320  0.953  0.573- 194 1.04
   6  0.338  0.563  0.571- 195 1.04
   7  0.797  0.077  0.577- 196 1.04
   8  0.023  0.136  0.562- 183 1.03
   9  0.063  0.648  0.566- 184 1.02
  10  0.564  0.176  0.553- 185 1.02
  11  0.519  0.656  0.563- 186 1.02
  12  0.360  0.019  0.557- 194 1.02
  13  0.284  0.627  0.557- 195 1.02
  14  0.870  0.026  0.566- 196 1.02
  15  0.983  0.187  0.583- 183 1.03
  16  0.002  0.685  0.585- 184 1.02
  17  0.560  0.255  0.569- 185 1.02
  18  0.445  0.693  0.577- 186 1.03
  19  0.287  0.435  0.575- 191 1.04
  20  0.185  0.934  0.571- 192 1.04
  21  0.672  0.025  0.573- 193 1.03
  22  0.366  0.280  0.558- 187 1.04
  23  0.485  0.878  0.555- 188 1.03
  24  0.021  0.362  0.559- 189 1.03
  25  0.992  0.861  0.557- 190 1.03
  26  0.199  0.421  0.563- 191 1.01
  27  0.135  0.994  0.555- 192 1.02
  28  0.667  0.937  0.561- 193 1.02
  29  0.437  0.184  0.544- 146 1.11
  30  0.556  0.771  0.548- 147 1.10
  31  0.052  0.248  0.544- 144 1.09
  32  0.065  0.762  0.546- 145 1.11
  33  0.190  0.540  0.550- 148 1.10
  34  0.242  0.058  0.544- 149 1.10
  35  0.792  0.930  0.554- 150 1.10
  36  0.477  0.330  0.670- 205 1.01
  37  0.437  0.815  0.673- 206 1.02
  38  0.969  0.279  0.680- 207 1.01
  39  0.919  0.749  0.673- 208 1.02
  40  0.309  0.054  0.671- 209 1.01
  41  0.300  0.548  0.676- 210 1.01
  42  0.791  0.064  0.675- 211 1.01
  43  0.774  0.594  0.666- 212 1.02
  44  0.085  0.164  0.645- 197 1.03
  45  0.104  0.705  0.653- 198 1.04
  46  0.585  0.174  0.651- 199 1.03
  47  0.568  0.676  0.654- 200 1.01
  48  0.183  0.412  0.648- 201 1.04
  49  0.169  0.923  0.651- 202 1.03
  50  0.708  0.405  0.662- 203 1.02
  51  0.677  0.916  0.652- 204 1.03
  52  0.066  0.177  0.673- 197 1.05
  53  0.041  0.678  0.673- 198 1.03
  54  0.594  0.255  0.666- 199 1.02
  55  0.531  0.707  0.677- 200 1.01
  56  0.205  0.442  0.674- 201 1.01
  57  0.204  0.958  0.676- 202 1.02
  58  0.686  0.490  0.673- 203 1.02
  59  0.693  0.961  0.676- 204 1.01
  60  0.397  0.293  0.658- 205 1.03
  61  0.422  0.842  0.646- 206 1.02
  62  0.935  0.324  0.658- 207 1.02
  63  0.909  0.816  0.653- 208 1.02
  64  0.333  0.073  0.645- 209 1.03
  65  0.330  0.581  0.651- 210 1.03
  66  0.832  0.078  0.650- 211 1.03
  67  0.841  0.577  0.647- 212 1.00
  68  0.005  0.256  0.634- 151 1.11
  69  0.025  0.793  0.638- 152 1.10
  70  0.460  0.193  0.643- 153 1.10
  71  0.504  0.757  0.632- 154 1.11
  72  0.247  0.992  0.630- 156 1.10
  73  0.258  0.498  0.632- 155 1.10
  74  0.764  0.985  0.634- 158 1.10
  75  0.807  0.454  0.642- 157 1.09
  76  0.449  0.301  0.769- 221 1.02
  77  0.449  0.801  0.769- 222 1.02
  78  0.949  0.301  0.769- 223 1.02
  79  0.949  0.801  0.769- 224 1.02
  80  0.301  0.051  0.769- 225 1.02
  81  0.301  0.551  0.769- 226 1.02
  82  0.801  0.051  0.769- 227 1.02
  83  0.801  0.551  0.769- 228 1.02
  84  0.079  0.171  0.743- 213 1.02
  85  0.079  0.671  0.743- 214 1.02
  86  0.579  0.171  0.743- 215 1.02
  87  0.579  0.671  0.743- 216 1.02
  88  0.171  0.421  0.743- 217 1.02
  89  0.171  0.921  0.743- 218 1.02
  90  0.671  0.421  0.743- 219 1.02
  91  0.671  0.921  0.743- 220 1.02
  92  0.051  0.199  0.769- 213 1.02
  93  0.051  0.699  0.769- 214 1.02
  94  0.551  0.199  0.769- 215 1.02
  95  0.551  0.699  0.769- 216 1.02
  96  0.199  0.449  0.769- 217 1.02
  97  0.199  0.949  0.769- 218 1.02
  98  0.699  0.449  0.769- 219 1.02
  99  0.699  0.949  0.769- 220 1.02
 100  0.421  0.329  0.743- 221 1.02
 101  0.421  0.829  0.743- 222 1.02
 102  0.921  0.329  0.743- 223 1.02
 103  0.921  0.829  0.743- 224 1.02
 104  0.329  0.079  0.743- 225 1.02
 105  0.329  0.579  0.743- 226 1.02
 106  0.829  0.079  0.743- 227 1.02
 107  0.829  0.579  0.743- 228 1.02
 108  0.000  0.250  0.726- 161 1.09
 109  0.000  0.750  0.726- 162 1.09
 110  0.500  0.250  0.726- 159 1.09
 111  0.500  0.750  0.726- 160 1.09
 112  0.250  0.000  0.726- 163 1.09
 113  0.250  0.500  0.726- 164 1.09
 114  0.750  0.000  0.726- 165 1.09
 115  0.750  0.500  0.726- 166 1.09
 116  0.775  0.555  0.520- 173 1.10
 117  0.721  0.476  0.526- 173 1.09
 118  0.874  0.501  0.542- 174 1.10
 119  0.856  0.479  0.569- 174 1.10
 120  0.743  0.641  0.560- 175 1.10
 121  0.804  0.597  0.578- 175 1.10
 122  0.669  0.549  0.570- 176 1.10
 123  0.677  0.456  0.561- 176 1.10
 124  0.616  0.552  0.538- 177 1.09
 125  0.670  0.634  0.536- 177 1.09
 126  0.606  0.645  0.505- 178 1.10
 127  0.687  0.601  0.496- 178 1.11
 128  0.799  0.390  0.530- 179 1.10
 129  0.774  0.371  0.557- 179 1.10
 130  0.867  0.364  0.549- 179 1.10
 131  0.865  0.694  0.557- 180 1.10
 132  0.846  0.648  0.532- 180 1.10
 133  0.908  0.606  0.551- 180 1.10
 134  0.755  0.526  0.600- 181 1.09
 135  0.777  0.437  0.590- 181 1.09
 136  0.688  0.457  0.600- 181 1.10
 137  0.535  0.530  0.504- 182 1.09
 138  0.575  0.547  0.478- 182 1.11
 139  0.691  0.475  0.468- 168 1.07
 140  0.561  0.420  0.524- 169 1.10
 141  0.759  0.356  0.472- 170 1.08
 142  0.630  0.300  0.527- 171 1.09
 143  0.730  0.269  0.501- 172 1.09
 144  0.021  0.249  0.559-  31 1.09 183 1.31 189 1.32
 145  0.030  0.755  0.560-  32 1.11 184 1.31 190 1.32
 146  0.464  0.227  0.554-  29 1.11 185 1.31 187 1.33
 147  0.505  0.767  0.558-  30 1.10 186 1.32 188 1.33
 148  0.240  0.523  0.559-  33 1.10 191 1.31 195 1.32
 149  0.247  0.011  0.555-  34 1.10 192 1.31 194 1.32
 150  0.769  0.979  0.562-  35 1.10 196 1.31 193 1.32
 151  0.010  0.244  0.651-  68 1.11 197 1.30 207 1.32
 152  0.007  0.761  0.652-  69 1.10 198 1.30 208 1.32
 153  0.490  0.233  0.653-  70 1.10 199 1.31 205 1.33
 154  0.495  0.759  0.650-  71 1.11 206 1.31 200 1.31
 155  0.257  0.497  0.649-  73 1.10 210 1.30 201 1.33
 156  0.251  0.998  0.648-  72 1.10 202 1.31 209 1.33
 157  0.775  0.489  0.653-  75 1.09 203 1.32 212 1.33
 158  0.754  0.996  0.651-  74 1.10 204 1.30 211 1.33
 159  0.500  0.250  0.743- 110 1.09 221 1.31 215 1.31
 160  0.500  0.750  0.743- 111 1.09 222 1.31 216 1.31
 161  1.000  0.250  0.743- 108 1.09 223 1.31 213 1.31
 162  1.000  0.750  0.743- 109 1.09 224 1.31 214 1.31
 163  0.250  0.000  0.743- 112 1.09 225 1.31 218 1.31
 164  0.250  0.500  0.743- 113 1.09 226 1.31 217 1.31
 165  0.750  0.000  0.743- 114 1.09 227 1.31 220 1.31
 166  0.750  0.500  0.743- 115 1.09 228 1.31 219 1.31
 167  0.623  0.456  0.496- 168 1.40 169 1.41 182 1.51
 168  0.678  0.437  0.481- 139 1.07 167 1.40 170 1.41
 169  0.604  0.405  0.512- 140 1.10 171 1.41 167 1.41
 170  0.717  0.370  0.483- 141 1.08 172 1.40 168 1.41
 171  0.644  0.338  0.514- 142 1.09 172 1.40 169 1.41
 172  0.700  0.321  0.500- 143 1.09 170 1.40 171 1.40
 173  0.731  0.533  0.531- 117 1.09 116 1.10 177 1.52 229 1.53
 174  0.833  0.476  0.553- 119 1.10 118 1.10 179 1.51 229 1.53
 175  0.792  0.604  0.561- 121 1.10 120 1.10 180 1.52 229 1.53
 176  0.707  0.502  0.569- 123 1.10 122 1.10 181 1.51 229 1.52
 177  0.662  0.580  0.529- 125 1.09 124 1.09 173 1.52 178 1.55
 178  0.637  0.592  0.506- 126 1.10 127 1.11 182 1.55 177 1.55
 179  0.817  0.397  0.547- 128 1.10 130 1.10 129 1.10 174 1.51
 180  0.857  0.639  0.549- 133 1.10 131 1.10 132 1.10 175 1.52
 181  0.735  0.480  0.591- 135 1.09 134 1.09 136 1.10 176 1.51
 182  0.588  0.532  0.495- 137 1.09 138 1.11 167 1.51 178 1.55
 183  0.009  0.187  0.569-  15 1.03   8 1.03 144 1.31
 184  0.034  0.693  0.571-   9 1.02  16 1.02 145 1.31
 185  0.535  0.221  0.558-  10 1.02  17 1.02 146 1.31
 186  0.489  0.702  0.566-  11 1.02  18 1.03 147 1.32
 187  0.422  0.283  0.561-   1 1.01  22 1.04 146 1.33
 188  0.465  0.828  0.561-   2 1.02  23 1.03 147 1.33
 189  0.000  0.314  0.566-   3 1.03  24 1.03 144 1.32
 190  0.986  0.811  0.565-   4 1.03  25 1.03 145 1.32
 191  0.243  0.455  0.565-  26 1.01  19 1.04 148 1.31
 192  0.186  0.976  0.560-  27 1.02  20 1.04 149 1.31
 193  0.697  0.983  0.565-  28 1.02  21 1.03 150 1.32
 194  0.313  0.995  0.562-  12 1.02   5 1.04 149 1.32
 195  0.291  0.574  0.562-  13 1.02   6 1.04 148 1.32
 196  0.815  0.030  0.570-  14 1.02   7 1.04 150 1.31
 197  0.056  0.192  0.657-  44 1.03  52 1.05 151 1.30
 198  0.052  0.711  0.660-  53 1.03  45 1.04 152 1.30
 199  0.561  0.221  0.657-  54 1.02  46 1.03 153 1.31
 200  0.533  0.711  0.661-  55 1.01  47 1.01 154 1.31
 201  0.213  0.447  0.658-  56 1.01  48 1.04 155 1.33
 202  0.205  0.958  0.659-  57 1.02  49 1.03 156 1.31
 203  0.718  0.460  0.663-  50 1.02  58 1.02 157 1.32
 204  0.706  0.956  0.661-  59 1.01  51 1.03 158 1.30
 205  0.453  0.291  0.661-  36 1.01  60 1.03 153 1.33
 206  0.449  0.808  0.657-  37 1.02  61 1.02 154 1.31
 207  0.969  0.284  0.664-  38 1.01  62 1.02 151 1.32
 208  0.941  0.777  0.660-  39 1.02  63 1.02 152 1.32
 209  0.301  0.045  0.655-  40 1.01  64 1.03 156 1.33
 210  0.298  0.544  0.660-  41 1.01  65 1.03 155 1.30
 211  0.795  0.050  0.659-  42 1.01  66 1.03 158 1.33
 212  0.798  0.559  0.655-  67 1.00  43 1.02 157 1.33
 213  0.046  0.204  0.753-  92 1.02  84 1.02 161 1.31
 214  0.046  0.704  0.753-  93 1.02  85 1.02 162 1.31
 215  0.546  0.204  0.753-  94 1.02  86 1.02 159 1.31
 216  0.546  0.704  0.753-  95 1.02  87 1.02 160 1.31
 217  0.204  0.454  0.753-  96 1.02  88 1.02 164 1.31
 218  0.204  0.954  0.753-  97 1.02  89 1.02 163 1.31
 219  0.704  0.454  0.753-  98 1.02  90 1.02 166 1.31
 220  0.704  0.954  0.753-  99 1.02  91 1.02 165 1.31
 221  0.454  0.296  0.753-  76 1.02 100 1.02 159 1.31
 222  0.454  0.796  0.753-  77 1.02 101 1.02 160 1.31
 223  0.954  0.296  0.753-  78 1.02 102 1.02 161 1.31
 224  0.954  0.796  0.753-  79 1.02 103 1.02 162 1.31
 225  0.296  0.046  0.753-  80 1.02 104 1.02 163 1.31
 226  0.296  0.546  0.753-  81 1.02 105 1.02 164 1.31
 227  0.796  0.046  0.753-  82 1.02 106 1.02 165 1.31
 228  0.796  0.546  0.753-  83 1.02 107 1.02 166 1.31
 229  0.766  0.528  0.553- 176 1.52 173 1.53 175 1.53 174 1.53
 230  0.506  0.020  0.552- 304 3.26
 231  0.474  0.502  0.556- 305 3.09
 232  0.997  0.001  0.550- 302 3.47
 233  0.039  0.500  0.553- 303 3.35
 234  0.230  0.237  0.553- 306 3.17
 235  0.249  0.769  0.554- 307 3.14
 236  0.737  0.204  0.555- 308 3.07
 237  0.707  0.792  0.551- 309 3.25
 238  0.002  0.985  0.654- 302 3.06 310 3.17
 239  0.010  0.494  0.655- 311 3.10 303 3.10
 240  0.501  0.010  0.655- 312 3.13 304 3.15
 241  0.514  0.489  0.656- 313 3.10 305 3.21
 242  0.260  0.245  0.655- 314 3.15 306 3.21
 243  0.251  0.754  0.655- 315 3.13 307 3.18
 244  0.751  0.263  0.655- 316 3.14 308 3.27
 245  0.745  0.755  0.654- 317 3.17 309 3.30
 246  0.136  0.107  0.608- 306 3.12 302 3.24
 247  0.148  0.608  0.610- 307 3.13 303 3.19
 248  0.649  0.106  0.612- 308 3.12 304 3.27
 249  0.617  0.635  0.613- 309 3.12 305 3.41
 250  0.360  0.386  0.607- 305 3.14 306 3.37
 251  0.369  0.883  0.608- 304 3.25 307 3.29
 252  0.893  0.363  0.613- 303 3.27 308 3.51
 253  0.873  0.871  0.608- 302 3.15 309 3.30
 254  0.124  0.361  0.611- 306 3.10 303 3.27
 255  0.124  0.871  0.606- 307 3.17 302 3.26
 256  0.583  0.331  0.603- 308 3.18 305 3.29
 257  0.616  0.872  0.611- 309 3.02 304 3.25
 258  0.386  0.134  0.606- 304 3.07 306 3.23
 259  0.384  0.630  0.611- 305 3.24 307 3.28
 260  0.888  0.138  0.613- 302 3.22 308 3.43
 261  0.907  0.642  0.614- 303 3.19
 262  0.000  0.000  0.755- 310 3.13 318 3.27
 263  0.000  0.500  0.755- 311 3.13 319 3.27
 264  0.500  0.000  0.755- 312 3.13 320 3.27
 265  0.500  0.500  0.755- 313 3.13 321 3.27
 266  0.250  0.250  0.755- 314 3.13 322 3.27
 267  0.250  0.750  0.755- 315 3.13 323 3.27
 268  0.750  0.250  0.755- 316 3.13 324 3.27
 269  0.750  0.750  0.755- 317 3.13 325 3.27
 270  0.136  0.114  0.705- 310 3.20 314 3.20
 271  0.136  0.614  0.705- 311 3.20 315 3.20
 272  0.636  0.114  0.705- 312 3.20 316 3.20
 273  0.636  0.614  0.705- 313 3.20 317 3.20
 274  0.364  0.386  0.705- 313 3.20 314 3.20
 275  0.364  0.886  0.705- 312 3.20 315 3.20
 276  0.864  0.386  0.705- 311 3.20 316 3.20
 277  0.864  0.886  0.705- 310 3.20 317 3.20
 278  0.114  0.364  0.705- 314 3.21 311 3.21
 279  0.114  0.864  0.705- 315 3.21 310 3.21
 280  0.614  0.364  0.705- 316 3.21 313 3.21
 281  0.614  0.864  0.705- 317 3.21 312 3.21
 282  0.386  0.136  0.705- 314 3.21 312 3.21
 283  0.386  0.636  0.705- 315 3.21 313 3.21
 284  0.886  0.136  0.705- 316 3.21 310 3.21
 285  0.886  0.636  0.705- 317 3.21 311 3.21
 286  0.135  0.115  0.801- 318 3.22 322 3.22
 287  0.135  0.615  0.801- 319 3.22 323 3.22
 288  0.635  0.115  0.801- 320 3.22 324 3.22
 289  0.635  0.615  0.801- 321 3.22 325 3.22
 290  0.365  0.385  0.801- 321 3.22 322 3.22
 291  0.365  0.885  0.801- 320 3.22 323 3.22
 292  0.865  0.385  0.801- 319 3.22 324 3.22
 293  0.865  0.885  0.801- 318 3.22 325 3.22
 294  0.115  0.365  0.801- 319 3.23 322 3.23
 295  0.115  0.865  0.801- 318 3.23 323 3.23
 296  0.615  0.365  0.801- 321 3.23 324 3.23
 297  0.615  0.865  0.801- 320 3.23 325 3.23
 298  0.385  0.135  0.801- 320 3.23 322 3.23
 299  0.385  0.635  0.801- 321 3.23 323 3.23
 300  0.885  0.135  0.801- 318 3.23 324 3.23
 301  0.885  0.635  0.801- 319 3.23 325 3.23
 302  0.994  0.997  0.606- 238 3.06 253 3.15 260 3.22 246 3.24 255 3.26 232 3.47
 303  0.009  0.500  0.606- 239 3.10 247 3.19 261 3.19 254 3.27 252 3.27 233 3.35
 304  0.499  0.007  0.604- 258 3.07 240 3.15 251 3.25 257 3.25 230 3.26 248 3.27
 305  0.497  0.492  0.604- 231 3.09 250 3.14 241 3.21 259 3.24 256 3.29 249 3.41
 306  0.244  0.241  0.603- 254 3.10 246 3.12 234 3.17 242 3.21 258 3.23 250 3.37
 307  0.248  0.748  0.604- 247 3.13 235 3.14 255 3.17 243 3.18 259 3.28 251 3.29
 308  0.739  0.250  0.602- 236 3.07 248 3.12 256 3.18 244 3.27 260 3.43 252 3.51
 309  0.733  0.757  0.602- 257 3.02 249 3.12 237 3.25 245 3.30 253 3.30
 310  0.000  0.000  0.705- 262 3.13 238 3.17 270 3.20 277 3.20 279 3.21 284 3.21
 311  0.000  0.500  0.705- 239 3.10 263 3.13 271 3.20 276 3.20 278 3.21 285 3.21
 312  0.500  0.000  0.705- 264 3.13 240 3.13 272 3.20 275 3.20 281 3.21 282 3.21
 313  0.500  0.500  0.705- 241 3.10 265 3.13 273 3.20 274 3.20 280 3.21 283 3.21
 314  0.250  0.250  0.705- 266 3.13 242 3.15 270 3.20 274 3.20 282 3.21 278 3.21
 315  0.250  0.750  0.705- 267 3.13 243 3.13 271 3.20 275 3.20 283 3.21 279 3.21
 316  0.750  0.250  0.705- 268 3.13 244 3.14 272 3.20 276 3.20 284 3.21 280 3.21
 317  0.750  0.750  0.705- 269 3.13 245 3.17 273 3.20 277 3.20 285 3.21 281 3.21
 318  0.000  0.000  0.807- 286 3.22 293 3.22 300 3.23 295 3.23 262 3.27
 319  0.000  0.500  0.807- 287 3.22 292 3.22 301 3.23 294 3.23 263 3.27
 320  0.500  0.000  0.807- 288 3.22 291 3.22 298 3.23 297 3.23 264 3.27
 321  0.500  0.500  0.807- 289 3.22 290 3.22 299 3.23 296 3.23 265 3.27
 322  0.250  0.250  0.807- 290 3.22 286 3.22 294 3.23 298 3.23 266 3.27
 323  0.250  0.750  0.807- 291 3.22 287 3.22 299 3.23 295 3.23 267 3.27
 324  0.750  0.250  0.807- 292 3.22 288 3.22 296 3.23 300 3.23 268 3.27
 325  0.750  0.750  0.807- 293 3.22 289 3.22 297 3.23 301 3.23 269 3.27
 

IMPORTANT INFORMATION: All symmetrisations will be switched off!
NOSYMM: (Re-)initialisation of all symmetry stuff for point group C_1.


----------------------------------------------------------------------------------------

                                     Primitive cell                                     

  volume of cell :   20385.2105

  direct lattice vectors                    reciprocal lattice vectors
    18.060800552  0.000000000  0.000000000     0.055368531  0.000015077 -0.000000000
    -0.004918649 18.062799454  0.000000000     0.000000000  0.055362404  0.000000000
     0.000000000  0.000000000 62.487499237     0.000000000 -0.000000000  0.016003201

  length of vectors
    18.060800552 18.062800123 62.487499237     0.055368533  0.055362404  0.016003201

  position of ions in fractional coordinates (direct lattice)
     0.441738815  0.320996992  0.571187853
     0.420911371  0.829437285  0.570523719
     0.971155043  0.321213172  0.580055532
     0.952869821  0.811411146  0.578524892
     0.320397817  0.952778665  0.573134470
     0.338309502  0.562885865  0.570943969
     0.796601289  0.076855563  0.577481043
     0.022848091  0.136486497  0.562041309
     0.063062941  0.648304154  0.565952675
     0.563821468  0.176197629  0.552661992
     0.519377526  0.655723815  0.563289972
     0.359940711  0.019406764  0.556550038
     0.283751424  0.627056405  0.556859853
     0.869804448  0.026322514  0.565760986
     0.982793147  0.186621941  0.583454100
     0.002023862  0.684845074  0.584608750
     0.560346666  0.255064382  0.568885574
     0.445384217  0.693085951  0.576757326
     0.286615065  0.434616909  0.574687515
     0.185089137  0.933816977  0.571177841
     0.671925050  0.025123351  0.573422431
     0.365514408  0.280450547  0.558128234
     0.484979952  0.877835883  0.554934541
     0.020719809  0.362238016  0.559349242
     0.992378914  0.861052602  0.557428387
     0.199062611  0.420887077  0.563416157
     0.135225750  0.994232998  0.554654944
     0.666822930  0.936792861  0.561026030
     0.437116629  0.183814793  0.544158887
     0.556084359  0.770796408  0.548410165
     0.051674447  0.247980224  0.543774411
     0.065492741  0.761505438  0.546045861
     0.189633291  0.539621878  0.550103130
     0.241965263  0.057909484  0.543516303
     0.792037110  0.930281604  0.554419973
     0.477072620  0.330285824  0.669865182
     0.436650248  0.814561216  0.672932141
     0.968543213  0.279474872  0.680004295
     0.918607993  0.749455207  0.672576662
     0.309122251  0.053689644  0.671247234
     0.300393333  0.548432653  0.675828716
     0.790878010  0.064223330  0.675001219
     0.773568479  0.594316127  0.665841428
     0.084792570  0.164255000  0.645238919
     0.104329450  0.705486125  0.652985525
     0.584682393  0.174013045  0.650539357
     0.568010244  0.675955525  0.653820591
     0.183136103  0.412134274  0.648157227
     0.169241093  0.922874700  0.651329615
     0.707918513  0.405260911  0.661582825
     0.677246190  0.916039628  0.652072622
     0.066265113  0.176691921  0.672681664
     0.041101559  0.678061625  0.672907173
     0.594336509  0.255026447  0.665523921
     0.530521183  0.707480083  0.677475713
     0.205454316  0.442338626  0.674276099
     0.204186462  0.958094764  0.675505532
     0.685686008  0.490011255  0.673370034
     0.693220007  0.961039400  0.676465441
     0.396709847  0.292671262  0.658120524
     0.422232986  0.841732392  0.646437584
     0.934935679  0.323981408  0.657626467
     0.909028869  0.815910567  0.652533713
     0.333227074  0.072899042  0.644607201
     0.329557634  0.580926629  0.650863823
     0.831582385  0.077878182  0.649631826
     0.841281730  0.577215690  0.646544112
     0.004568699  0.256098715  0.633791317
     0.024952104  0.793176879  0.638228423
     0.459803037  0.192534109  0.643426545
     0.503578982  0.757370902  0.632272580
     0.247124252  0.992481841  0.630292387
     0.258436864  0.497785664  0.631756852
     0.763937399  0.984616536  0.633579666
     0.807089276  0.453927774  0.642436601
     0.448745018  0.301283966  0.768889017
     0.448745007  0.801283913  0.768889017
     0.948744965  0.301283966  0.768889017
     0.948745007  0.801283913  0.768889017
     0.301275995  0.051294496  0.768872961
     0.301276011  0.551294499  0.768872961
     0.801275943  0.051294496  0.768872961
     0.801275984  0.551294499  0.768872961
     0.078771004  0.171180501  0.743441971
     0.078771006  0.671180448  0.743441971
     0.578771004  0.171180501  0.743441971
     0.578770992  0.671180448  0.743441971
     0.171199499  0.421174482  0.743421032
     0.171199501  0.921174508  0.743421032
     0.671199512  0.421174482  0.743421032
     0.671199501  0.921174508  0.743421032
     0.051256000  0.198714991  0.768889017
     0.051256002  0.698714925  0.768889017
     0.551256027  0.198714991  0.768889017
     0.551256016  0.698714925  0.768889017
     0.198723491  0.448703970  0.768872046
     0.198723493  0.948703970  0.768872046
     0.698723518  0.448703970  0.768872046
     0.698723507  0.948703970  0.768872046
     0.421231519  0.328817467  0.743441971
     0.421231508  0.828817440  0.743441971
     0.921231466  0.328817467  0.743441971
     0.921231508  0.828817440  0.743441971
     0.328800503  0.078824997  0.743421032
     0.328800492  0.578824964  0.743421032
     0.828800477  0.078824997  0.743421032
     0.828800519  0.578824964  0.743421032
     0.000003500  0.250001478  0.725821992
     0.000003500  0.750001452  0.725821992
     0.500003506  0.250001478  0.725821992
     0.500003495  0.750001452  0.725821992
     0.250000502  0.000000000  0.725803983
     0.250000517  0.500000000  0.725803983
     0.750000502  0.000000000  0.725803983
     0.750000490  0.500000000  0.725803983
     0.775097005  0.555231994  0.520461948
     0.720691433  0.475859042  0.526090027
     0.873598876  0.501026863  0.542099271
     0.856285536  0.479480384  0.569092463
     0.743305392  0.641036022  0.559659912
     0.804260857  0.597419681  0.577846778
     0.668759122  0.548871032  0.570438863
     0.676657104  0.455793381  0.561387553
     0.615867131  0.552171786  0.537543917
     0.670096990  0.633930613  0.536368999
     0.606242090  0.644809157  0.505287373
     0.686640450  0.600787911  0.495787060
     0.799242487  0.389857445  0.530109691
     0.773729163  0.370771894  0.556921267
     0.867404059  0.363909618  0.549195905
     0.864602751  0.693614720  0.556554067
     0.846297948  0.647550942  0.532135547
     0.907870990  0.606402154  0.551345200
     0.755499928  0.526177154  0.600245972
     0.777122521  0.436662424  0.590316191
     0.687656803  0.456886293  0.599651981
     0.534801300  0.529564021  0.503906909
     0.575324068  0.546842333  0.478490113
     0.691476118  0.474658739  0.468403409
     0.561220232  0.419618164  0.524082240
     0.759425994  0.356199834  0.471629793
     0.630357164  0.299727516  0.527126855
     0.729785079  0.268704141  0.501464801
     0.021312230  0.249265610  0.558869349
     0.029724294  0.754678642  0.560309456
     0.464325955  0.226964072  0.553948077
     0.505398585  0.766845978  0.557997226
     0.239657471  0.523391705  0.558831133
     0.246534876  0.010965989  0.554546646
     0.769276854  0.979235244  0.562495807
     0.010042490  0.243808862  0.651102457
     0.007286477  0.760745943  0.652280550
     0.490121533  0.232935439  0.653405103
     0.495240054  0.758799714  0.649904525
     0.256761982  0.496985410  0.649347285
     0.250841060  0.997789047  0.647833615
     0.775251188  0.489490248  0.653231790
     0.754271024  0.996058003  0.650691975
     0.499988984  0.249994984  0.743277021
     0.499989025  0.749994958  0.743277021
     0.999988984  0.249994984  0.743277021
     0.999989025  0.749994958  0.743277021
     0.250000502  0.000001000  0.743255960
     0.250000517  0.500001003  0.743255960
     0.750000502  0.000001000  0.743255960
     0.750000491  0.500001003  0.743255960
     0.622724805  0.455899135  0.495976887
     0.678106842  0.437048058  0.481162278
     0.604329297  0.405025988  0.512317069
     0.716856188  0.369929612  0.483086797
     0.643724239  0.338178552  0.514189087
     0.700048950  0.320968402  0.499656212
     0.731387083  0.532966358  0.530962217
     0.832660235  0.476020709  0.552929623
     0.791583736  0.604425936  0.560817493
     0.706991470  0.501729336  0.568834355
     0.661520380  0.579663022  0.529228044
     0.636732984  0.592318420  0.505763024
     0.816701800  0.396567479  0.546821224
     0.856997597  0.638682564  0.549284180
     0.735026481  0.479715175  0.590708908
     0.587626463  0.531965419  0.495377585
     0.009197436  0.186552935  0.568922141
     0.033660138  0.692922859  0.571270755
     0.535265298  0.221133331  0.557969877
     0.488574782  0.701845934  0.566302110
     0.422196538  0.282603743  0.560820179
     0.465432548  0.827785456  0.560504259
     0.000404258  0.314467289  0.566086369
     0.985821799  0.810750383  0.565092762
     0.243382991  0.454531041  0.565364239
     0.185815384  0.975795967  0.559731216
     0.696597740  0.982739525  0.564860354
     0.313012802  0.994791627  0.562071589
     0.290768303  0.574221110  0.562241117
     0.815053732  0.029862935  0.569500076
     0.055607070  0.192115159  0.656858736
     0.052347233  0.711424863  0.659878566
     0.560519479  0.220698833  0.656986874
     0.533311452  0.711446246  0.661357316
     0.212690486  0.446940051  0.658266549
     0.205399819  0.957794447  0.659242086
     0.718456317  0.460175696  0.663323652
     0.705552513  0.955709109  0.660711435
     0.453049273  0.291106127  0.660747392
     0.448662083  0.808184256  0.657130335
     0.968693654  0.284432391  0.663915811
     0.941211437  0.777065924  0.659916598
     0.301149088  0.044627394  0.655497013
     0.297802004  0.544380957  0.659689502
     0.794730986  0.050094388  0.659363631
     0.798192797  0.558900220  0.655228161
     0.045862501  0.204119496  0.752725994
     0.045862500  0.704119456  0.752725994
     0.545862507  0.204119496  0.752725994
     0.545862496  0.704119456  0.752725994
     0.204119002  0.454101003  0.752704994
     0.204118991  0.954100951  0.752704994
     0.704118976  0.454101003  0.752704994
     0.704118964  0.954100951  0.752704994
     0.454140018  0.295888490  0.752726971
     0.454140007  0.795888516  0.752726971
     0.954140018  0.295888490  0.752726971
     0.954140060  0.795888516  0.752726971
     0.295882492  0.045900498  0.752704994
     0.295882481  0.545900528  0.752704994
     0.795882439  0.045900498  0.752704994
     0.795882481  0.545900528  0.752704994
     0.765760916  0.528282093  0.553241514
     0.505781498  0.019526843  0.552296440
     0.474211111  0.501955152  0.555512232
     0.997098316  0.001289778  0.550100750
     0.039347449  0.500002006  0.552840128
     0.230128220  0.237284360  0.552831642
     0.249326431  0.769036185  0.554074445
     0.736999363  0.203554521  0.555311631
     0.707220390  0.791656041  0.551039109
     0.001864597  0.984510156  0.654340532
     0.010112414  0.493618764  0.655401230
     0.501222887  0.009536223  0.654791794
     0.513908552  0.488959842  0.655551834
     0.260241399  0.244661519  0.654511953
     0.251038985  0.754311487  0.654679162
     0.750614814  0.263285196  0.654642961
     0.744523906  0.754532287  0.654188402
     0.135596860  0.107004919  0.608046666
     0.147712966  0.608360632  0.610294979
     0.649449244  0.105866304  0.611591198
     0.617487253  0.634588683  0.613334405
     0.360062913  0.386008625  0.606911734
     0.369490834  0.883456832  0.607574647
     0.893043454  0.363326177  0.613047971
     0.873353772  0.871007715  0.608278890
     0.123775198  0.360886237  0.610556079
     0.124138122  0.871272020  0.606330990
     0.582791223  0.331216489  0.603098349
     0.615904666  0.872252896  0.610873769
     0.386496375  0.133882936  0.606205660
     0.384444086  0.629852148  0.611139325
     0.888091872  0.137703233  0.612745359
     0.907461744  0.641623027  0.613816496
     0.000000000  0.000000000  0.754927972
     0.000000000  0.500000000  0.754927972
     0.500000000  0.000000000  0.754927972
     0.499999989  0.500000000  0.754927972
     0.250000496  0.250000000  0.754939022
     0.250000511  0.749999974  0.754939022
     0.750000470  0.250000000  0.754939022
     0.750000458  0.749999974  0.754939022
     0.135790500  0.114209997  0.704782994
     0.135790502  0.614209984  0.704782994
     0.635790447  0.114209997  0.704782994
     0.635790488  0.614209984  0.704782994
     0.364209516  0.385789989  0.704782994
     0.364209505  0.885789963  0.704782994
     0.864209542  0.385789989  0.704782994
     0.864209531  0.885789963  0.704782994
     0.114217990  0.364218986  0.704780979
     0.114217992  0.864218986  0.704780979
     0.614218004  0.364218986  0.704780979
     0.614217992  0.864218986  0.704780979
     0.385782012  0.135781489  0.704782017
     0.385782001  0.635781489  0.704782017
     0.885781985  0.135781489  0.704782017
     0.885782027  0.635781489  0.704782017
     0.134667000  0.115332001  0.801256025
     0.134666989  0.615331988  0.801256025
     0.634666987  0.115332001  0.801256025
     0.634666976  0.615331988  0.801256025
     0.365333002  0.384667985  0.801256025
     0.365332990  0.884667959  0.801256025
     0.865332949  0.384667985  0.801256025
     0.865332938  0.884667959  0.801256025
     0.115328503  0.365337004  0.801264999
     0.115328505  0.865336978  0.801264999
     0.615328503  0.365337004  0.801264999
     0.615328492  0.865336978  0.801264999
     0.384671513  0.134662996  0.801264999
     0.384671501  0.634662970  0.801264999
     0.884671486  0.134662996  0.801264999
     0.884671528  0.634662970  0.801264999
     0.994396297  0.996597069  0.605593294
     0.009267714  0.500016737  0.605785837
     0.499401946  0.007363917  0.604323875
     0.497253643  0.492120207  0.604421551
     0.243699122  0.240751664  0.603341379
     0.248490693  0.747650687  0.603873590
     0.739175409  0.250324151  0.602485800
     0.732520958  0.756608926  0.601537856
     0.000000500  0.000000500  0.704828963
     0.000000500  0.500000475  0.704828963
     0.500000475  0.000000500  0.704828963
     0.500000464  0.500000475  0.704828963
     0.249999994  0.249999472  0.704824995
     0.250000010  0.749999498  0.704824995
     0.749999994  0.249999472  0.704824995
     0.749999983  0.749999498  0.704824995
     0.000000000  0.000000000  0.807317968
     0.000000000  0.500000000  0.807317968
     0.500000000  0.000000000  0.807317968
     0.499999989  0.500000000  0.807317968
     0.249999994  0.250000000  0.807317968
     0.250000010  0.749999974  0.807317968
     0.749999994  0.250000000  0.807317968
     0.749999983  0.749999974  0.807317968

  ion indices of the primitive-cell ions
   primitive index   ion index
                 1           1
                 2           2
                 3           3
                 4           4
                 5           5
                 6           6
                 7           7
                 8           8
                 9           9
                10          10
                11          11
                12          12
                13          13
                14          14
                15          15
                16          16
                17          17
                18          18
                19          19
                20          20
                21          21
                22          22
                23          23
                24          24
                25          25
                26          26
                27          27
                28          28
                29          29
                30          30
                31          31
                32          32
                33          33
                34          34
                35          35
                36          36
                37          37
                38          38
                39          39
                40          40
                41          41
                42          42
                43          43
                44          44
                45          45
                46          46
                47          47
                48          48
                49          49
                50          50
                51          51
                52          52
                53          53
                54          54
                55          55
                56          56
                57          57
                58          58
                59          59
                60          60
                61          61
                62          62
                63          63
                64          64
                65          65
                66          66
                67          67
                68          68
                69          69
                70          70
                71          71
                72          72
                73          73
                74          74
                75          75
                76          76
                77          77
                78          78
                79          79
                80          80
                81          81
                82          82
                83          83
                84          84
                85          85
                86          86
                87          87
                88          88
                89          89
                90          90
                91          91
                92          92
                93          93
                94          94
                95          95
                96          96
                97          97
                98          98
                99          99
               100         100
               101         101
               102         102
               103         103
               104         104
               105         105
               106         106
               107         107
               108         108
               109         109
               110         110
               111         111
               112         112
               113         113
               114         114
               115         115
               116         116
               117         117
               118         118
               119         119
               120         120
               121         121
               122         122
               123         123
               124         124
               125         125
               126         126
               127         127
               128         128
               129         129
               130         130
               131         131
               132         132
               133         133
               134         134
               135         135
               136         136
               137         137
               138         138
               139         139
               140         140
               141         141
               142         142
               143         143
               144         144
               145         145
               146         146
               147         147
               148         148
               149         149
               150         150
               151         151
               152         152
               153         153
               154         154
               155         155
               156         156
               157         157
               158         158
               159         159
               160         160
               161         161
               162         162
               163         163
               164         164
               165         165
               166         166
               167         167
               168         168
               169         169
               170         170
               171         171
               172         172
               173         173
               174         174
               175         175
               176         176
               177         177
               178         178
               179         179
               180         180
               181         181
               182         182
               183         183
               184         184
               185         185
               186         186
               187         187
               188         188
               189         189
               190         190
               191         191
               192         192
               193         193
               194         194
               195         195
               196         196
               197         197
               198         198
               199         199
               200         200
               201         201
               202         202
               203         203
               204         204
               205         205
               206         206
               207         207
               208         208
               209         209
               210         210
               211         211
               212         212
               213         213
               214         214
               215         215
               216         216
               217         217
               218         218
               219         219
               220         220
               221         221
               222         222
               223         223
               224         224
               225         225
               226         226
               227         227
               228         228
               229         229
               230         230
               231         231
               232         232
               233         233
               234         234
               235         235
               236         236
               237         237
               238         238
               239         239
               240         240
               241         241
               242         242
               243         243
               244         244
               245         245
               246         246
               247         247
               248         248
               249         249
               250         250
               251         251
               252         252
               253         253
               254         254
               255         255
               256         256
               257         257
               258         258
               259         259
               260         260
               261         261
               262         262
               263         263
               264         264
               265         265
               266         266
               267         267
               268         268
               269         269
               270         270
               271         271
               272         272
               273         273
               274         274
               275         275
               276         276
               277         277
               278         278
               279         279
               280         280
               281         281
               282         282
               283         283
               284         284
               285         285
               286         286
               287         287
               288         288
               289         289
               290         290
               291         291
               292         292
               293         293
               294         294
               295         295
               296         296
               297         297
               298         298
               299         299
               300         300
               301         301
               302         302
               303         303
               304         304
               305         305
               306         306
               307         307
               308         308
               309         309
               310         310
               311         311
               312         312
               313         313
               314         314
               315         315
               316         316
               317         317
               318         318
               319         319
               320         320
               321         321
               322         322
               323         323
               324         324
               325         325

----------------------------------------------------------------------------------------

 
 
 KPOINTS: Automatic Mesh                          

Automatic generation of k-mesh.
 Grid dimensions read from file:
 generate k-points for:    3    3    1

 Generating k-lattice:

  Cartesian coordinates                     Fractional coordinates (reciprocal lattice)
     0.018456177  0.000005026 -0.000000000     0.333333333  0.000000000  0.000000000
     0.000000000  0.018454135  0.000000000     0.000000000  0.333333333  0.000000000
     0.000000000 -0.000000000  0.016003201     0.000000000  0.000000000  1.000000000

  Length of vectors
     0.018456178  0.018454135  0.016003201

  Shift w.r.t. Gamma in fractional coordinates (k-lattice)
     0.000000000  0.000000000  0.000000000

 
 Subroutine IBZKPT returns following result:
 ===========================================
 
 Found      5 irreducible k-points:
 
 Following reciprocal coordinates:
            Coordinates               Weight
  0.000000  0.000000  0.000000      1.000000
  0.333333  0.000000  0.000000      2.000000
  0.000000  0.333333  0.000000      2.000000
  0.333333  0.333333  0.000000      2.000000
 -0.333333  0.333333  0.000000      2.000000
 
 Following cartesian coordinates:
            Coordinates               Weight
  0.000000  0.000000  0.000000      1.000000
  0.018456  0.000005  0.000000      2.000000
  0.000000  0.018454  0.000000      2.000000
  0.018456  0.018459  0.000000      2.000000
 -0.018456  0.018449  0.000000      2.000000
 


--------------------------------------------------------------------------------------------------------




 Dimension of arrays:
   k-points           NKPTS =      5   k-points in BZ     NKDIM =      5   number of bands    NBANDS=    732
   number of dos      NEDOS =    301   number of ions     NIONS =    325
   non local maximal  LDIM  =      5   non local SUM 2l+1 LMDIM =     13
   total plane-waves  NPLWV = ******
   max r-space proj   IRMAX =   3336   max aug-charges    IRDMAX=  19845
   dimension x,y,z NGX =   100 NGY =  100 NGZ =  350
   dimension x,y,z NGXF=   200 NGYF=  200 NGZF=  700
   support grid    NGXF=   200 NGYF=  200 NGZF=  700
   ions per type =             143  39  47  72  24
   NGX,Y,Z   is equivalent  to a cutoff of   9.20,  9.20,  9.31 a.u.
   NGXF,Y,Z  is equivalent  to a cutoff of  18.41, 18.41, 18.62 a.u.

 SYSTEM =  PSC                                     
 POSCAR =   H  C  N  I Pb                          

 Startparameter for this run:
   NWRITE =      2    write-flag & timer
   PREC   = normal    normal or accurate (medium, high low for compatibility)
   ISTART =      0    job   : 0-new  1-cont  2-samecut
   ICHARG =      1    charge: 1-file 2-atom 10-const
   ISPIN  =      1    spin polarized calculation?
   LNONCOLLINEAR =      F non collinear calculations
   LSORBIT =      F    spin-orbit coupling
   INIWAV =      1    electr: 0-lowe 1-rand  2-diag
   LASPH  =      F    aspherical Exc in radial PAW
 Electronic Relaxation 1
   ENCUT  =  500.0 eV  36.75 Ry    6.06 a.u.  32.93 32.93113.93*2*pi/ulx,y,z
   ENINI  =  500.0     initial cutoff
   ENAUG  =  644.9 eV  augmentation charge cutoff
   NELM   =    600;   NELMIN=  2; NELMDL=  0     # of ELM steps 
   EDIFF  = 0.1E-03   stopping-criterion for ELM
   LREAL  =      T    real-space projection
   NLSPLINE    = F    spline interpolate recip. space projectors
   LCOMPAT=      F    compatible to vasp.4.4
   GGA_COMPAT  = F    GGA compatible to vasp.4.4-vasp.4.6
   LMAXPAW     = -100 max onsite density
   LMAXMIX     =    2 max onsite mixed and CHGCAR
   VOSKOWN=      0    Vosko Wilk Nusair interpolation
   ROPT   =   -0.00050  -0.00050  -0.00050  -0.00050
   ROPT   =   -0.00050
 Ionic relaxation
   EDIFFG = 0.1E-02   stopping-criterion for IOM
   NSW    =      0    number of steps for IOM
   NBLOCK =      1;   KBLOCK =      1    inner block; outer block 
   IBRION =     -1    ionic relax: 0-MD 1-quasi-New 2-CG
   NFREE  =      0    steps in history (QN), initial steepest desc. (CG)
   ISIF   =      2    stress and relaxation
   IWAVPR =     10    prediction:  0-non 1-charg 2-wave 3-comb
   ISYM   =      0    0-nonsym 1-usesym 2-fastsym
   LCORR  =      T    Harris-Foulkes like correction to forces

   POTIM  = 0.5000    time-step for ionic-motion
   TEIN   =    0.0    initial temperature
   TEBEG  =    0.0;   TEEND  =   0.0 temperature during run
   SMASS  =  -3.00    Nose mass-parameter (am)
   estimated Nose-frequenzy (Omega)   =  0.10E-29 period in steps = 0.13E+47 mass=  -0.745E-26a.u.
   SCALEE = 1.0000    scale energy and forces
   NPACO  =    256;   APACO  = 16.0  distance and # of slots for P.C.
   PSTRESS=    0.0 pullay stress

  Mass of Ions in am
   POMASS =   1.00 12.01 14.00126.90207.20
  Ionic Valenz
   ZVAL   =   1.00  4.00  5.00  7.00  4.00
  Atomic Wigner-Seitz radii
   RWIGS  =  -1.00 -1.00 -1.00 -1.00 -1.00
  virtual crystal weights 
   VCA    =   1.00  1.00  1.00  1.00  1.00
   NELECT =    1134.0000    total number of electrons
   NUPDOWN=      -1.0000    fix difference up-down

 DOS related values:
   EMIN   =  10.00;   EMAX   =-10.00  energy-range for DOS
   EFERMI =   0.00
   ISMEAR =     0;   SIGMA  =   0.05  broadening in eV -4-tet -1-fermi 0-gaus

 Electronic relaxation 2 (details)
   IALGO  =     38    algorithm
   LDIAG  =      T    sub-space diagonalisation (order eigenvalues)
   LSUBROT=      F    optimize rotation matrix (better conditioning)
   TURBO    =      0    0=normal 1=particle mesh
   IRESTART =      0    0=no restart 2=restart with 2 vectors
   NREBOOT  =      0    no. of reboots
   NMIN     =      0    reboot dimension
   EREF     =   0.00    reference energy to select bands
   IMIX   =      4    mixing-type and parameters
     AMIX     =   0.40;   BMIX     =  0.01
     AMIX_MAG =   1.60;   BMIX_MAG =  0.01
     AMIN     =   0.01
     WC   =   100.;   INIMIX=   1;  MIXPRE=   1;  MAXMIX= -45

 Intra band minimization:
   WEIMIN = 0.0000     energy-eigenvalue tresh-hold
   EBREAK =  0.34E-07  absolut break condition
   DEPER  =   0.30     relativ break condition  

   TIME   =   0.40     timestep for ELM

  volume/ion in A,a.u.               =      62.72       423.28
  Fermi-wavevector in a.u.,A,eV,Ry     =   0.624944  1.180972  5.313816  0.390554
  Thomas-Fermi vector in A             =   1.685677
 
 Write flags
   LWAVE        =      F    write WAVECAR
   LDOWNSAMPLE  =      F    k-point downsampling of WAVECAR
   LCHARG       =      T    write CHGCAR
   LVTOT        =      T    write LOCPOT, total local potential
   LVHAR        =      F    write LOCPOT, Hartree potential only
   LELF         =      F    write electronic localiz. function (ELF)
   LORBIT       =      0    0 simple, 1 ext, 2 COOP (PROOUT), +10 PAW based schemes


 Dipole corrections
   LMONO  =      F    monopole corrections only (constant potential shift)
   LDIPOL =      T    correct potential (dipole corrections)
   IDIPOL =      3    1-x, 2-y, 3-z, 4-all directions 
   EPSILON=  1.0000000 bulk dielectric constant

 Exchange correlation treatment:
   GGA     =    --    GGA type
   LEXCH   =     8    internal setting for exchange type
   VOSKOWN=      0    Vosko Wilk Nusair interpolation
   LHFCALC =     F    Hartree Fock is set to
   LHFONE  =     F    Hartree Fock one center treatment
   AEXX    =    0.0000 exact exchange contribution

 Linear response parameters
   LEPSILON=     F    determine dielectric tensor
   LRPA    =     F    only Hartree local field effects (RPA)
   LNABLA  =     F    use nabla operator in PAW spheres
   LVEL    =     F    velocity operator in full k-point grid
   LINTERFAST=   F  fast interpolation
   KINTER  =     0    interpolate to denser k-point grid
   CSHIFT  =0.1000    complex shift for real part using Kramers Kronig
   OMEGAMAX=  -1.0    maximum frequency
   DEG_THRESHOLD= 0.2000000E-02 threshold for treating states as degnerate
   RTIME   =   -0.100 relaxation time in fs
  (WPLASMAI=    0.000 imaginary part of plasma frequency in eV, 0.658/RTIME)
   DFIELD  = 0.0000000 0.0000000 0.0000000 field for delta impulse in time
 
 Orbital magnetization related:
   ORBITALMAG=     F  switch on orbital magnetization
   LCHIMAG   =     F  perturbation theory with respect to B field
   DQ        =  0.001000  dq finite difference perturbation B field
   LLRAUG    =     F  two centre corrections for induced B field



--------------------------------------------------------------------------------------------------------


 Static calculation
 charge density and potential will be updated during run
 non-spin polarized calculation
 Variant of blocked Davidson
 Davidson routine will perform the subspace rotation
 perform sub-space diagonalisation
    after iterative eigenvector-optimisation
 modified Broyden-mixing scheme, WC =      100.0
 initial mixing is a Kerker type mixing with AMIX =  0.4000 and BMIX =      0.0100
 Hartree-type preconditioning will be used
 using additional bands           165
 real space projection scheme for non local part
 use partial core corrections
[...]
     13.54561      0.00000     45.35368         0.002110     -0.003350      0.016687
     13.54315      9.03140     45.35368         0.007424     -0.009002      0.001524
     13.99614     10.02904     32.52237        -0.053646     -0.056171      0.079101
     13.01392      8.59535     32.87405        -0.021501     -0.046558     -0.014788
     15.77543      9.04995     33.87443        -0.156935     -0.061337      0.018281
     15.46284      8.66076     35.56116        -0.002450     -0.003282     -0.034804
     13.42154     11.57891     34.97175        -0.009429     -0.046308     -0.017691
     14.52266     10.79107     36.10820         0.128963      0.006309      0.041312
     12.07563      9.91415     35.64530        -0.060547     -0.176793     -0.023905
     12.21873      8.23290     35.07970         0.089045      0.023383     -0.134674
     11.12034      9.97377     33.58978        -0.146158      0.003576      0.234814
     12.09937     11.45056     33.51636         0.048483      0.313467      0.180141
     10.94605     11.64706     31.57414        -0.058737      0.092745     -0.033635
     12.39832     10.85191     30.98049        -0.103495      0.014452      0.006726
     14.43304      7.04192     33.12523         0.059640      0.011753      0.023622
     13.97234      6.69718     34.80062         0.157612      0.082214     -0.104587
     15.66422      6.57323     34.31788        -0.035886      0.087308     -0.031468
     15.61201     12.52862     34.77767         0.059270     -0.045533     -0.074468
     15.28163     11.69658     33.25182         0.027249      0.001765      0.079860
     16.39389     10.95332     34.45218         0.073633      0.074680     -0.003787
     13.64235      9.50423     37.50787         0.123044      0.125182     -0.031206
     14.03331      7.88735     36.88738         0.151476     -0.177682     -0.020824
     12.41739      8.25265     37.47075         0.064046      0.038078     -0.093907
      9.65633      9.56541     31.48788        -0.212092      0.050297      0.095143
     10.38812      9.87750     29.89965         0.106324      0.078055      0.342565
     12.48628      8.57367     29.26936         0.139828      0.396684     -0.433969
     10.13402      7.57948     32.74859         0.209298     -0.117571     -0.256918
     13.71409      6.43397     29.47097         0.291535     -0.089061     -0.265813
     11.38328      5.41392     32.93884         0.057913      0.026422     -0.055058
     13.17918      4.85355     31.33528         0.038903      0.054127     -0.038040
      0.38369      4.50243     34.92235         0.055351      0.093373      0.144974
      0.53313     13.63161     35.01234         0.136217      0.332511     -0.399810
      8.38498      4.09961     34.61483        -0.922162      0.574292      0.102232
      9.12413     13.85139     34.86785        -0.475564      0.197518      0.102971
      4.32583      9.45392     34.91996         0.200083      0.501685      0.046528
      4.45256      0.19808     34.65223         0.531485      0.144573      0.064830
     13.88894     17.68773     35.14896        -0.398656      0.025402      0.131596
      0.18018      4.40387     40.68576        -0.743234      0.903729     -0.663008
      0.12786     13.74120     40.75938        -0.820543      0.956063     -0.488478
      8.85084      4.20747     40.82965        -0.532650      0.559742      0.223579
      8.94070     13.70605     40.61091         0.136844     -0.017554     -0.947427
      4.63488      8.97695     40.57609        -0.758991     -0.903273     -0.129179
      4.52548     18.02286     40.48150         0.815280      0.748020     -0.245965
     13.99925      8.84156     40.81882         0.289233      0.555507      0.124066
     13.61784     17.99160     40.66011         0.940755      0.941665     -0.169348
      9.02897      4.51561     46.44552         0.009248      0.000885      0.004856
      9.02651     13.54701     46.44552         0.006059      0.010170      0.043209
     18.05937      4.51561     46.44552        -0.008114      0.026287      0.053848
     18.05691     13.54701     46.44552         0.013690      0.007685      0.019092
      4.51521      0.00002     46.44421         0.007277      0.003733      0.066851
      4.51275      9.03142     46.44421        -0.006321     -0.007322      0.039691
     13.54561      0.00002     46.44421        -0.004483     -0.007801      0.023805
     13.54315      9.03142     46.44421        -0.006070     -0.012518      0.018308
     11.24467      8.23481     30.99236        -0.081335     -0.034719      0.156941
     12.24500      7.89431     30.06663        -0.033190     -0.657793      0.675521
     10.91268      7.31590     32.01341         0.298723      0.006720     -0.111143
     12.94518      6.68196     30.18689        -0.439781      0.331296      0.140855
     11.62451      6.10845     32.13039        -0.331911      0.329017     -0.016675
     12.64187      5.79759     31.22227        -0.094913     -0.126055      0.119696
     13.20681      9.62686     33.17850         0.391390      0.070694     -0.116700
     15.03617      8.59827     34.55119        -0.019206      0.270002     -0.090486
     14.29366     10.91762     35.04408        -0.094047     -0.151420      0.069893
     12.76636      9.06264     35.54504        -0.229037      0.186651      0.191635
     11.94474     10.47034     33.07014        -0.217500     -0.423637     -0.430526
     11.49699     10.69893     31.60387         0.304659      0.001907     -0.196429
     14.74834      7.16312     34.16949        -0.294738     -0.059202      0.147084
     15.47492     11.53640     34.32339        -0.214521     -0.101789     -0.049628
     13.27281      8.66500     36.91192        -0.293008      0.024571      0.175821
     10.61039      9.60878     30.95491         0.206112     -0.236948     -0.052648
      0.16520      3.36967     35.55052         0.023377      0.189305     -0.305932
      0.60452     12.51613     35.69728         0.068928      0.167482     -0.379162
      9.66623      3.99429     34.86614        -0.091496     -0.263232     -0.194949
      8.82060     12.67730     35.38680        -0.067259      0.195958     -0.009745
      7.62382      5.10461     35.04425         0.083131     -1.030436     -0.626618
      8.40201     14.95212     35.02451         0.652475     -0.535769     -0.248040
      0.00575      5.68016     35.37332         0.072238     -0.108977     -0.213102
     17.80074     14.64442     35.31123         0.219746     -0.075024     -0.209892
      4.39346      8.21010     35.32820         0.436339     -0.108295      0.179783
      3.35117     17.62561     34.97620         0.126326     -0.474720      0.535025
     12.57628     17.75103     35.29671         0.451011      0.246337      0.199572
      5.64837     17.96872     35.12245        -0.690923     -0.444776      0.098394
      5.24868     10.37204     35.13304         0.254627     -0.693284      0.228278
     14.72038      0.53941     35.58664        -0.435652      0.587383      0.330885
      1.00336      3.47014     41.04546         0.764156     -0.872043      0.676213
      0.94193     12.85032     41.23416         0.955296     -0.870777      0.248503
     10.12234      3.98644     41.05347         0.273024     -0.652028     -0.283924
      9.62853     12.85071     41.32656        -0.112803      0.080758     -0.031833
      3.83916      8.07299     41.13343         0.246780      0.265114     -1.114758
      3.70497     17.30045     41.19439        -0.488724     -0.508311     -0.337884
     12.97363      8.31206     41.44944         0.299433      0.461666     -0.218648
     12.73814     17.26278     41.28621        -0.369100     -0.501010     -0.506599
      8.18100      5.25819     41.28845        -0.081774     -1.204751     -0.758398
      8.09922     14.59807     41.06243         0.021149     -0.020218     -0.033746
     17.49398      5.13765     41.48644         0.087636     -0.083625     -0.344625
     16.99521     14.03599     41.23654         0.202719     -0.114202      0.002449
      5.43877      0.80610     40.96037        -0.625922     -0.635985     -1.199538
      5.37586      9.83304     41.22235         0.553050      0.652467     -0.562617
     14.35323      0.90484     41.20198        -0.381398     -0.780899     -1.004224
     14.41325     10.09530     40.94357        -1.145447     -1.042869      0.661387
      0.82731      3.68697     47.03596         0.032185     -0.040365     -0.092836
      0.82485     12.71837     47.03596         0.022462     -0.027490     -0.074410
      9.85771      3.68697     47.03596         0.023406     -0.026986     -0.071255
      9.85525     12.71837     47.03596         0.027638     -0.029417     -0.101311
      3.68432      8.20234     47.03465        -0.009559     -0.007356     -0.067267
      3.68186     17.23373     47.03465        -0.012937     -0.009083     -0.067538
     12.71472      8.20234     47.03465        -0.013915     -0.009897     -0.075108
     12.71226     17.23373     47.03465        -0.011510     -0.012915     -0.061936
      8.20068      5.34457     47.03603        -0.022701      0.021121     -0.072923
      8.19822     14.37597     47.03603        -0.017714      0.013113     -0.097440
     17.23108      5.34457     47.03603        -0.002786      0.000338     -0.089658
     17.22862     14.37597     47.03603        -0.017786      0.016216     -0.069795
      5.34365      0.82909     47.03465         0.000808      0.002089     -0.066837
      5.34119      9.86049     47.03465         0.015450      0.018420     -0.071050
     14.37405      0.82909     47.03465         0.021441      0.016412     -0.062428
     14.37159      9.86049     47.03465         0.020425      0.024208     -0.075063
     13.82766      9.54225     34.57068         0.143101     -0.022360     -0.183028
      9.13472      0.35271     34.51162        -0.003567     -0.002201     -0.005826
      8.56216      9.06672     34.71257         0.047203      0.012367     -0.020186
     18.00839      0.02330     34.37442        -0.025302     -0.013867     -0.019757
      0.70819      9.03144     34.54560         0.001745      0.033023      0.022854
      4.15513      4.28602     34.54507         0.024979      0.016634     -0.026436
      4.49925     13.89095     34.62273         0.044234     -0.066569     -0.072103
     13.30980      3.67676     34.70004         0.014662      0.001583     -0.015113
     12.76907     14.29952     34.43306         0.008301     -0.066523      0.054588
      0.02883     17.78301     40.88810        -0.000613      0.006103     -0.025129
      0.18021      8.91614     40.95438        -0.024766      0.046396     -0.012049
      9.05244      0.17225     40.91630         0.019187      0.018780     -0.074447
      9.27919      8.83198     40.96379        -0.017665      0.004374     -0.074840
      4.69896      4.41927     40.89882        -0.020891     -0.002224      0.009654
      4.53025     13.62498     40.90926        -0.023914     -0.005492      0.030101
     13.55541      4.75567     40.90700         0.025375      0.037942      0.008672
     13.44299     13.62897     40.87860         0.029635     -0.019840     -0.025143
      2.44846      1.93281     37.99532        -0.003045     -0.031008      0.046602
      2.66482     10.98870     38.13581        -0.010435     -0.049585     -0.025719
     11.72905      1.91224     38.21680        -0.049076     -0.055183     -0.033335
     11.14919     11.46245     38.32573        -0.023509     -0.175597     -0.244172
      6.50113      6.97240     37.92440        -0.017184     -0.010835      0.040210
      6.66895     15.95770     37.96582        -0.009417      0.060569      0.003381
     16.12729      6.56269     38.30783        -0.047708      0.046667     -0.230468
     15.76918     15.73284     38.00983        -0.063636      0.053860     -0.000351
      2.23370      6.51862     38.15212        -0.018502      0.082549     -0.008630
      2.23775     15.73761     37.88811        -0.015402      0.008395      0.078183
     10.52405      5.98270     37.68611         0.045244      0.057572     -0.013342
     11.11944     15.75533     38.17197         0.016098      0.001305      0.037754
      6.97978      2.41830     37.88028        -0.027712      0.014174     -0.013627
      6.94027     11.37689     38.18857         0.019334      0.041423      0.004158
     16.03897      2.48731     38.28893        -0.011056     -0.076898     -0.006512
     16.38633     11.58951     38.35586        -0.130217      0.011751     -0.308274
      0.00000      0.00000     47.17356         0.003132      0.004862      0.320758
     -0.00246      9.03140     47.17356        -0.001077      0.003007      0.432521
      9.03040      0.00000     47.17356        -0.001261     -0.003726      0.411819
      9.02794      9.03140     47.17356         0.005813      0.002031      0.483697
      4.51398      4.51570     47.17425        -0.003650     -0.005454      0.426913
      4.51152     13.54710     47.17425         0.004902     -0.000191      0.429559
     13.54438      4.51570     47.17425         0.002438      0.000802      0.439794
     13.54192     13.54710     47.17425        -0.004274     -0.007156      0.397921
      2.45192      2.06295     44.04013        -0.002538     -0.039029     -0.028981
      2.44946     11.09435     44.04013         0.032987     -0.023594     -0.007131
     11.48232      2.06295     44.04013         0.068955     -0.040238     -0.057200
     11.47986     11.09435     44.04013         0.044257     -0.032675     -0.081491
      6.57602      6.96845     44.04013        -0.049555      0.064019      0.006522
      6.57356     15.99985     44.04013        -0.014844      0.017660     -0.012339
     15.60642      6.96845     44.04013         0.048663     -0.006991      0.039326
     15.60396     15.99985     44.04013        -0.031718      0.021189      0.012133
      2.06108      6.57881     44.04000         0.038028     -0.025651      0.004059
      2.05862     15.61021     44.04000         0.036689      0.040119      0.018151
     11.09148      6.57881     44.04000        -0.032838     -0.074936      0.001453
     11.08902     15.61021     44.04000        -0.046708     -0.020153      0.010450
      6.96686      2.45259     44.04007        -0.055577     -0.078964     -0.006494
      6.96440     11.48399     44.04007         0.036917      0.023903     -0.028350
     15.99726      2.45259     44.04007         0.039752      0.022884     -0.025349
     15.99481     11.48399     44.04007         0.015642      0.070227     -0.097636
      2.43163      2.08322     50.06849         0.000568     -0.020536      0.021811
      2.42917     11.11462     50.06849         0.012009     -0.009349      0.023950
     11.46203      2.08322     50.06849         0.008434     -0.014878      0.025769
     11.45957     11.11462     50.06849         0.017857     -0.002003      0.021616
      6.59631      6.94818     50.06849        -0.015905      0.005447      0.024562
      6.59385     15.97958     50.06849        -0.009277      0.009464      0.022115
     15.62671      6.94818     50.06849        -0.007800      0.011018      0.023420
     15.62425     15.97958     50.06849        -0.004381      0.015742      0.024140
      2.08113      6.59901     50.06905        -0.010920     -0.010942      0.023318
      2.07867     15.63041     50.06905        -0.018029     -0.001922      0.023312
     11.11153      6.59901     50.06905        -0.005311     -0.013405      0.023727
     11.10907     15.63041     50.06905        -0.007958     -0.014418      0.023803
      6.94681      2.43239     50.06905         0.010424      0.006694      0.024337
      6.94435     11.46379     50.06905         0.005463      0.015186      0.023170
     15.97721      2.43239     50.06905         0.021893     -0.000972      0.024045
     15.97475     11.46379     50.06905         0.006363      0.012532      0.022964
     17.95469     18.00133     37.84201         0.030360      0.091722      0.027443
      0.16492      9.03170     37.85404         0.012644      0.010288      0.023670
      9.01956      0.13301     37.76269         0.124361      0.029713     -0.012284
      8.97838      8.88907     37.76879         0.010908      0.030056      0.134999
      4.40022      4.34865     37.70129         0.034548      0.067553     -0.040065
      4.48426     13.50466     37.73455        -0.007666     -0.080212      0.011185
     13.34887      4.52155     37.64783         0.068402     -0.084555      0.066115
     13.22619     13.66648     37.58860         0.065782     -0.031960      0.103213
      0.00001      0.00001     44.04300        -0.075498     -0.134574      0.195770
     -0.00245      9.03141     44.04300        -0.019184     -0.080126      0.173373
      9.03041      0.00001     44.04300         0.010768      0.096095      0.161268
      9.02795      9.03141     44.04300        -0.081828     -0.045659      0.143240
      4.51397      4.51569     44.04275         0.086892      0.038507      0.089895
      4.51151     13.54709     44.04275        -0.086264      0.012242      0.117279
     13.54437      4.51569     44.04275         0.008815      0.026863      0.152889
     13.54191     13.54709     44.04275        -0.001817      0.145853      0.074680
      0.00000      0.00000     50.44728        -0.000203      0.001757     -0.605509
     -0.00246      9.03140     50.44728         0.000849     -0.003648     -0.635063
      9.03040      0.00000     50.44728         0.000807      0.005552     -0.631213
      9.02794      9.03140     50.44728        -0.000755     -0.006467     -0.646625
      4.51397      4.51570     50.44728         0.009223      0.008779     -0.635632
      4.51151     13.54710     50.44728         0.006313     -0.009931     -0.634356
     13.54437      4.51570     50.44728        -0.009633      0.006799     -0.640726
     13.54191     13.54710     50.44728        -0.005540     -0.008919     -0.625758
 -----------------------------------------------------------------------------------
    total drift:                               -0.045771      0.253246      0.222242


--------------------------------------------------------------------------------------------------------



  FREE ENERGIE OF THE ION-ELECTRON SYSTEM (eV)
  ---------------------------------------------------
  free  energy   TOTEN  =     -1575.34239098 eV

  energy  without entropy=    -1575.34239098  energy(sigma->0) =    -1575.34239098
 


--------------------------------------------------------------------------------------------------------


    POTLOK:  cpu time    0.5034: real time    0.5034


--------------------------------------------------------------------------------------------------------


     LOOP+:  cpu time  286.9211: real time  287.3088
 vacuum level on the upper side and lower side of the slab         2.326         1.589
    4ORBIT:  cpu time    0.0000: real time    0.0000

 total amount of memory used by VASP MPI-rank0  8653580. kBytes
=======================================================================

   base      :      30000. kBytes
   nonlr-proj:      53618. kBytes
   fftplans  :     249280. kBytes
   grid      :     701440. kBytes
   one-center:       2636. kBytes
   wavefun   :    7616606. kBytes
 
  
  
 General timing and accounting informations for this job:
 ========================================================
  
                  Total CPU time used (sec):      499.182
                            User time (sec):      405.155
                          System time (sec):       94.027
                         Elapsed time (sec):      502.429
  
                   Maximum memory used (kb):    10304780.
                   Average memory used (kb):          N/A
  
                          Minor page faults:      3657717
                          Major page faults:           12
                 Voluntary context switches:        11092
