 vasp.6.2.1 16May21 (build Nov 15 2021 14:57:28) complex                         
 executed on             LinuxPGI date 2023.07.25  02:53:59
 running on    4 total cores
 distrk:  each k-point on    4 cores,    1 groups
 distr:  one band on NCORE=   1 cores,    4 groups


--------------------------------------------------------------------------------------------------------


 INCAR:
   SYSTEM = PSC
   ISTART = 1
   ICHARG = 1
   PREC = Normal
   ENCUT = 500
   GGA_COMPAT = F
   NELM = 600
   ISYM = 0
   LREAL = Auto
   ISMEAR = 0
   SIGMA = 0.05
   AMIN = 0.01
   BMIX = 0.01
   LVTOT = T
   LWAVE = F
   LDIPOL = T
   IDIPOL = 3
   LVDW = T
   IVDW = 12

 POTCAR:    PAW_PBE H 15Jun2001                   
 POTCAR:    PAW_PBE C 08Apr2002                   
 POTCAR:    PAW_PBE N 08Apr2002                   
 POTCAR:    PAW_PBE I 08Apr2002                   
 POTCAR:    PAW_PBE Pb 08Apr2002                  
 WARNING: For LVTOT=.TRUE., VASP.5.x writes the TOTAL local potential to the
     file LOCPOT. If you want only the Hartree contributions, use LVHAR=.TRUE.
     instead. 

 POTCAR:    PAW_PBE H 15Jun2001                   
   SHA256 =  030f79b5d3ab3cf0e668861823c8fb652ff669f3e15e46930bd03bfd63a607b6 H/POTCAR              
   COPYR  = (c) Copyright 15Jun2001 Georg Kresse                                                    
   COPYR  = This file is part of the software VASP. Any use, copying, and all other rights are regul
   COPYR  = If you do not have a valid VASP license, you may not use, copy or distribute this file. 
   VRHFIN =H: ultrasoft test                                                                        
   LEXCH  = PE                                                                                      
   EATOM  =    12.4884 eV,    0.9179 Ry                                                             
                                                                                                    
   TITEL  = PAW_PBE H 15Jun2001                                                                     
   LULTRA =        F    use ultrasoft PP ?                                                          
   IUNSCR =        0    unscreen: 0-lin 1-nonlin 2-no                                               
   RPACOR =    0.000    partial core radius                                                         
   POMASS =    1.000; ZVAL   =    1.000    mass and valenz                                          
   RCORE  =    1.100    outmost cutoff radius                                                       
   RWIGS  =    0.700; RWIGS  =    0.370    wigner-seitz radius (au A)                               
   ENMAX  =  250.000; ENMIN  =  200.000 eV                                                          
   RCLOC  =    0.701    cutoff for local pot                                                        
   LCOR   =        T    correct aug charges                                                         
   LPAW   =        T    paw PP                                                                      
   EAUG   =  400.000                                                                                
   RMAX   =    1.123    core radius for proj-oper                                                   
   RAUG   =    1.200    factor for augmentation sphere                                              
   RDEP   =    1.112    radius for radial grids                                                     
   RDEPT  =    0.926    core radius for aug-charge                                                  
                                                                                                    
   Atomic configuration                                                                             
    2 entries                                                                                       
     n  l   j            E        occ.                                                              
     1  0  0.50        -6.4927   1.0000                                                             
     2  1  0.50        -3.4015   0.0000                                                             
   Description                                                                                      
     l       E           TYP  RCUT    TYP  RCUT                                                     
     0     -6.4927494     23  1.100                                                                 
     0      6.8029130     23  1.100                                                                 
     1     -4.0817478     23  1.100                                                                 
  local pseudopotential read in
  atomic valenz-charges read in
  non local Contribution for L=            0  read in
    real space projection operators read in
  non local Contribution for L=            0  read in
    real space projection operators read in
  non local Contribution for L=            1  read in
    real space projection operators read in
    PAW grid and wavefunctions read in
 
   number of l-projection  operators is LMAX  =            3
   number of lm-projection operators is LMMAX =            5
 
 POTCAR:    PAW_PBE C 08Apr2002                   
   SHA256 =  253f7b50bb8d59471dbedb8285d89021f4a42ed1a2c5d38a03a736e69125dd95 C/POTCAR              
   COPYR  = (c) Copyright 08Apr2002 Georg Kresse                                                    
   COPYR  = This file is part of the software VASP. Any use, copying, and all other rights are regul
   COPYR  = If you do not have a valid VASP license, you may not use, copy or distribute this file. 
   VRHFIN =C: s2p2                                                                                  
   LEXCH  = PE                                                                                      
   EATOM  =   147.1560 eV,   10.8157 Ry                                                             
                                                                                                    
   TITEL  = PAW_PBE C 08Apr2002                                                                     
   LULTRA =        F    use ultrasoft PP ?                                                          
   IUNSCR =        1    unscreen: 0-lin 1-nonlin 2-no                                               
   RPACOR =    1.200    partial core radius                                                         
   POMASS =   12.011; ZVAL   =    4.000    mass and valenz                                          
   RCORE  =    1.500    outmost cutoff radius                                                       
   RWIGS  =    1.630; RWIGS  =    0.863    wigner-seitz radius (au A)                               
   ENMAX  =  400.000; ENMIN  =  300.000 eV                                                          
   ICORE  =        2    local potential                                                             
   LCOR   =        T    correct aug charges                                                         
   LPAW   =        T    paw PP                                                                      
   EAUG   =  644.873                                                                                
   DEXC   =    0.000                                                                                
   RMAX   =    1.529    core radius for proj-oper                                                   
   RAUG   =    1.300    factor for augmentation sphere                                              
   RDEP   =    1.501    radius for radial grids                                                     
   RDEPT  =    1.300    core radius for aug-charge                                                  
                                                                                                    
   Atomic configuration                                                                             
    4 entries                                                                                       
     n  l   j            E        occ.                                                              
     1  0  0.50      -273.3789   2.0000                                                             
     2  0  0.50       -13.7508   2.0000                                                             
     2  1  0.50        -5.2854   2.0000                                                             
     3  2  1.50        -5.4423   0.0000                                                             
   Description                                                                                      
     l       E           TYP  RCUT    TYP  RCUT                                                     
     0    -13.7508458     23  1.200                                                                 
     0     -8.2022199     23  1.200                                                                 
     1     -5.2854383     23  1.500                                                                 
     1     34.0145650     23  1.500                                                                 
     2     -5.4423304      7  1.500                                                                 
  local pseudopotential read in
  partial core-charges read in
  partial kinetic energy density read in
  atomic valenz-charges read in
  non local Contribution for L=            0  read in
    real space projection operators read in
  non local Contribution for L=            0  read in
    real space projection operators read in
  non local Contribution for L=            1  read in
    real space projection operators read in
  non local Contribution for L=            1  read in
    real space projection operators read in
    PAW grid and wavefunctions read in
 
   number of l-projection  operators is LMAX  =            4
   number of lm-projection operators is LMMAX =            8
 
 POTCAR:    PAW_PBE N 08Apr2002                   
   SHA256 =  e053789ff3a61a86a1b75d8a110fcc91f86041011e7b0817c7c99e4e8a6349d7 N/POTCAR              
   COPYR  = (c) Copyright 08Apr2002 Georg Kresse                                                    
   COPYR  = This file is part of the software VASP. Any use, copying, and all other rights are regul
   COPYR  = If you do not have a valid VASP license, you may not use, copy or distribute this file. 
   VRHFIN =N: s2p3                                                                                  
   LEXCH  = PE                                                                                      
   EATOM  =   264.5486 eV,   19.4438 Ry                                                             
                                                                                                    
   TITEL  = PAW_PBE N 08Apr2002                                                                     
   LULTRA =        F    use ultrasoft PP ?                                                          
   IUNSCR =        1    unscreen: 0-lin 1-nonlin 2-no                                               
   RPACOR =    1.200    partial core radius                                                         
   POMASS =   14.001; ZVAL   =    5.000    mass and valenz                                          
   RCORE  =    1.500    outmost cutoff radius                                                       
   RWIGS  =    1.400; RWIGS  =    0.741    wigner-seitz radius (au A)                               
   ENMAX  =  400.000; ENMIN  =  300.000 eV                                                          
   ICORE  =        2    local potential                                                             
   LCOR   =        T    correct aug charges                                                         
   LPAW   =        T    paw PP                                                                      
   EAUG   =  627.112                                                                                
   DEXC   =    0.000                                                                                
   RMAX   =    1.529    core radius for proj-oper                                                   
   RAUG   =    1.300    factor for augmentation sphere                                              
   RDEP   =    1.514    radius for radial grids                                                     
   RDEPT  =    1.338    core radius for aug-charge                                                  
                                                                                                    
   Atomic configuration                                                                             
    4 entries                                                                                       
     n  l   j            E        occ.                                                              
     1  0  0.50      -384.7179   2.0000                                                             
     2  0  0.50       -18.5828   2.0000                                                             
     2  1  0.50        -7.0898   3.0000                                                             
     3  2  1.50        -6.8029   0.0000                                                             
   Description                                                                                      
     l       E           TYP  RCUT    TYP  RCUT                                                     
     0    -18.5828119     23  1.200                                                                 
     0    -13.5018863     23  1.200                                                                 
     1     -7.0897853     23  1.500                                                                 
     1      9.5240782     23  1.500                                                                 
     2     -6.8029130      7  1.500                                                                 
  local pseudopotential read in
  partial core-charges read in
  partial kinetic energy density read in
  atomic valenz-charges read in
  non local Contribution for L=            0  read in
    real space projection operators read in
  non local Contribution for L=            0  read in
    real space projection operators read in
  non local Contribution for L=            1  read in
    real space projection operators read in
  non local Contribution for L=            1  read in
    real space projection operators read in
    PAW grid and wavefunctions read in
 
   number of l-projection  operators is LMAX  =            4
   number of lm-projection operators is LMMAX =            8
 
 POTCAR:    PAW_PBE I 08Apr2002                   
   SHA256 =  e40f3f59b681c1fc3e3091736183c4589116986673d2b852a5012aec72758799 I/POTCAR              
   COPYR  = (c) Copyright 08Apr2002 Georg Kresse                                                    
   COPYR  = This file is part of the software VASP. Any use, copying, and all other rights are regul
   COPYR  = If you do not have a valid VASP license, you may not use, copy or distribute this file. 
   VRHFIN =I : s2p5                                                                                 
   LEXCH  = PE                                                                                      
   EATOM  =   315.8678 eV,   23.2156 Ry                                                             
                                                                                                    
   TITEL  = PAW_PBE I 08Apr2002                                                                     
   LULTRA =        F    use ultrasoft PP ?                                                          
   IUNSCR =        1    unscreen: 0-lin 1-nonlin 2-no                                               
   RPACOR =    2.200    partial core radius                                                         
   POMASS =  126.904; ZVAL   =    7.000    mass and valenz                                          
   RCORE  =    2.300    outmost cutoff radius                                                       
   RWIGS  =    2.810; RWIGS  =    1.487    wigner-seitz radius (au A)                               
   ENMAX  =  175.647; ENMIN  =  131.735 eV                                                          
   ICORE  =        3    local potential                                                             
   LCOR   =        T    correct aug charges                                                         
   LPAW   =        T    paw PP                                                                      
   EAUG   =  370.139                                                                                
   DEXC   =    0.000                                                                                
   RMAX   =    2.359    core radius for proj-oper                                                   
   RAUG   =    1.300    factor for augmentation sphere                                              
   RDEP   =    2.392    radius for radial grids                                                     
   RDEPT  =    2.170    core radius for aug-charge                                                  
                                                                                                    
   Atomic configuration                                                                             
   13 entries                                                                                       
     n  l   j            E        occ.                                                              
     1  0  0.50    -32976.3739   2.0000                                                             
     2  0  0.50     -5094.5933   2.0000                                                             
     2  1  1.50     -4572.0131   6.0000                                                             
     3  0  0.50     -1028.2813   2.0000                                                             
     3  1  1.50      -859.0250   6.0000                                                             
     3  2  2.50      -605.7620  10.0000                                                             
     4  0  0.50      -180.5540   2.0000                                                             
     4  1  1.50      -127.5306   6.0000                                                             
     4  2  2.50       -50.2720  10.0000                                                             
     5  0  0.50       -17.4058   2.0000                                                             
     5  1  0.50        -7.0851   5.0000                                                             
     5  2  1.50        -7.0750   0.0000                                                             
     4  3  2.50        -7.0750   0.0000                                                             
   Description                                                                                      
     l       E           TYP  RCUT    TYP  RCUT                                                     
     0    -17.4058016     23  2.300                                                                 
     0    -18.7663842     23  2.300                                                                 
     1     -7.0850686     23  2.300                                                                 
     1     -4.2150896     23  2.300                                                                 
     2     -7.0750295     23  2.300                                                                 
     3     -1.3605826     23  2.300                                                                 
  local pseudopotential read in
  partial core-charges read in
  partial kinetic energy density read in
  atomic valenz-charges read in
  non local Contribution for L=            0  read in
    real space projection operators read in
  non local Contribution for L=            0  read in
    real space projection operators read in
  non local Contribution for L=            1  read in
    real space projection operators read in
  non local Contribution for L=            1  read in
    real space projection operators read in
  non local Contribution for L=            2  read in
    real space projection operators read in
    PAW grid and wavefunctions read in
 
   number of l-projection  operators is LMAX  =            5
   number of lm-projection operators is LMMAX =           13
 
 POTCAR:    PAW_PBE Pb 08Apr2002                  
   SHA256 =  797118a27cf1bcd06b9881c67a26cdde129e3cd1a551dd4a281f9681ce847303 Pb/POTCAR             
   COPYR  = (c) Copyright 08Apr2002 Georg Kresse                                                    
   COPYR  = This file is part of the software VASP. Any use, copying, and all other rights are regul
   COPYR  = If you do not have a valid VASP license, you may not use, copy or distribute this file. 
   VRHFIN =Pb:                                                                                      
   LEXCH  = PE                                                                                      
   EATOM  =    96.9868 eV,    7.1283 Ry                                                             
                                                                                                    
   TITEL  = PAW_PBE Pb 08Apr2002                                                                    
   LULTRA =        F    use ultrasoft PP ?                                                          
   IUNSCR =        1    unscreen: 0-lin 1-nonlin 2-no                                               
   RPACOR =    2.200    partial core radius                                                         
   POMASS =  207.200; ZVAL   =    4.000    mass and valenz                                          
   RCORE  =    3.100    outmost cutoff radius                                                       
   RWIGS  =    3.260; RWIGS  =    1.725    wigner-seitz radius (au A)                               
   ENMAX  =   97.973; ENMIN  =   73.480 eV                                                          
   ICORE  =        3    local potential                                                             
   LCOR   =        T    correct aug charges                                                         
   LPAW   =        T    paw PP                                                                      
   EAUG   =  234.873                                                                                
   DEXC   =    0.000                                                                                
   RMAX   =    3.158    core radius for proj-oper                                                   
   RAUG   =    1.300    factor for augmentation sphere                                              
   RDEP   =    3.202    radius for radial grids                                                     
   RDEPT  =    2.659    core radius for aug-charge                                                  
                                                                                                    
   Atomic configuration                                                                             
   17 entries                                                                                       
     n  l   j            E        occ.                                                              
     1  0  0.50    -88091.8466   2.0000                                                             
     2  0  0.50    -15753.4197   2.0000                                                             
     2  1  1.50    -13508.1797   6.0000                                                             
     3  0  0.50     -3781.7194   2.0000                                                             
     3  1  1.50     -3138.2529   6.0000                                                             
     3  2  2.50     -2483.2977  10.0000                                                             
     4  0  0.50      -856.2895   2.0000                                                             
     4  1  1.50      -645.4943   6.0000                                                             
     4  2  2.50      -401.8768  10.0000                                                             
     4  3  3.50      -132.9059  14.0000                                                             
     5  0  0.50      -144.0950   2.0000                                                             
     5  1  1.50       -85.7879   6.0000                                                             
     5  2  2.50       -21.1769  10.0000                                                             
     6  0  0.50       -12.0372   2.0000                                                             
     6  1  1.50        -3.4971   2.0000                                                             
     6  2  2.50        -1.3606   0.0000                                                             
     5  3  2.50        -2.7212   0.0000                                                             
   Description                                                                                      
     l       E           TYP  RCUT    TYP  RCUT                                                     
     0    -12.0371566     23  3.100                                                                 
     0    -13.3977392     23  3.100                                                                 
     1     -3.4971341     23  3.100                                                                 
     1     -5.4423304     23  3.100                                                                 
     2     -1.3605826     23  3.100                                                                 
     3     -1.3605826     23  3.100                                                                 
  local pseudopotential read in
  partial core-charges read in
  partial kinetic energy density read in
  atomic valenz-charges read in
  non local Contribution for L=            0  read in
    real space projection operators read in
  non local Contribution for L=            0  read in
    real space projection operators read in
  non local Contribution for L=            1  read in
    real space projection operators read in
  non local Contribution for L=            1  read in
    real space projection operators read in
  non local Contribution for L=            2  read in
    real space projection operators read in
    PAW grid and wavefunctions read in
 
   number of l-projection  operators is LMAX  =            5
   number of lm-projection operators is LMMAX =           13
 
 Optimization of the real space projectors (new method)

 maximal supplied QI-value         = 34.20
 optimisation between [QCUT,QGAM] = [ 11.29, 22.57] = [ 35.68,142.71] Ry 
 Optimized for a Real-space Cutoff    1.16 Angstroem

   l    n(q)    QCUT    max X(q) W(low)/X(q) W(high)/X(q)  e(spline) 
   0      8    11.287    19.460    0.40E-03    0.73E-03    0.16E-06
   0      8    11.287    12.209    0.38E-03    0.70E-03    0.15E-06
   1      7    11.287     4.655    0.22E-03    0.25E-04    0.22E-06
 Optimization of the real space projectors (new method)

 maximal supplied QI-value         = 25.13
 optimisation between [QCUT,QGAM] = [ 11.31, 22.87] = [ 35.82,146.48] Ry 
 Optimized for a Real-space Cutoff    1.00 Angstroem

   l    n(q)    QCUT    max X(q) W(low)/X(q) W(high)/X(q)  e(spline) 
   0      7    11.310   115.676    0.43E-03    0.13E-02    0.19E-06
   0      7    11.310    87.132    0.43E-03    0.13E-02    0.18E-06
   1      6    11.310     4.429    0.42E-03    0.74E-03    0.11E-06
   1      6    11.310     2.733    0.34E-03    0.55E-03    0.92E-07
 Optimization of the real space projectors (new method)

 maximal supplied QI-value         = 25.13
 optimisation between [QCUT,QGAM] = [ 11.31, 22.87] = [ 35.82,146.48] Ry 
 Optimized for a Real-space Cutoff    1.27 Angstroem

   l    n(q)    QCUT    max X(q) W(low)/X(q) W(high)/X(q)  e(spline) 
   0      9    11.310    79.467    0.75E-04    0.16E-03    0.36E-06
   0      9    11.310    66.151    0.74E-04    0.16E-03    0.36E-06
   1      8    11.310    17.416    0.35E-03    0.12E-03    0.95E-06
   1      8    11.310    12.382    0.37E-03    0.13E-03    0.98E-06
 Optimization of the real space projectors (new method)

 maximal supplied QI-value         = 16.25
 optimisation between [QCUT,QGAM] = [ 11.38, 22.75] = [ 36.24,144.96] Ry 
 Optimized for a Real-space Cutoff    1.31 Angstroem

   l    n(q)    QCUT    max X(q) W(low)/X(q) W(high)/X(q)  e(spline) 
   0      9    11.376   194.483    0.24E-03    0.23E-03    0.67E-07
   0      9    11.376   190.334    0.23E-03    0.22E-03    0.65E-07
   1      8    11.376   116.687    0.25E-03    0.63E-04    0.16E-06
   1      8    11.376    88.696    0.25E-03    0.61E-04    0.16E-06
   2      8    11.376     4.877    0.17E-03    0.14E-03    0.29E-07
 Optimization of the real space projectors (new method)

 maximal supplied QI-value         = 12.09
 optimisation between [QCUT,QGAM] = [ 11.37, 22.86] = [ 36.19,146.31] Ry 
 Optimized for a Real-space Cutoff    1.66 Angstroem

   l    n(q)    QCUT    max X(q) W(low)/X(q) W(high)/X(q)  e(spline) 
   0     11    11.369   135.111    0.12E-03    0.69E-04    0.19E-05
   0     11    11.369   146.850    0.11E-03    0.65E-04    0.18E-05
   1     11    11.369   148.016    0.17E-03    0.32E-03    0.89E-06
   1     11    11.369   122.989    0.17E-03    0.32E-03    0.91E-06
   2     10    11.369     8.916    0.12E-03    0.45E-04    0.33E-06
  PAW_PBE H 15Jun2001                   :
 energy of atom  1       EATOM=  -12.4884
 kinetic energy error for atom=    0.0020 (will be added to EATOM!!)
  PAW_PBE C 08Apr2002                   :
 energy of atom  2       EATOM= -147.1560
 kinetic energy error for atom=    0.0076 (will be added to EATOM!!)
  PAW_PBE N 08Apr2002                   :
 energy of atom  3       EATOM= -264.5486
 kinetic energy error for atom=    0.0138 (will be added to EATOM!!)
  PAW_PBE I 08Apr2002                   :
 energy of atom  4       EATOM= -315.8678
 kinetic energy error for atom=    0.0009 (will be added to EATOM!!)
  PAW_PBE Pb 08Apr2002                  :
 energy of atom  5       EATOM=  -96.9868
 kinetic energy error for atom=    0.0000 (will be added to EATOM!!)
 
 
 POSCAR:  H  C  N  I Pb
  positions in cartesian coordinates
  No initial velocities read in
 exchange correlation table for  LEXCH =        8
   RHO(1)=    0.500       N(1)  =     2000
   RHO(2)=  100.500       N(2)  =     4000
 


--------------------------------------------------------------------------------------------------------


 ion  position               nearest neighbor table
   1  0.453  0.336  0.564- 187 1.02
   2  0.439  0.830  0.571- 188 1.03
   3  0.962  0.328  0.575- 189 1.03
   4  0.943  0.819  0.573- 190 1.03
   5  0.335  0.953  0.572- 194 1.03
   6  0.350  0.551  0.558- 195 1.03
   7  0.807  0.088  0.562- 196 1.03
   8  0.013  0.143  0.559- 183 1.03
   9  0.072  0.665  0.571- 184 1.02
  10  0.552  0.160  0.559- 185 1.02
  11  0.496  0.642  0.559- 186 1.02
  12  0.367  0.028  0.557- 194 1.01
  13  0.294  0.628  0.553- 195 1.02
  14  0.879  0.028  0.555- 196 1.02
  15  0.956  0.191  0.577- 183 1.02
  16  0.990  0.693  0.583- 184 1.04
  17  0.566  0.252  0.567- 185 1.03
  18  0.440  0.693  0.576- 186 1.02
  19  0.280  0.439  0.572- 191 1.03
  20  0.202  0.929  0.573- 192 1.02
  21  0.685  0.029  0.571- 193 1.02
  22  0.373  0.290  0.555- 187 1.03
  23  0.503  0.868  0.554- 188 1.02
  24  0.020  0.368  0.557- 189 1.03
  25  0.994  0.867  0.554- 190 1.03
  26  0.184  0.445  0.570- 191 1.02
  27  0.145  0.992  0.560- 192 1.02
  28  0.680  0.933  0.565- 193 1.02
  29  0.430  0.179  0.550- 146 1.09
  30  0.546  0.750  0.543- 147 1.09
  31  0.064  0.251  0.545- 144 1.09
  32  0.083  0.774  0.550- 145 1.09
  33  0.185  0.563  0.557- 148 1.09
  34  0.245  0.065  0.548- 149 1.10
  35  0.801  0.924  0.556- 150 1.09
  36  0.487  0.339  0.659- 205 1.03
  37  0.447  0.809  0.674- 206 1.02
  38  0.964  0.286  0.676- 207 1.01
  39  0.930  0.724  0.673- 208 1.03
  40  0.307  0.058  0.669- 209 1.03
  41  0.298  0.550  0.675- 210 1.02
  42  0.802  0.058  0.674- 211 1.03
  43  0.769  0.597  0.656- 212 1.03
  44  0.086  0.164  0.645- 197 1.03
  45  0.118  0.722  0.652- 198 1.02
  46  0.565  0.153  0.655- 199 1.02
  47  0.567  0.668  0.650- 200 1.02
  48  0.176  0.416  0.648- 201 1.02
  49  0.171  0.919  0.651- 202 1.01
  50  0.694  0.409  0.658- 203 1.03
  51  0.674  0.921  0.651- 204 1.02
  52  0.064  0.183  0.671- 197 1.02
  53  0.060  0.677  0.670- 198 1.02
  54  0.593  0.244  0.659- 199 1.02
  55  0.537  0.696  0.675- 200 1.02
  56  0.199  0.444  0.674- 201 1.03
  57  0.206  0.955  0.675- 202 1.03
  58  0.665  0.501  0.658- 203 1.02
  59  0.698  0.958  0.676- 204 1.03
  60  0.399  0.301  0.656- 205 1.02
  61  0.430  0.843  0.648- 206 1.02
  62  0.935  0.325  0.652- 207 1.02
  63  0.906  0.796  0.655- 208 1.02
  64  0.326  0.076  0.643- 209 1.02
  65  0.328  0.578  0.650- 210 1.01
  66  0.834  0.075  0.648- 211 1.02
  67  0.858  0.560  0.653- 212 1.03
  68  0.008  0.252  0.631- 151 1.09
  69  0.024  0.803  0.640- 152 1.09
  70  0.441  0.182  0.652- 153 1.09
  71  0.503  0.756  0.631- 154 1.09
  72  0.243  0.991  0.629- 156 1.09
  73  0.256  0.496  0.631- 155 1.09
  74  0.757  0.990  0.632- 158 1.09
  75  0.818  0.438  0.654- 157 1.09
  76  0.449  0.301  0.769- 221 1.02
  77  0.449  0.801  0.769- 222 1.02
  78  0.949  0.301  0.769- 223 1.02
  79  0.949  0.801  0.769- 224 1.02
  80  0.301  0.051  0.769- 225 1.02
  81  0.301  0.551  0.769- 226 1.02
  82  0.801  0.051  0.769- 227 1.02
  83  0.801  0.551  0.769- 228 1.02
  84  0.079  0.171  0.743- 213 1.02
  85  0.079  0.671  0.743- 214 1.02
  86  0.579  0.171  0.743- 215 1.02
  87  0.579  0.671  0.743- 216 1.02
  88  0.171  0.421  0.743- 217 1.02
  89  0.171  0.921  0.743- 218 1.02
  90  0.671  0.421  0.743- 219 1.02
  91  0.671  0.921  0.743- 220 1.02
  92  0.051  0.199  0.769- 213 1.02
  93  0.051  0.699  0.769- 214 1.02
  94  0.551  0.199  0.769- 215 1.02
  95  0.551  0.699  0.769- 216 1.02
  96  0.199  0.449  0.769- 217 1.02
  97  0.199  0.949  0.769- 218 1.02
  98  0.699  0.449  0.769- 219 1.02
  99  0.699  0.949  0.769- 220 1.02
 100  0.421  0.329  0.743- 221 1.02
 101  0.421  0.829  0.743- 222 1.02
 102  0.921  0.329  0.743- 223 1.02
 103  0.921  0.829  0.743- 224 1.02
 104  0.329  0.079  0.743- 225 1.02
 105  0.329  0.579  0.743- 226 1.02
 106  0.829  0.079  0.743- 227 1.02
 107  0.829  0.579  0.743- 228 1.02
 108  0.000  0.250  0.726- 161 1.09
 109  0.000  0.750  0.726- 162 1.09
 110  0.500  0.250  0.726- 159 1.09
 111  0.500  0.750  0.726- 160 1.09
 112  0.250  0.000  0.726- 163 1.09
 113  0.250  0.500  0.726- 164 1.09
 114  0.750  0.000  0.726- 165 1.09
 115  0.750  0.500  0.726- 166 1.09
 116  0.776  0.557  0.519- 173 1.10
 117  0.719  0.479  0.524- 173 1.09
 118  0.868  0.502  0.538- 174 1.10
 119  0.861  0.484  0.565- 174 1.10
 120  0.744  0.642  0.559- 175 1.10
 121  0.814  0.598  0.575- 175 1.10
 122  0.667  0.547  0.568- 176 1.10
 123  0.682  0.455  0.560- 176 1.10
 124  0.617  0.560  0.537- 177 1.10
 125  0.674  0.640  0.534- 177 1.10
 126  0.606  0.646  0.503- 178 1.10
 127  0.687  0.602  0.494- 178 1.11
 128  0.789  0.390  0.529- 179 1.10
 129  0.777  0.372  0.557- 179 1.10
 130  0.865  0.367  0.546- 179 1.10
 131  0.862  0.696  0.552- 180 1.10
 132  0.837  0.649  0.528- 180 1.10
 133  0.906  0.611  0.546- 180 1.10
 134  0.771  0.530  0.596- 181 1.09
 135  0.775  0.435  0.589- 181 1.09
 136  0.694  0.473  0.600- 181 1.09
 137  0.539  0.528  0.505- 182 1.09
 138  0.573  0.545  0.479- 182 1.10
 139  0.704  0.480  0.470- 168 1.09
 140  0.556  0.413  0.520- 169 1.09
 141  0.766  0.358  0.472- 170 1.09
 142  0.620  0.290  0.522- 171 1.09
 143  0.726  0.263  0.498- 172 1.09
 144  0.020  0.255  0.557-  31 1.09 189 1.31 183 1.32
 145  0.035  0.765  0.561-  32 1.09 184 1.31 190 1.32
 146  0.463  0.226  0.556-  29 1.09 187 1.31 185 1.31
 147  0.502  0.755  0.555-  30 1.09 188 1.31 186 1.31
 148  0.238  0.536  0.560-  33 1.09 191 1.31 195 1.31
 149  0.255  0.015  0.558-  34 1.10 192 1.31 194 1.32
 150  0.780  0.979  0.560-  35 1.09 196 1.31 193 1.32
 151  0.010  0.245  0.648-  68 1.09 197 1.31 207 1.32
 152  0.012  0.762  0.653-  69 1.09 198 1.31 208 1.31
 153  0.481  0.226  0.655-  70 1.09 199 1.31 205 1.31
 154  0.499  0.755  0.649-  71 1.09 206 1.31 200 1.31
 155  0.252  0.496  0.649-  73 1.09 201 1.31 210 1.32
 156  0.249  0.997  0.647-  72 1.09 209 1.31 202 1.32
 157  0.777  0.483  0.655-  75 1.09 212 1.30 203 1.32
 158  0.754  0.998  0.649-  74 1.09 211 1.31 204 1.32
 159  0.500  0.250  0.743- 110 1.09 221 1.31 215 1.31
 160  0.500  0.750  0.743- 111 1.09 222 1.31 216 1.31
 161  1.000  0.250  0.743- 108 1.09 223 1.31 213 1.31
 162  1.000  0.750  0.743- 109 1.09 224 1.31 214 1.31
 163  0.250  0.000  0.743- 112 1.09 225 1.31 218 1.31
 164  0.250  0.500  0.743- 113 1.09 226 1.31 217 1.31
 165  0.750  0.000  0.743- 114 1.09 227 1.31 220 1.31
 166  0.750  0.500  0.743- 115 1.09 228 1.31 219 1.31
 167  0.627  0.455  0.495- 169 1.40 168 1.40 182 1.51
 168  0.685  0.439  0.481- 139 1.09 170 1.40 167 1.40
 169  0.602  0.401  0.510- 140 1.09 171 1.39 167 1.40
 170  0.720  0.370  0.482- 141 1.09 168 1.40 172 1.40
 171  0.638  0.332  0.511- 142 1.09 169 1.39 172 1.40
 172  0.697  0.316  0.497- 143 1.09 171 1.40 170 1.40
 173  0.731  0.536  0.529- 117 1.09 116 1.10 229 1.52 177 1.53
 174  0.832  0.478  0.550- 118 1.10 119 1.10 229 1.52 179 1.52
 175  0.793  0.606  0.559- 121 1.10 120 1.10 180 1.52 229 1.52
 176  0.709  0.503  0.567- 122 1.10 123 1.10 181 1.51 229 1.51
 177  0.663  0.585  0.527- 125 1.10 124 1.10 173 1.53 178 1.54
 178  0.638  0.594  0.504- 126 1.10 127 1.11 177 1.54 182 1.54
 179  0.813  0.398  0.545- 128 1.10 130 1.10 129 1.10 174 1.52
 180  0.853  0.641  0.545- 131 1.10 133 1.10 132 1.10 175 1.52
 181  0.740  0.485  0.589- 136 1.09 135 1.09 134 1.09 176 1.51
 182  0.590  0.530  0.495- 137 1.09 138 1.10 167 1.51 178 1.54
 183  0.994  0.193  0.565-  15 1.02   8 1.03 144 1.32
 184  0.032  0.704  0.572-   9 1.02  16 1.04 145 1.31
 185  0.533  0.213  0.560-  10 1.02  17 1.03 146 1.31
 186  0.476  0.693  0.563-  11 1.02  18 1.02 147 1.31
 187  0.429  0.290  0.558-   1 1.02  22 1.03 146 1.31
 188  0.478  0.821  0.560-  23 1.02   2 1.03 147 1.31
 189  0.997  0.321  0.563-   3 1.03  24 1.03 144 1.31
 190  0.984  0.818  0.561-  25 1.03   4 1.03 145 1.32
 191  0.235  0.467  0.566-  26 1.02  19 1.03 148 1.31
 192  0.197  0.975  0.563-  20 1.02  27 1.02 149 1.31
 193  0.709  0.982  0.565-  28 1.02  21 1.02 150 1.32
 194  0.324  0.997  0.562-  12 1.01   5 1.03 149 1.32
 195  0.299  0.573  0.556-  13 1.02   6 1.03 148 1.31
 196  0.825  0.035  0.560-  14 1.02   7 1.03 150 1.31
 197  0.056  0.194  0.656-  52 1.02  44 1.03 151 1.31
 198  0.066  0.715  0.658-  45 1.02  53 1.02 152 1.31
 199  0.551  0.207  0.657-  46 1.02  54 1.02 153 1.31
 200  0.536  0.703  0.659-  47 1.02  55 1.02 154 1.31
 201  0.206  0.450  0.658-  48 1.02  56 1.03 155 1.31
 202  0.206  0.955  0.659-  49 1.01  57 1.03 156 1.32
 203  0.707  0.464  0.657-  58 1.02  50 1.03 157 1.32
 204  0.706  0.956  0.659-  51 1.02  59 1.03 158 1.32
 205  0.454  0.293  0.657-  60 1.02  36 1.03 153 1.31
 206  0.457  0.805  0.658-  61 1.02  37 1.02 154 1.31
 207  0.967  0.288  0.660-  38 1.01  62 1.02 151 1.32
 208  0.945  0.761  0.661-  63 1.02  39 1.03 152 1.31
 209  0.297  0.046  0.654-  64 1.02  40 1.03 156 1.31
 210  0.296  0.544  0.659-  65 1.01  41 1.02 155 1.32
 211  0.799  0.046  0.658-  66 1.02  42 1.03 158 1.31
 212  0.802  0.551  0.655-  43 1.03  67 1.03 157 1.30
 213  0.046  0.204  0.753-  92 1.02  84 1.02 161 1.31
 214  0.046  0.704  0.753-  93 1.02  85 1.02 162 1.31
 215  0.546  0.204  0.753-  94 1.02  86 1.02 159 1.31
 216  0.546  0.704  0.753-  95 1.02  87 1.02 160 1.31
 217  0.204  0.454  0.753-  96 1.02  88 1.02 164 1.31
 218  0.204  0.954  0.753-  97 1.02  89 1.02 163 1.31
 219  0.704  0.454  0.753-  98 1.02  90 1.02 166 1.31
 220  0.704  0.954  0.753-  99 1.02  91 1.02 165 1.31
 221  0.454  0.296  0.753-  76 1.02 100 1.02 159 1.31
 222  0.454  0.796  0.753-  77 1.02 101 1.02 160 1.31
 223  0.954  0.296  0.753-  78 1.02 102 1.02 161 1.31
 224  0.954  0.796  0.753-  79 1.02 103 1.02 162 1.31
 225  0.296  0.046  0.753-  80 1.02 104 1.02 163 1.31
 226  0.296  0.546  0.753-  81 1.02 105 1.02 164 1.31
 227  0.796  0.046  0.753-  82 1.02 106 1.02 165 1.31
 228  0.796  0.546  0.753-  83 1.02 107 1.02 166 1.31
 229  0.766  0.530  0.551- 176 1.51 174 1.52 175 1.52 173 1.52
 230  0.515  0.015  0.552- 304 3.23
 231  0.483  0.495  0.554- 305 3.14
 232  0.014  0.006  0.548- 302 3.52
 233  0.037  0.509  0.553- 303 3.24
 234  0.237  0.241  0.552- 306 3.15
 235  0.255  0.766  0.554- 307 3.15
 236  0.739  0.206  0.554- 308 3.09
 237  0.701  0.791  0.554- 309 3.17
 238  0.002  0.984  0.654- 302 3.08 310 3.22
 239  0.997  0.506  0.655- 311 3.14 303 3.15
 240  0.496  0.012  0.654- 312 3.16 304 3.17
 241  0.507  0.489  0.655- 313 3.13 305 3.16
 242  0.260  0.247  0.654- 314 3.16 306 3.25
 243  0.258  0.754  0.655- 315 3.14 307 3.19
 244  0.745  0.267  0.654- 316 3.18 308 3.26
 245  0.746  0.745  0.654- 317 3.17 309 3.23
 246  0.135  0.112  0.607- 302 3.18 306 3.20
 247  0.148  0.607  0.608- 307 3.16 303 3.18
 248  0.648  0.105  0.610- 308 3.12 304 3.14
 249  0.616  0.628  0.609- 309 3.20 305 3.25
 250  0.358  0.388  0.605- 305 3.18 306 3.22
 251  0.375  0.880  0.606- 307 3.28 304 3.29
 252  0.890  0.365  0.609- 303 3.29 308 3.41
 253  0.868  0.878  0.605- 302 3.23 309 3.23
 254  0.120  0.368  0.609- 306 3.21 303 3.25
 255  0.124  0.868  0.608- 307 3.21 302 3.27
 256  0.594  0.339  0.601- 308 3.22 305 3.25
 257  0.617  0.871  0.613- 309 3.10 304 3.21
 258  0.387  0.135  0.605- 304 3.17 306 3.21
 259  0.385  0.629  0.610- 307 3.22 305 3.25
 260  0.887  0.133  0.611- 302 3.19 308 3.30
 261  0.895  0.646  0.610- 303 3.26 309 3.48
 262  0.000  0.000  0.755- 310 3.13 318 3.27
 263  0.000  0.500  0.755- 311 3.13 319 3.27
 264  0.500  0.000  0.755- 312 3.13 320 3.27
 265  0.500  0.500  0.755- 313 3.13 321 3.27
 266  0.250  0.250  0.755- 314 3.13 322 3.27
 267  0.250  0.750  0.755- 315 3.13 323 3.27
 268  0.750  0.250  0.755- 316 3.13 324 3.27
 269  0.750  0.750  0.755- 317 3.13 325 3.27
 270  0.136  0.114  0.705- 310 3.20 314 3.20
 271  0.136  0.614  0.705- 311 3.20 315 3.20
 272  0.636  0.114  0.705- 312 3.20 316 3.20
 273  0.636  0.614  0.705- 313 3.20 317 3.20
 274  0.364  0.386  0.705- 313 3.20 314 3.20
 275  0.364  0.886  0.705- 312 3.20 315 3.20
 276  0.864  0.386  0.705- 311 3.20 316 3.20
 277  0.864  0.886  0.705- 310 3.20 317 3.20
 278  0.114  0.364  0.705- 314 3.21 311 3.21
 279  0.114  0.864  0.705- 315 3.21 310 3.21
 280  0.614  0.364  0.705- 316 3.21 313 3.21
 281  0.614  0.864  0.705- 317 3.21 312 3.21
 282  0.386  0.136  0.705- 314 3.21 312 3.21
 283  0.386  0.636  0.705- 315 3.21 313 3.21
 284  0.886  0.136  0.705- 316 3.21 310 3.21
 285  0.886  0.636  0.705- 317 3.21 311 3.21
 286  0.135  0.115  0.801- 318 3.22 322 3.22
 287  0.135  0.615  0.801- 319 3.22 323 3.22
 288  0.635  0.115  0.801- 320 3.22 324 3.22
 289  0.635  0.615  0.801- 321 3.22 325 3.22
 290  0.365  0.385  0.801- 321 3.22 322 3.22
 291  0.365  0.885  0.801- 320 3.22 323 3.22
 292  0.865  0.385  0.801- 319 3.22 324 3.22
 293  0.865  0.885  0.801- 318 3.22 325 3.22
 294  0.115  0.365  0.801- 319 3.23 322 3.23
 295  0.115  0.865  0.801- 318 3.23 323 3.23
 296  0.615  0.365  0.801- 321 3.23 324 3.23
 297  0.615  0.865  0.801- 320 3.23 325 3.23
 298  0.385  0.135  0.801- 320 3.23 322 3.23
 299  0.385  0.635  0.801- 321 3.23 323 3.23
 300  0.885  0.135  0.801- 318 3.23 324 3.23
 301  0.885  0.635  0.801- 319 3.23 325 3.23
 302  1.000  0.999  0.605- 238 3.08 246 3.18 260 3.19 253 3.23 255 3.27 232 3.52
 303  0.005  0.505  0.604- 239 3.15 247 3.18 233 3.24 254 3.25 261 3.26 252 3.29
 304  0.506  0.007  0.604- 248 3.14 258 3.17 240 3.17 257 3.21 230 3.23 251 3.29
 305  0.500  0.492  0.604- 231 3.14 241 3.16 250 3.18 256 3.25 259 3.25 249 3.25
 306  0.249  0.247  0.602- 234 3.15 246 3.20 254 3.21 258 3.21 250 3.22 242 3.25
 307  0.253  0.746  0.604- 235 3.15 247 3.16 243 3.19 255 3.21 259 3.22 251 3.28
 308  0.745  0.245  0.602- 236 3.09 248 3.12 256 3.22 244 3.26 260 3.30 252 3.41
 309  0.738  0.755  0.603- 257 3.10 237 3.17 249 3.20 245 3.23 253 3.23 261 3.48
 310  0.000  0.000  0.705- 262 3.13 270 3.20 277 3.20 279 3.21 284 3.21 238 3.22
 311  0.000  0.500  0.705- 263 3.13 239 3.14 271 3.20 276 3.20 278 3.21 285 3.21
 312  0.500  0.000  0.705- 264 3.13 240 3.16 272 3.20 275 3.20 281 3.21 282 3.21
 313  0.500  0.500  0.705- 265 3.13 241 3.13 273 3.20 274 3.20 280 3.21 283 3.21
 314  0.250  0.250  0.705- 266 3.13 242 3.16 270 3.20 274 3.20 282 3.21 278 3.21
 315  0.250  0.750  0.705- 267 3.13 243 3.14 271 3.20 275 3.20 283 3.21 279 3.21
 316  0.750  0.250  0.705- 268 3.13 244 3.18 272 3.20 276 3.20 284 3.21 280 3.21
 317  0.750  0.750  0.705- 269 3.13 245 3.17 273 3.20 277 3.20 285 3.21 281 3.21
 318  0.000  0.000  0.807- 286 3.22 293 3.22 300 3.23 295 3.23 262 3.27
 319  0.000  0.500  0.807- 287 3.22 292 3.22 301 3.23 294 3.23 263 3.27
 320  0.500  0.000  0.807- 288 3.22 291 3.22 298 3.23 297 3.23 264 3.27
 321  0.500  0.500  0.807- 289 3.22 290 3.22 299 3.23 296 3.23 265 3.27
 322  0.250  0.250  0.807- 290 3.22 286 3.22 294 3.23 298 3.23 266 3.27
 323  0.250  0.750  0.807- 291 3.22 287 3.22 299 3.23 295 3.23 267 3.27
 324  0.750  0.250  0.807- 292 3.22 288 3.22 296 3.23 300 3.23 268 3.27
 325  0.750  0.750  0.807- 293 3.22 289 3.22 297 3.23 301 3.23 269 3.27
 

IMPORTANT INFORMATION: All symmetrisations will be switched off!
NOSYMM: (Re-)initialisation of all symmetry stuff for point group C_1.


----------------------------------------------------------------------------------------

                                     Primitive cell                                     

  volume of cell :   20385.2105

  direct lattice vectors                    reciprocal lattice vectors
    18.060800552  0.000000000  0.000000000     0.055368531  0.000015077 -0.000000000
    -0.004918649 18.062799454  0.000000000     0.000000000  0.055362404  0.000000000
     0.000000000  0.000000000 62.487499237     0.000000000 -0.000000000  0.016003201

  length of vectors
    18.060800552 18.062800123 62.487499237     0.055368533  0.055362404  0.016003201

  position of ions in fractional coordinates (direct lattice)
     0.452884812  0.336169309  0.563812171
     0.439438903  0.829662309  0.571380641
     0.961683087  0.327602697  0.575485160
     0.942953600  0.818661960  0.572721851
     0.335140821  0.953128255  0.572169922
     0.350268528  0.550570907  0.557589979
     0.806653062  0.088431308  0.562406433
     0.012574721  0.143011949  0.558801037
     0.072149145  0.664908398  0.570587757
     0.551716481  0.159771603  0.559221959
     0.495801527  0.642316894  0.558703239
     0.367311086  0.027661805  0.557279676
     0.293792151  0.628416632  0.552506687
     0.879162165  0.027597066  0.555347526
     0.955781835  0.190981065  0.576801341
     0.989868781  0.692522018  0.582679775
     0.566366417  0.251728412  0.567374224
     0.439562898  0.692628564  0.575559333
     0.280227887  0.439045633  0.572076519
     0.201511034  0.928707671  0.572720691
     0.684972617  0.029080005  0.570516759
     0.372518046  0.290196026  0.555333241
     0.503327769  0.867791912  0.553865724
     0.020128523  0.368086233  0.556627507
     0.993850243  0.867295878  0.553882390
     0.184009623  0.444817847  0.569524068
     0.144528454  0.992291919  0.560013560
     0.680307040  0.933440629  0.565147643
     0.430382505  0.178937249  0.550255505
     0.546122236  0.750453928  0.542992638
     0.063708063  0.251487786  0.544788225
     0.083080787  0.773634020  0.550488461
     0.184679297  0.563163212  0.557007221
     0.244602335  0.065217300  0.548400641
     0.801232987  0.924007884  0.555561436
     0.486796550  0.339393586  0.659132994
     0.447451250  0.808978492  0.673895835
     0.963658116  0.286224689  0.675741846
     0.929995644  0.724314366  0.672606270
     0.306839521  0.057544810  0.669438705
     0.298090894  0.549718699  0.674920149
     0.802019892  0.057501219  0.673806828
     0.768815761  0.596922908  0.655840771
     0.086469607  0.163635947  0.644897420
     0.117882099  0.722447123  0.651974519
     0.565134186  0.153010541  0.654771404
     0.566709463  0.667551239  0.649814663
     0.176253738  0.415561822  0.647878729
     0.171119791  0.919288845  0.651151540
     0.694219279  0.408603085  0.657641973
     0.673882824  0.920918274  0.651005881
     0.063638601  0.183316000  0.671461144
     0.059895880  0.676718188  0.669698279
     0.592954329  0.243996426  0.659358625
     0.537173860  0.696080478  0.674944201
     0.198998530  0.444235806  0.673810552
     0.205507534  0.955211524  0.674958425
     0.664804549  0.500750836  0.658315875
     0.698013765  0.958087695  0.675734765
     0.398501266  0.300545538  0.655946749
     0.430297004  0.842674092  0.648288723
     0.935284229  0.325047869  0.651677157
     0.905802263  0.795773048  0.655201788
     0.326216447  0.075590352  0.642578353
     0.327943694  0.578019693  0.649786337
     0.833813944  0.075268134  0.647928971
     0.857850787  0.559927557  0.653173795
     0.007808581  0.252271225  0.630702808
     0.023673378  0.802626295  0.640172415
     0.441309834  0.181865159  0.652064991
     0.503320107  0.756479255  0.631346309
     0.243479366  0.991166452  0.629359766
     0.255763301  0.495601159  0.631185815
     0.757105650  0.990339009  0.631760637
     0.817696240  0.438218108  0.654133337
     0.448745018  0.301283966  0.768889017
     0.448745007  0.801283913  0.768889017
     0.948744965  0.301283966  0.768889017
     0.948745007  0.801283913  0.768889017
     0.301275995  0.051294496  0.768872961
     0.301276011  0.551294499  0.768872961
     0.801275943  0.051294496  0.768872961
     0.801275984  0.551294499  0.768872961
     0.078771004  0.171180501  0.743441971
     0.078771006  0.671180448  0.743441971
     0.578771004  0.171180501  0.743441971
     0.578770992  0.671180448  0.743441971
     0.171199499  0.421174482  0.743421032
     0.171199501  0.921174508  0.743421032
     0.671199512  0.421174482  0.743421032
     0.671199501  0.921174508  0.743421032
     0.051256000  0.198714991  0.768889017
     0.051256002  0.698714925  0.768889017
     0.551256027  0.198714991  0.768889017
     0.551256016  0.698714925  0.768889017
     0.198723491  0.448703970  0.768872046
     0.198723493  0.948703970  0.768872046
     0.698723518  0.448703970  0.768872046
     0.698723507  0.948703970  0.768872046
     0.421231519  0.328817467  0.743441971
     0.421231508  0.828817440  0.743441971
     0.921231466  0.328817467  0.743441971
     0.921231508  0.828817440  0.743441971
     0.328800503  0.078824997  0.743421032
     0.328800492  0.578824964  0.743421032
     0.828800477  0.078824997  0.743421032
     0.828800519  0.578824964  0.743421032
     0.000003500  0.250001478  0.725821992
     0.000003500  0.750001452  0.725821992
     0.500003506  0.250001478  0.725821992
     0.500003495  0.750001452  0.725821992
     0.250000502  0.000000000  0.725803983
     0.250000517  0.500000000  0.725803983
     0.750000502  0.000000000  0.725803983
     0.750000490  0.500000000  0.725803983
     0.775520720  0.556657690  0.518515514
     0.719110563  0.479019513  0.524294318
     0.868433957  0.501634881  0.537769853
     0.860575846  0.483825529  0.565353861
     0.744116233  0.641579469  0.559413159
     0.813850764  0.598161278  0.575065643
     0.666800477  0.546920526  0.568312339
     0.681774070  0.454964879  0.559739457
     0.616902070  0.560470898  0.536696762
     0.674190651  0.639797177  0.534133750
     0.605655283  0.645776305  0.502774023
     0.686979298  0.601979132  0.493706902
     0.788656097  0.389793296  0.529329444
     0.776782617  0.372454979  0.557241033
     0.865468661  0.366856443  0.545620789
     0.862284022  0.696450801  0.551895115
     0.837378769  0.649196435  0.528486685
     0.906071333  0.610645453  0.546062894
     0.771279849  0.529683819  0.596121917
     0.774804871  0.435314525  0.588522314
     0.693711483  0.472838380  0.599679697
     0.539205220  0.527621065  0.504792462
     0.573226581  0.544620236  0.478770717
     0.704033688  0.479850760  0.469909936
     0.556263186  0.412999074  0.520307376
     0.766362377  0.357761986  0.471549272
     0.620060326  0.290464635  0.522223775
     0.725754614  0.263189605  0.498258563
     0.019974810  0.255039910  0.556828963
     0.034777899  0.765493618  0.560744297
     0.463027138  0.225769841  0.555989378
     0.501598633  0.754639097  0.554699020
     0.237737407  0.535816642  0.559835118
     0.254735492  0.014606425  0.557598099
     0.779983907  0.978554695  0.560103605
     0.010482414  0.244549297  0.647990263
     0.012317058  0.761565891  0.652576385
     0.480962737  0.225880109  0.655279196
     0.498596231  0.754861005  0.648768128
     0.252379982  0.496238375  0.648616181
     0.248851736  0.997391158  0.646641604
     0.777463227  0.482870947  0.655271321
     0.754412134  0.997681288  0.649107552
     0.499988984  0.249994984  0.743277021
     0.499989025  0.749994958  0.743277021
     0.999988984  0.249994984  0.743277021
     0.999989025  0.749994958  0.743277021
     0.250000502  0.000001000  0.743255960
     0.250000517  0.500001003  0.743255960
     0.750000502  0.000001000  0.743255960
     0.750000491  0.500001003  0.743255960
     0.626503289  0.455394019  0.495314767
     0.685258827  0.438630854  0.481441570
     0.602407705  0.400692511  0.509661997
     0.720449206  0.369737877  0.482374954
     0.637698801  0.332268272  0.510714088
     0.697286355  0.316438992  0.497204458
     0.731400516  0.535951434  0.529115778
     0.831688936  0.478428654  0.550007286
     0.793033402  0.605578352  0.558705681
     0.708657696  0.503124726  0.567093833
     0.662756428  0.584788306  0.527475802
     0.637880077  0.594024367  0.504055773
     0.813221467  0.398124298  0.545227338
     0.853439828  0.640917174  0.545288019
     0.739722602  0.484506989  0.588877976
     0.589904680  0.530441730  0.495236993
     0.993910896  0.192687434  0.564681241
     0.031589241  0.703994854  0.571814931
     0.533233817  0.213098656  0.560099148
     0.476031620  0.693135211  0.563050666
     0.428795199  0.289532254  0.557717141
     0.478185197  0.821043137  0.559608144
     0.996678976  0.320701325  0.562692135
     0.983805501  0.817555321  0.561242565
     0.234695022  0.466781428  0.566301255
     0.197292235  0.975214666  0.563470062
     0.709237812  0.981622275  0.565036476
     0.323551404  0.996988017  0.562245452
     0.298582632  0.573489703  0.556165744
     0.825356157  0.035210801  0.559997199
     0.055656641  0.193988343  0.655547255
     0.065522982  0.715494933  0.657844468
     0.550718720  0.207325623  0.656714969
     0.535593600  0.702839218  0.658770678
     0.206128285  0.449893396  0.657559437
     0.205945131  0.955068175  0.658526183
     0.707279691  0.463796668  0.656645375
     0.706246638  0.956374397  0.659489511
     0.454485664  0.293151061  0.656950612
     0.456771134  0.805311586  0.657777254
     0.967246789  0.287624567  0.659539997
     0.945438373  0.760896363  0.660842260
     0.296925090  0.045869882  0.653589283
     0.295737628  0.543818503  0.658625691
     0.798979731  0.046459735  0.657701189
     0.802086213  0.550754748  0.655319243
     0.045862501  0.204119496  0.752725994
     0.045862500  0.704119456  0.752725994
     0.545862507  0.204119496  0.752725994
     0.545862496  0.704119456  0.752725994
     0.204119002  0.454101003  0.752704994
     0.204118991  0.954100951  0.752704994
     0.704118976  0.454101003  0.752704994
     0.704118964  0.954100951  0.752704994
     0.454140018  0.295888490  0.752726971
     0.454140007  0.795888516  0.752726971
     0.954140018  0.295888490  0.752726971
     0.954140060  0.795888516  0.752726971
     0.295882492  0.045900498  0.752704994
     0.295882481  0.545900528  0.752704994
     0.795882439  0.045900498  0.752704994
     0.795882481  0.545900528  0.752704994
     0.765897504  0.530359313  0.551217916
     0.515128231  0.015177884  0.552245282
     0.482988470  0.494721022  0.554306974
     0.014351846  0.006017761  0.548445328
     0.037163783  0.508741927  0.553319228
     0.236900153  0.241099865  0.552066169
     0.255242062  0.765827141  0.553512443
     0.738547642  0.205782412  0.554278709
     0.700731079  0.791393425  0.554201179
     0.001741915  0.983964813  0.653559736
     0.997294683  0.506481340  0.654673789
     0.496257532  0.011958823  0.654401091
     0.506577679  0.488579804  0.654806751
     0.259527937  0.246768385  0.654308238
     0.258496594  0.754430546  0.654654865
     0.745226288  0.266862715  0.654197009
     0.745632560  0.744610701  0.654144692
     0.134545399  0.111813153  0.607249509
     0.147748165  0.607264710  0.608163266
     0.647545547  0.105197086  0.609786454
     0.616320140  0.628007238  0.608552443
     0.357791615  0.387730384  0.604809629
     0.375137067  0.879879577  0.606305839
     0.889968321  0.364636088  0.608779356
     0.867541963  0.878230177  0.604565684
     0.120395104  0.367696190  0.609366510
     0.123962752  0.867697669  0.607627209
     0.593859744  0.338972630  0.601180546
     0.616600305  0.871105602  0.612986435
     0.386582719  0.135081299  0.605294345
     0.384866829  0.628581625  0.610307433
     0.886522172  0.132823775  0.610679577
     0.894810369  0.646415421  0.609678828
     0.000000000  0.000000000  0.754927972
     0.000000000  0.500000000  0.754927972
     0.500000000  0.000000000  0.754927972
     0.499999989  0.500000000  0.754927972
     0.250000496  0.250000000  0.754939022
     0.250000511  0.749999974  0.754939022
     0.750000470  0.250000000  0.754939022
     0.750000458  0.749999974  0.754939022
     0.135790500  0.114209997  0.704782994
     0.135790502  0.614209984  0.704782994
     0.635790447  0.114209997  0.704782994
     0.635790488  0.614209984  0.704782994
     0.364209516  0.385789989  0.704782994
     0.364209505  0.885789963  0.704782994
     0.864209542  0.385789989  0.704782994
     0.864209531  0.885789963  0.704782994
     0.114217990  0.364218986  0.704780979
     0.114217992  0.864218986  0.704780979
     0.614218004  0.364218986  0.704780979
     0.614217992  0.864218986  0.704780979
     0.385782012  0.135781489  0.704782017
     0.385782001  0.635781489  0.704782017
     0.885781985  0.135781489  0.704782017
     0.885782027  0.635781489  0.704782017
     0.134667000  0.115332001  0.801256025
     0.134666989  0.615331988  0.801256025
     0.634666987  0.115332001  0.801256025
     0.634666976  0.615331988  0.801256025
     0.365333002  0.384667985  0.801256025
     0.365332990  0.884667959  0.801256025
     0.865332949  0.384667985  0.801256025
     0.865332938  0.884667959  0.801256025
     0.115328503  0.365337004  0.801264999
     0.115328505  0.865336978  0.801264999
     0.615328503  0.365337004  0.801264999
     0.615328492  0.865336978  0.801264999
     0.384671513  0.134662996  0.801264999
     0.384671501  0.634662970  0.801264999
     0.884671486  0.134662996  0.801264999
     0.884671528  0.634662970  0.801264999
     0.999707068  0.998900337  0.604514282
     0.005233181  0.504611193  0.604258432
     0.505801486  0.006642071  0.603794594
     0.499639454  0.491690170  0.604352140
     0.248534427  0.246781795  0.602416267
     0.253041516  0.746104717  0.603652659
     0.745225451  0.245370433  0.602360409
     0.737804393  0.755123885  0.602654779
     0.000000500  0.000000500  0.704828963
     0.000000500  0.500000475  0.704828963
     0.500000475  0.000000500  0.704828963
     0.500000464  0.500000475  0.704828963
     0.249999994  0.249999472  0.704824995
     0.250000010  0.749999498  0.704824995
     0.749999994  0.249999472  0.704824995
     0.749999983  0.749999498  0.704824995
     0.000000000  0.000000000  0.807317968
     0.000000000  0.500000000  0.807317968
     0.500000000  0.000000000  0.807317968
     0.499999989  0.500000000  0.807317968
     0.249999994  0.250000000  0.807317968
     0.250000010  0.749999974  0.807317968
     0.749999994  0.250000000  0.807317968
     0.749999983  0.749999974  0.807317968

  ion indices of the primitive-cell ions
   primitive index   ion index
                 1           1
                 2           2
                 3           3
                 4           4
                 5           5
                 6           6
                 7           7
                 8           8
                 9           9
                10          10
                11          11
                12          12
                13          13
                14          14
                15          15
                16          16
                17          17
                18          18
                19          19
                20          20
                21          21
                22          22
                23          23
                24          24
                25          25
                26          26
                27          27
                28          28
                29          29
                30          30
                31          31
                32          32
                33          33
                34          34
                35          35
                36          36
                37          37
                38          38
                39          39
                40          40
                41          41
                42          42
                43          43
                44          44
                45          45
                46          46
                47          47
                48          48
                49          49
                50          50
                51          51
                52          52
                53          53
                54          54
                55          55
                56          56
                57          57
                58          58
                59          59
                60          60
                61          61
                62          62
                63          63
                64          64
                65          65
                66          66
                67          67
                68          68
                69          69
                70          70
                71          71
                72          72
                73          73
                74          74
                75          75
                76          76
                77          77
                78          78
                79          79
                80          80
                81          81
                82          82
                83          83
                84          84
                85          85
                86          86
                87          87
                88          88
                89          89
                90          90
                91          91
                92          92
                93          93
                94          94
                95          95
                96          96
                97          97
                98          98
                99          99
               100         100
               101         101
               102         102
               103         103
               104         104
               105         105
               106         106
               107         107
               108         108
               109         109
               110         110
               111         111
               112         112
               113         113
               114         114
               115         115
               116         116
               117         117
               118         118
               119         119
               120         120
               121         121
               122         122
               123         123
               124         124
               125         125
               126         126
               127         127
               128         128
               129         129
               130         130
               131         131
               132         132
               133         133
               134         134
               135         135
               136         136
               137         137
               138         138
               139         139
               140         140
               141         141
               142         142
               143         143
               144         144
               145         145
               146         146
               147         147
               148         148
               149         149
               150         150
               151         151
               152         152
               153         153
               154         154
               155         155
               156         156
               157         157
               158         158
               159         159
               160         160
               161         161
               162         162
               163         163
               164         164
               165         165
               166         166
               167         167
               168         168
               169         169
               170         170
               171         171
               172         172
               173         173
               174         174
               175         175
               176         176
               177         177
               178         178
               179         179
               180         180
               181         181
               182         182
               183         183
               184         184
               185         185
               186         186
               187         187
               188         188
               189         189
               190         190
               191         191
               192         192
               193         193
               194         194
               195         195
               196         196
               197         197
               198         198
               199         199
               200         200
               201         201
               202         202
               203         203
               204         204
               205         205
               206         206
               207         207
               208         208
               209         209
               210         210
               211         211
               212         212
               213         213
               214         214
               215         215
               216         216
               217         217
               218         218
               219         219
               220         220
               221         221
               222         222
               223         223
               224         224
               225         225
               226         226
               227         227
               228         228
               229         229
               230         230
               231         231
               232         232
               233         233
               234         234
               235         235
               236         236
               237         237
               238         238
               239         239
               240         240
               241         241
               242         242
               243         243
               244         244
               245         245
               246         246
               247         247
               248         248
               249         249
               250         250
               251         251
               252         252
               253         253
               254         254
               255         255
               256         256
               257         257
               258         258
               259         259
               260         260
               261         261
               262         262
               263         263
               264         264
               265         265
               266         266
               267         267
               268         268
               269         269
               270         270
               271         271
               272         272
               273         273
               274         274
               275         275
               276         276
               277         277
               278         278
               279         279
               280         280
               281         281
               282         282
               283         283
               284         284
               285         285
               286         286
               287         287
               288         288
               289         289
               290         290
               291         291
               292         292
               293         293
               294         294
               295         295
               296         296
               297         297
               298         298
               299         299
               300         300
               301         301
               302         302
               303         303
               304         304
               305         305
               306         306
               307         307
               308         308
               309         309
               310         310
               311         311
               312         312
               313         313
               314         314
               315         315
               316         316
               317         317
               318         318
               319         319
               320         320
               321         321
               322         322
               323         323
               324         324
               325         325

----------------------------------------------------------------------------------------

 
 
 KPOINTS: Automatic Mesh                          

Automatic generation of k-mesh.
 Grid dimensions read from file:
 generate k-points for:    3    3    1

 Generating k-lattice:

  Cartesian coordinates                     Fractional coordinates (reciprocal lattice)
     0.018456177  0.000005026 -0.000000000     0.333333333  0.000000000  0.000000000
     0.000000000  0.018454135  0.000000000     0.000000000  0.333333333  0.000000000
     0.000000000 -0.000000000  0.016003201     0.000000000  0.000000000  1.000000000

  Length of vectors
     0.018456178  0.018454135  0.016003201

  Shift w.r.t. Gamma in fractional coordinates (k-lattice)
     0.000000000  0.000000000  0.000000000

 
 Subroutine IBZKPT returns following result:
 ===========================================
 
 Found      5 irreducible k-points:
 
 Following reciprocal coordinates:
            Coordinates               Weight
  0.000000  0.000000  0.000000      1.000000
  0.333333  0.000000  0.000000      2.000000
  0.000000  0.333333  0.000000      2.000000
  0.333333  0.333333  0.000000      2.000000
 -0.333333  0.333333  0.000000      2.000000
 
 Following cartesian coordinates:
            Coordinates               Weight
  0.000000  0.000000  0.000000      1.000000
  0.018456  0.000005  0.000000      2.000000
  0.000000  0.018454  0.000000      2.000000
  0.018456  0.018459  0.000000      2.000000
 -0.018456  0.018449  0.000000      2.000000
 


--------------------------------------------------------------------------------------------------------




 Dimension of arrays:
   k-points           NKPTS =      5   k-points in BZ     NKDIM =      5   number of bands    NBANDS=    732
   number of dos      NEDOS =    301   number of ions     NIONS =    325
   non local maximal  LDIM  =      5   non local SUM 2l+1 LMDIM =     13
   total plane-waves  NPLWV = ******
   max r-space proj   IRMAX =   3336   max aug-charges    IRDMAX=  19845
   dimension x,y,z NGX =   100 NGY =  100 NGZ =  350
   dimension x,y,z NGXF=   200 NGYF=  200 NGZF=  700
   support grid    NGXF=   200 NGYF=  200 NGZF=  700
   ions per type =             143  39  47  72  24
   NGX,Y,Z   is equivalent  to a cutoff of   9.20,  9.20,  9.31 a.u.
   NGXF,Y,Z  is equivalent  to a cutoff of  18.41, 18.41, 18.62 a.u.

 SYSTEM =  PSC                                     
 POSCAR =   H  C  N  I Pb                          

 Startparameter for this run:
   NWRITE =      2    write-flag & timer
   PREC   = normal    normal or accurate (medium, high low for compatibility)
   ISTART =      0    job   : 0-new  1-cont  2-samecut
   ICHARG =      1    charge: 1-file 2-atom 10-const
   ISPIN  =      1    spin polarized calculation?
   LNONCOLLINEAR =      F non collinear calculations
   LSORBIT =      F    spin-orbit coupling
   INIWAV =      1    electr: 0-lowe 1-rand  2-diag
   LASPH  =      F    aspherical Exc in radial PAW
 Electronic Relaxation 1
   ENCUT  =  500.0 eV  36.75 Ry    6.06 a.u.  32.93 32.93113.93*2*pi/ulx,y,z
   ENINI  =  500.0     initial cutoff
   ENAUG  =  644.9 eV  augmentation charge cutoff
   NELM   =    600;   NELMIN=  2; NELMDL=  0     # of ELM steps 
   EDIFF  = 0.1E-03   stopping-criterion for ELM
   LREAL  =      T    real-space projection
   NLSPLINE    = F    spline interpolate recip. space projectors
   LCOMPAT=      F    compatible to vasp.4.4
   GGA_COMPAT  = F    GGA compatible to vasp.4.4-vasp.4.6
   LMAXPAW     = -100 max onsite density
   LMAXMIX     =    2 max onsite mixed and CHGCAR
   VOSKOWN=      0    Vosko Wilk Nusair interpolation
   ROPT   =   -0.00050  -0.00050  -0.00050  -0.00050
   ROPT   =   -0.00050
 Ionic relaxation
   EDIFFG = 0.1E-02   stopping-criterion for IOM
   NSW    =      0    number of steps for IOM
   NBLOCK =      1;   KBLOCK =      1    inner block; outer block 
   IBRION =     -1    ionic relax: 0-MD 1-quasi-New 2-CG
   NFREE  =      0    steps in history (QN), initial steepest desc. (CG)
   ISIF   =      2    stress and relaxation
   IWAVPR =     10    prediction:  0-non 1-charg 2-wave 3-comb
   ISYM   =      0    0-nonsym 1-usesym 2-fastsym
   LCORR  =      T    Harris-Foulkes like correction to forces

   POTIM  = 0.5000    time-step for ionic-motion
   TEIN   =    0.0    initial temperature
   TEBEG  =    0.0;   TEEND  =   0.0 temperature during run
   SMASS  =  -3.00    Nose mass-parameter (am)
   estimated Nose-frequenzy (Omega)   =  0.10E-29 period in steps = 0.13E+47 mass=  -0.745E-26a.u.
   SCALEE = 1.0000    scale energy and forces
   NPACO  =    256;   APACO  = 16.0  distance and # of slots for P.C.
   PSTRESS=    0.0 pullay stress

  Mass of Ions in am
   POMASS =   1.00 12.01 14.00126.90207.20
  Ionic Valenz
   ZVAL   =   1.00  4.00  5.00  7.00  4.00
  Atomic Wigner-Seitz radii
   RWIGS  =  -1.00 -1.00 -1.00 -1.00 -1.00
  virtual crystal weights 
   VCA    =   1.00  1.00  1.00  1.00  1.00
   NELECT =    1134.0000    total number of electrons
   NUPDOWN=      -1.0000    fix difference up-down

 DOS related values:
   EMIN   =  10.00;   EMAX   =-10.00  energy-range for DOS
   EFERMI =   0.00
   ISMEAR =     0;   SIGMA  =   0.05  broadening in eV -4-tet -1-fermi 0-gaus

 Electronic relaxation 2 (details)
   IALGO  =     38    algorithm
   LDIAG  =      T    sub-space diagonalisation (order eigenvalues)
   LSUBROT=      F    optimize rotation matrix (better conditioning)
   TURBO    =      0    0=normal 1=particle mesh
   IRESTART =      0    0=no restart 2=restart with 2 vectors
   NREBOOT  =      0    no. of reboots
   NMIN     =      0    reboot dimension
   EREF     =   0.00    reference energy to select bands
   IMIX   =      4    mixing-type and parameters
     AMIX     =   0.40;   BMIX     =  0.01
     AMIX_MAG =   1.60;   BMIX_MAG =  0.01
     AMIN     =   0.01
     WC   =   100.;   INIMIX=   1;  MIXPRE=   1;  MAXMIX= -45

 Intra band minimization:
   WEIMIN = 0.0000     energy-eigenvalue tresh-hold
   EBREAK =  0.34E-07  absolut break condition
   DEPER  =   0.30     relativ break condition  

   TIME   =   0.40     timestep for ELM

  volume/ion in A,a.u.               =      62.72       423.28
  Fermi-wavevector in a.u.,A,eV,Ry     =   0.624944  1.180972  5.313816  0.390554
  Thomas-Fermi vector in A             =   1.685677
 
 Write flags
   LWAVE        =      F    write WAVECAR
   LDOWNSAMPLE  =      F    k-point downsampling of WAVECAR
   LCHARG       =      T    write CHGCAR
   LVTOT        =      T    write LOCPOT, total local potential
   LVHAR        =      F    write LOCPOT, Hartree potential only
   LELF         =      F    write electronic localiz. function (ELF)
   LORBIT       =      0    0 simple, 1 ext, 2 COOP (PROOUT), +10 PAW based schemes


 Dipole corrections
   LMONO  =      F    monopole corrections only (constant potential shift)
   LDIPOL =      T    correct potential (dipole corrections)
   IDIPOL =      3    1-x, 2-y, 3-z, 4-all directions 
   EPSILON=  1.0000000 bulk dielectric constant

 Exchange correlation treatment:
   GGA     =    --    GGA type
   LEXCH   =     8    internal setting for exchange type
   VOSKOWN=      0    Vosko Wilk Nusair interpolation
   LHFCALC =     F    Hartree Fock is set to
   LHFONE  =     F    Hartree Fock one center treatment
   AEXX    =    0.0000 exact exchange contribution

 Linear response parameters
   LEPSILON=     F    determine dielectric tensor
   LRPA    =     F    only Hartree local field effects (RPA)
   LNABLA  =     F    use nabla operator in PAW spheres
   LVEL    =     F    velocity operator in full k-point grid
   LINTERFAST=   F  fast interpolation
   KINTER  =     0    interpolate to denser k-point grid
   CSHIFT  =0.1000    complex shift for real part using Kramers Kronig
   OMEGAMAX=  -1.0    maximum frequency
   DEG_THRESHOLD= 0.2000000E-02 threshold for treating states as degnerate
   RTIME   =   -0.100 relaxation time in fs
  (WPLASMAI=    0.000 imaginary part of plasma frequency in eV, 0.658/RTIME)
   DFIELD  = 0.0000000 0.0000000 0.0000000 field for delta impulse in time
 
 Orbital magnetization related:
   ORBITALMAG=     F  switch on orbital magnetization
   LCHIMAG   =     F  perturbation theory with respect to B field
   DQ        =  0.001000  dq finite difference perturbation B field
   LLRAUG    =     F  two centre corrections for induced B field



--------------------------------------------------------------------------------------------------------


 Static calculation
 charge density and potential will be updated during run
 non-spin polarized calculation
 Variant of blocked Davidson
 Davidson routine will perform the subspace rotation
 perform sub-space diagonalisation
    after iterative eigenvector-optimisation
 modified Broyden-mixing scheme, WC =      100.0
 initial mixing is a Kerker type mixing with AMIX =  0.4000 and BMIX =      0.0100
 Hartree-type preconditioning will be used
 using additional bands           165
 real space projection scheme for non local part
[...]
     13.54561      0.00000     45.35368        -0.000058     -0.000922      0.013713
     13.54315      9.03140     45.35368        -0.005430     -0.007673     -0.014264
     14.00379     10.05480     32.40074        -0.097908     -0.045805      0.065514
     12.98536      8.65243     32.76184        -0.045096      0.033842      0.000689
     15.68215      9.06093     33.60389        -0.000272     -0.050957     -0.001118
     15.54031      8.73924     35.32755        -0.003771     -0.030265      0.034544
     13.43618     11.58872     34.95633         0.041757     -0.050004      0.001839
     14.69585     10.80447     35.93441        -0.068025     -0.046148     -0.067031
     12.04026      9.87892     35.51242         0.047599      0.035381     -0.006853
     12.31115      8.21794     34.97672        -0.006463     -0.048405      0.003249
     11.13899     10.12367     33.53684         0.004516      0.034003      0.012332
     12.17328     11.55653     33.37668         0.031261      0.098902      0.039083
     10.93544     11.66453     31.41709         0.047537     -0.088844      0.005675
     12.40444     10.87343     30.85051        -0.085243      0.000902      0.060750
     14.24184      7.04076     33.07647         0.011391     -0.013533      0.068031
     14.02748      6.72758     34.82060         0.081768      0.107520     -0.130319
     15.62925      6.62645     34.09448        -0.068834      0.036761     -0.035593
     15.57011     12.57985     34.48655         0.039532      0.052983      0.039215
     15.12054     11.72631     33.02381         0.013349     -0.018934      0.035902
     16.36137     11.02997     34.12210        -0.004618      0.030354     -0.003965
     13.92733      9.56757     37.25017         0.052447      0.103146      0.037074
     13.99146      7.86300     36.77529         0.033129     -0.051216     -0.000419
     12.52666      8.54078     37.47248        -0.116521     -0.050256      0.033596
      9.73588      9.53031     31.54322        -0.185991     -0.032488      0.075939
     10.35025      9.83737     29.91718         0.004417      0.023407      0.008985
     12.71305      8.66745     29.36350         0.017903      0.067115     -0.058363
     10.04453      7.45992     32.51271        -0.045302     -0.004861      0.048715
     13.83936      6.46218     29.46593        -0.016032     -0.001813      0.004293
     11.19736      5.24660     32.63246        -0.060900      0.017828      0.040039
     13.10641      4.75394     31.13493        -0.066198      0.051473      0.011218
      0.35951      4.60673     34.79485        -0.167016     -0.158936      0.070097
      0.62435     13.82696     35.03951        -0.030262     -0.115584      0.085616
      8.36153      4.07804     34.74239         0.042653     -0.054111      0.024099
      9.05556     13.63089     34.66175         0.166712     -0.089310     -0.138151
      4.29109      9.67835     34.98270         0.029107      0.048953     -0.014194
      4.60066      0.26383     34.84291         0.133194     -0.017949     -0.021208
     14.08232     17.67544     34.99947        -0.120479     -0.111718     -0.024848
      0.18812      4.41724     40.49129        -0.068902     -0.001997      0.329398
      0.21871     13.75601     40.77787        -0.145405     -0.133402      0.004215
      8.68546      4.08003     40.94676        -0.192378      0.119895     -0.075125
      9.00133     13.63490     40.53990        -0.007804      0.016980     -0.058909
      4.55574      8.96345     40.53040         0.309186      0.356084      0.036319
      4.48956     18.01568     40.40702        -0.282836     -0.302390      0.153462
     14.03923      8.72200     40.94627        -0.374849     -0.158109      0.106907
     13.62038     18.02092     40.56111        -0.316386     -0.270081      0.062514
      9.02897      4.51561     46.44552         0.009233      0.007305     -0.013970
      9.02651     13.54701     46.44552         0.017842     -0.001616      0.037783
     18.05937      4.51561     46.44552         0.000876      0.016108      0.043455
     18.05691     13.54701     46.44552         0.006920      0.014225      0.006969
      4.51521      0.00002     46.44421         0.007701      0.004765      0.053144
      4.51275      9.03142     46.44421         0.003593     -0.001596      0.029702
     13.54561      0.00002     46.44421        -0.008011     -0.009898      0.015307
     13.54315      9.03142     46.44421        -0.026103     -0.027556      0.003463
     11.31291      8.22569     30.95098        -0.090876     -0.043682     -0.061883
     12.37417      7.92290     30.08408        -0.002749     -0.062565      0.105543
     10.87799      7.23763     31.84750         0.074796      0.074022     -0.049703
     13.01007      6.67850     30.14240         0.015693      0.010166      0.003549
     11.51572      6.00170     31.91325         0.134344     -0.238282     -0.008704
     12.59199      5.71577     31.06906         0.084463      0.065103     -0.093327
     13.20704      9.68078     33.06312         0.077156     -0.046461     -0.035525
     15.01861      8.64176     34.36858        -0.042446     -0.135834     -0.045484
     14.31984     10.93844     34.91212         0.030261      0.063277     -0.034178
     12.79645      9.08784     35.43628        -0.168176     -0.051421      0.039938
     11.96704     10.56291     32.96064         0.040814     -0.139793     -0.121347
     11.51770     10.72974     31.49718         0.115163      0.085939     -0.091525
     14.68547      7.19124     34.06989         0.063701      0.000112      0.062990
     15.41065     11.57676     34.07368        -0.091201      0.006555     -0.107559
     13.35760      8.75155     36.79751         0.021303     -0.021571     -0.102088
     10.65154      9.58126     30.94612         0.135718      0.075227     -0.125807
     17.94988      3.48047     35.28552         0.228920      0.098867     -0.244353
      0.56706     12.71612     35.73129         0.005912     -0.048029     -0.032308
      9.62958      3.84916     34.99920        -0.083319      0.096182      0.002937
      8.59410     12.51996     35.18363        -0.033934     -0.003217     -0.012110
      7.74296      5.22976     34.85035        -0.011164      0.070174      0.012852
      8.63237     14.83034     34.96851        -0.140108      0.177294      0.161405
     17.99924      5.79276     35.16122         0.231533      0.046708     -0.196500
     17.76429     14.76734     35.07064        -0.041692      0.051380      0.015312
      4.23648      8.43138     35.38675         0.144531     -0.055924     -0.025186
      3.55846     17.61511     35.20984         0.082330     -0.035865      0.052726
     12.80457     17.73085     35.30772         0.389399      0.357894      0.015783
      5.83869     18.00839     35.13331        -0.456493     -0.164656      0.022250
      5.38982     10.35883     34.75341        -0.086716     -0.195338     -0.026827
     14.90642      0.63601     34.99282        -0.083174     -0.018234     -0.081555
      1.00425      3.50397     40.96351         0.014837      0.006549     -0.179701
      1.17988     12.92384     41.10706        -0.185765      0.016443      0.124739
      9.94540      3.74488     41.03648         0.397354     -0.141549     -0.011575
      9.66979     12.69524     41.16493         0.003601     -0.013295     -0.022963
      3.72063      8.12633     41.08924        -0.050139     -0.082242      0.426198
      3.71484     17.25120     41.14965         0.312246      0.294605      0.272393
     12.77176      8.37747     41.03213        -0.069286     -0.146417      0.034270
     12.75068     17.27480     41.20985         0.227875      0.245691      0.269568
      8.20693      5.29513     41.05120         0.150938      0.293642      0.027081
      8.24569     14.54618     41.10286         0.003009     -0.006947      0.125188
     17.46784      5.19530     41.21301         0.134004     -0.112190     -0.233871
     17.07163     13.74392     41.29438         0.066460     -0.024519      0.050209
      5.36248      0.82854     40.84116         0.161566      0.200403      0.325722
      5.33858      9.82288     41.15587        -0.386365     -0.406888      0.246066
     14.42999      0.83919     41.09810         0.096119      0.150722      0.327091
     14.48361      9.94817     40.94926         0.319255      0.502992     -0.200746
      0.82731      3.68697     47.03596         0.025834     -0.033318     -0.087591
      0.82485     12.71837     47.03596         0.029764     -0.033118     -0.069372
      9.85771      3.68697     47.03596         0.025724     -0.032974     -0.054710
      9.85525     12.71837     47.03596         0.018663     -0.018792     -0.087546
      3.68432      8.20234     47.03465        -0.020134     -0.011693     -0.063992
      3.68186     17.23373     47.03465        -0.015293     -0.010587     -0.062606
     12.71472      8.20234     47.03465         0.001705      0.001829     -0.054211
     12.71226     17.23373     47.03465        -0.011180     -0.011713     -0.060023
      8.20068      5.34457     47.03603        -0.025163      0.018895     -0.056170
      8.19822     14.37597     47.03603        -0.024978      0.021223     -0.086503
     17.23108      5.34457     47.03603        -0.010253      0.010401     -0.089828
     17.22862     14.37597     47.03603        -0.014107      0.016694     -0.067354
      5.34365      0.82909     47.03465         0.004073      0.005489     -0.067123
      5.34119      9.86049     47.03465         0.009185      0.018235     -0.066307
     14.37405      0.82909     47.03465         0.025920      0.020334     -0.054915
     14.37159      9.86049     47.03465         0.036570      0.035886     -0.062359
     13.83011      9.57977     34.44423         0.034526      0.213513     -0.130948
      9.30355      0.27416     34.50843         0.037640      0.026507      0.004198
      8.72073      8.93605     34.63726        -0.059110      0.027352     -0.045337
      0.25918      0.10870     34.27098        -0.018448     -0.004119     -0.010583
      0.66871      9.18930     34.57553        -0.020986     -0.025969     -0.019001
      4.27742      4.35494     34.49723         0.003258     -0.001002      0.014900
      4.60611     13.83298     34.58761        -0.018124      0.014109     -0.016920
     13.33775      3.71701     34.63549         0.003667      0.067425     -0.044709
     12.65187     14.29478     34.63065         0.021274     -0.039722     -0.095083
      0.02662     17.77316     40.83931        -0.028610      0.001685     -0.008944
     18.00945      9.14847     40.90893         0.011187     -0.013426      0.009964
      8.96275      0.21601     40.89189         0.012776     -0.025823     -0.002340
      9.14680      8.82512     40.91724         0.021384      0.016193     -0.010834
      4.68607      4.45733     40.88609        -0.014532     -0.001276     -0.017480
      4.66494     13.62713     40.90775         0.020321     -0.005706     -0.019291
     13.45807      4.82029     40.87914        -0.002535     -0.027331      0.009913
     13.46306     13.44975     40.87587        -0.010346      0.005404      0.023559
      2.42945      2.01966     37.94550         0.000789      0.021704      0.007398
      2.66546     10.96890     38.00260        -0.002708      0.011793      0.019583
     11.69467      1.90015     38.10403        -0.000771      0.007243      0.001488
     11.12815     11.34357     38.02692        -0.011776      0.044976      0.012734
      6.46010      7.00350     37.79304         0.015361     -0.016223      0.010252
      6.77095     15.89309     37.88654        -0.014096     -0.003810      0.028701
     16.07175      6.58635     38.04110         0.017998     -0.030497      0.004845
     15.66418     15.86330     37.77780         0.012641      0.016900      0.019069
      2.17262      6.64162     38.07779         0.032296     -0.007736     -0.007176
      2.23460     15.67305     37.96910         0.004769     -0.019625     -0.015750
     10.72392      6.12279     37.56627        -0.011823     -0.006924      0.014403
     11.13201     15.73461     38.30399        -0.007445      0.004675     -0.006059
      6.98133      2.43995     37.82333        -0.009721     -0.007423     -0.013313
      6.94791     11.35394     38.13659        -0.014404      0.012464     -0.007859
     16.01065      2.39917     38.15984        -0.014004      0.007007     -0.029356
     16.15781     11.67607     38.09731         0.075928     -0.043497     -0.068199
      0.00000      0.00000     47.17356         0.002150      0.005036      0.294825
     -0.00246      9.03140     47.17356        -0.000144      0.002650      0.394475
      9.03040      0.00000     47.17356        -0.001742     -0.003127      0.394554
      9.02794      9.03140     47.17356         0.000597      0.005526      0.418113
      4.51398      4.51570     47.17425        -0.007536     -0.003695      0.431606
      4.51152     13.54710     47.17425         0.002894     -0.000984      0.420423
     13.54438      4.51570     47.17425         0.007928     -0.000092      0.414415
     13.54192     13.54710     47.17425        -0.002474     -0.004647      0.398700
      2.45192      2.06295     44.04013        -0.026991     -0.019914     -0.068993
      2.44946     11.09435     44.04013         0.017555     -0.034379     -0.049340
     11.48232      2.06295     44.04013         0.063458     -0.052081     -0.047466
     11.47986     11.09435     44.04013        -0.033537      0.017071     -0.071340
      6.57602      6.96845     44.04013        -0.049434      0.042579     -0.023392
      6.57356     15.99985     44.04013         0.002070      0.001803     -0.029963
     15.60642      6.96845     44.04013         0.086602     -0.022251     -0.025186
     15.60396     15.99985     44.04013        -0.024280      0.022981     -0.033645
      2.06108      6.57881     44.04000        -0.008733      0.012585     -0.064795
      2.05862     15.61021     44.04000         0.046370      0.037642      0.000243
     11.09148      6.57881     44.04000        -0.004813     -0.015957     -0.015548
     11.08902     15.61021     44.04000        -0.024715     -0.004242     -0.043692
      6.96686      2.45259     44.04007        -0.081470     -0.080831     -0.041005
      6.96440     11.48399     44.04007         0.010402      0.016058     -0.052755
     15.99726      2.45259     44.04007         0.031468     -0.006398     -0.090321
     15.99481     11.48399     44.04007         0.028885      0.018808     -0.008570
      2.43163      2.08322     50.06849        -0.001871     -0.021371      0.024187
      2.42917     11.11462     50.06849         0.009706     -0.010842      0.025567
     11.46203      2.08322     50.06849         0.011064     -0.013055      0.029440
     11.45957     11.11462     50.06849         0.014784     -0.004481      0.026288
      6.59631      6.94818     50.06849        -0.014319      0.009416      0.029188
      6.59385     15.97958     50.06849        -0.011211      0.009153      0.025033
     15.62671      6.94818     50.06849        -0.004844      0.012953      0.025429
     15.62425     15.97958     50.06849        -0.001866      0.018640      0.026584
      2.08113      6.59901     50.06905        -0.014539     -0.007016      0.025132
      2.07867     15.63041     50.06905        -0.018666     -0.000892      0.025111
     11.11153      6.59901     50.06905        -0.006555     -0.011755      0.028961
     11.10907     15.63041     50.06905        -0.008420     -0.012422      0.026638
      6.94681      2.43239     50.06905         0.009640      0.007096      0.027018
      6.94435     11.46379     50.06905         0.005841      0.014865      0.026391
     15.97721      2.43239     50.06905         0.022859     -0.000455      0.026083
     15.97475     11.46379     50.06905         0.011029      0.010052      0.025753
     18.05060     18.04294     37.77459         0.003428     -0.028417      0.022617
      0.09203      9.11469     37.75860        -0.002446     -0.000716      0.015164
      9.13515      0.11997     37.72961        -0.018453      0.042434      0.004955
      9.02147      8.88130     37.76445        -0.031175     -0.004592     -0.002107
      4.48752      4.45757     37.64349        -0.053233      0.006721      0.007556
      4.56646     13.47674     37.72075        -0.029688     -0.012159     -0.000440
     13.45816      4.43208     37.64000        -0.000394      0.028017      0.043001
     13.32162     13.63965     37.65839         0.027501     -0.017445      0.029478
      0.00001      0.00001     44.04300        -0.046360     -0.119361      0.119546
     -0.00245      9.03141     44.04300        -0.034762     -0.054916      0.188647
      9.03041      0.00001     44.04300         0.035159      0.088756      0.152400
      9.02795      9.03141     44.04300         0.005073     -0.122442      0.257550
      4.51397      4.51569     44.04275         0.126728      0.047718      0.060077
      4.51151     13.54709     44.04275        -0.034376      0.032220      0.139730
     13.54437      4.51569     44.04275        -0.114058      0.060192      0.107817
     13.54191     13.54709     44.04275        -0.013354      0.063574      0.112081
      0.00000      0.00000     50.44728        -0.000619      0.002274     -0.599895
     -0.00246      9.03140     50.44728        -0.000536     -0.002347     -0.624447
      9.03040      0.00000     50.44728         0.001436      0.005981     -0.629581
      9.02794      9.03140     50.44728         0.000497     -0.005690     -0.638082
      4.51397      4.51570     50.44728         0.012358      0.007562     -0.638816
      4.51151     13.54710     50.44728         0.009302     -0.006621     -0.632861
     13.54437      4.51570     50.44728        -0.012820      0.005866     -0.637854
     13.54191     13.54710     50.44728        -0.008234     -0.007158     -0.630067
 -----------------------------------------------------------------------------------
    total drift:                               -0.056570     -0.000825      0.683295


--------------------------------------------------------------------------------------------------------



  FREE ENERGIE OF THE ION-ELECTRON SYSTEM (eV)
  ---------------------------------------------------
  free  energy   TOTEN  =     -1576.37159198 eV

  energy  without entropy=    -1576.37159198  energy(sigma->0) =    -1576.37159198
 


--------------------------------------------------------------------------------------------------------


    POTLOK:  cpu time    0.5005: real time    0.5005


--------------------------------------------------------------------------------------------------------


     LOOP+:  cpu time  265.7990: real time  266.3667
 vacuum level on the upper side and lower side of the slab         2.302         1.601
    4ORBIT:  cpu time    0.0000: real time    0.0000

 total amount of memory used by VASP MPI-rank0  8653588. kBytes
=======================================================================

   base      :      30000. kBytes
   nonlr-proj:      53626. kBytes
   fftplans  :     249280. kBytes
   grid      :     701440. kBytes
   one-center:       2636. kBytes
   wavefun   :    7616606. kBytes
 
  
  
 General timing and accounting informations for this job:
 ========================================================
  
                  Total CPU time used (sec):      479.790
                            User time (sec):      392.014
                          System time (sec):       87.776
                         Elapsed time (sec):      480.180
  
                   Maximum memory used (kb):    10298764.
                   Average memory used (kb):          N/A
  
                          Minor page faults:      3578883
                          Major page faults:           13
                 Voluntary context switches:        11087
