<?xml version="1.0" encoding="ISO-8859-1"?>
<modeling>
 <generator>
  <i name="program" type="string">vasp </i>
  <i name="version" type="string">6.2.1  </i>
  <i name="subversion" type="string">16May21 (build Nov 15 2021 14:57:28) complex                          parallel </i>
  <i name="platform" type="string">LinuxPGI </i>
  <i name="date" type="string">2023 07 25 </i>
  <i name="time" type="string">02:53:59 </i>
 </generator>
 <incar>
  <i type="string" name="SYSTEM">PSC</i>
  <i type="int" name="ISTART">     1</i>
  <i type="string" name="PREC">Normal</i>
  <i name="BMIX">      0.01000000</i>
  <i name="AMIN">      0.01000000</i>
  <i type="int" name="ICHARG">     1</i>
  <i type="int" name="NELM">   600</i>
  <i type="int" name="ISYM">     0</i>
  <i name="ENCUT">    500.00000000</i>
  <i type="string" name="LREAL">Auto</i>
  <i type="int" name="ISMEAR">     0</i>
  <i name="SIGMA">      0.05000000</i>
  <i type="logical" name="LWAVE"> F  </i>
  <i type="logical" name="LVTOT"> T  </i>
  <i type="logical" name="GGA_COMPAT"> F  </i>
  <i type="logical" name="LDIPOL"> T  </i>
  <i type="int" name="IDIPOL">     3</i>
  <i type="int" name="IVDW">    12</i>
 </incar>
 <primitive_cell>
  <structure name="primitive_cell" >
   <crystal>
    <varray name="basis" >
     <v>      18.06080055       0.00000000       0.00000000 </v>
     <v>      -0.00491865      18.06279945       0.00000000 </v>
     <v>       0.00000000       0.00000000      62.48749924 </v>
    </varray>
    <i name="volume">  20385.21054034 </i>
    <varray name="rec_basis" >
     <v>       0.05536853       0.00001508      -0.00000000 </v>
     <v>       0.00000000       0.05536240       0.00000000 </v>
     <v>       0.00000000      -0.00000000       0.01600320 </v>
    </varray>
   </crystal>
   <varray name="positions" >
    <v>       0.45288481       0.33616931       0.56381217 </v>
    <v>       0.43943890       0.82966231       0.57138064 </v>
    <v>       0.96168309       0.32760270       0.57548516 </v>
    <v>       0.94295360       0.81866196       0.57272185 </v>
    <v>       0.33514082       0.95312826       0.57216992 </v>
    <v>       0.35026853       0.55057091       0.55758998 </v>
    <v>       0.80665306       0.08843131       0.56240643 </v>
    <v>       0.01257472       0.14301195       0.55880104 </v>
    <v>       0.07214915       0.66490840       0.57058776 </v>
    <v>       0.55171648       0.15977160       0.55922196 </v>
    <v>       0.49580153       0.64231689       0.55870324 </v>
    <v>       0.36731109       0.02766181       0.55727968 </v>
    <v>       0.29379215       0.62841663       0.55250669 </v>
    <v>       0.87916216       0.02759707       0.55534753 </v>
    <v>       0.95578184       0.19098106       0.57680134 </v>
    <v>       0.98986878       0.69252202       0.58267978 </v>
    <v>       0.56636642       0.25172841       0.56737422 </v>
    <v>       0.43956290       0.69262856       0.57555933 </v>
    <v>       0.28022789       0.43904563       0.57207652 </v>
    <v>       0.20151103       0.92870767       0.57272069 </v>
    <v>       0.68497262       0.02908000       0.57051676 </v>
    <v>       0.37251805       0.29019603       0.55533324 </v>
    <v>       0.50332777       0.86779191       0.55386572 </v>
    <v>       0.02012852       0.36808623       0.55662751 </v>
    <v>       0.99385024       0.86729588       0.55388239 </v>
    <v>       0.18400962       0.44481785       0.56952407 </v>
    <v>       0.14452845       0.99229192       0.56001356 </v>
    <v>       0.68030704       0.93344063       0.56514764 </v>
    <v>       0.43038250       0.17893725       0.55025550 </v>
    <v>       0.54612224       0.75045393       0.54299264 </v>
    <v>       0.06370806       0.25148779       0.54478822 </v>
    <v>       0.08308079       0.77363402       0.55048846 </v>
    <v>       0.18467930       0.56316321       0.55700722 </v>
    <v>       0.24460234       0.06521730       0.54840064 </v>
    <v>       0.80123299       0.92400788       0.55556144 </v>
    <v>       0.48679655       0.33939359       0.65913299 </v>
    <v>       0.44745125       0.80897849       0.67389583 </v>
    <v>       0.96365812       0.28622469       0.67574185 </v>
    <v>       0.92999564       0.72431437       0.67260627 </v>
    <v>       0.30683952       0.05754481       0.66943871 </v>
    <v>       0.29809089       0.54971870       0.67492015 </v>
    <v>       0.80201989       0.05750122       0.67380683 </v>
    <v>       0.76881576       0.59692291       0.65584077 </v>
    <v>       0.08646961       0.16363595       0.64489742 </v>
    <v>       0.11788210       0.72244712       0.65197452 </v>
    <v>       0.56513419       0.15301054       0.65477140 </v>
    <v>       0.56670946       0.66755124       0.64981466 </v>
    <v>       0.17625374       0.41556182       0.64787873 </v>
    <v>       0.17111979       0.91928884       0.65115154 </v>
    <v>       0.69421928       0.40860308       0.65764197 </v>
    <v>       0.67388282       0.92091827       0.65100588 </v>
    <v>       0.06363860       0.18331600       0.67146114 </v>
    <v>       0.05989588       0.67671819       0.66969828 </v>
    <v>       0.59295433       0.24399643       0.65935863 </v>
    <v>       0.53717386       0.69608048       0.67494420 </v>
    <v>       0.19899853       0.44423581       0.67381055 </v>
    <v>       0.20550753       0.95521152       0.67495843 </v>
    <v>       0.66480455       0.50075084       0.65831588 </v>
    <v>       0.69801376       0.95808770       0.67573476 </v>
    <v>       0.39850127       0.30054554       0.65594675 </v>
    <v>       0.43029700       0.84267409       0.64828872 </v>
    <v>       0.93528423       0.32504787       0.65167716 </v>
    <v>       0.90580226       0.79577305       0.65520179 </v>
    <v>       0.32621645       0.07559035       0.64257835 </v>
    <v>       0.32794369       0.57801969       0.64978634 </v>
    <v>       0.83381394       0.07526813       0.64792897 </v>
    <v>       0.85785079       0.55992756       0.65317379 </v>
    <v>       0.00780858       0.25227123       0.63070281 </v>
    <v>       0.02367338       0.80262630       0.64017241 </v>
    <v>       0.44130983       0.18186516       0.65206499 </v>
    <v>       0.50332011       0.75647925       0.63134631 </v>
    <v>       0.24347937       0.99116645       0.62935977 </v>
    <v>       0.25576330       0.49560116       0.63118582 </v>
    <v>       0.75710565       0.99033901       0.63176064 </v>
    <v>       0.81769624       0.43821811       0.65413334 </v>
    <v>       0.44874502       0.30128397       0.76888902 </v>
    <v>       0.44874501       0.80128391       0.76888902 </v>
    <v>       0.94874497       0.30128397       0.76888902 </v>
    <v>       0.94874501       0.80128391       0.76888902 </v>
    <v>       0.30127600       0.05129450       0.76887296 </v>
    <v>       0.30127601       0.55129450       0.76887296 </v>
    <v>       0.80127594       0.05129450       0.76887296 </v>
    <v>       0.80127598       0.55129450       0.76887296 </v>
    <v>       0.07877100       0.17118050       0.74344197 </v>
    <v>       0.07877101       0.67118045       0.74344197 </v>
    <v>       0.57877100       0.17118050       0.74344197 </v>
    <v>       0.57877099       0.67118045       0.74344197 </v>
    <v>       0.17119950       0.42117448       0.74342103 </v>
    <v>       0.17119950       0.92117451       0.74342103 </v>
    <v>       0.67119951       0.42117448       0.74342103 </v>
    <v>       0.67119950       0.92117451       0.74342103 </v>
    <v>       0.05125600       0.19871499       0.76888902 </v>
    <v>       0.05125600       0.69871493       0.76888902 </v>
    <v>       0.55125603       0.19871499       0.76888902 </v>
    <v>       0.55125602       0.69871493       0.76888902 </v>
    <v>       0.19872349       0.44870397       0.76887205 </v>
    <v>       0.19872349       0.94870397       0.76887205 </v>
    <v>       0.69872352       0.44870397       0.76887205 </v>
    <v>       0.69872351       0.94870397       0.76887205 </v>
    <v>       0.42123152       0.32881747       0.74344197 </v>
    <v>       0.42123151       0.82881744       0.74344197 </v>
    <v>       0.92123147       0.32881747       0.74344197 </v>
    <v>       0.92123151       0.82881744       0.74344197 </v>
    <v>       0.32880050       0.07882500       0.74342103 </v>
    <v>       0.32880049       0.57882496       0.74342103 </v>
    <v>       0.82880048       0.07882500       0.74342103 </v>
    <v>       0.82880052       0.57882496       0.74342103 </v>
    <v>       0.00000350       0.25000148       0.72582199 </v>
    <v>       0.00000350       0.75000145       0.72582199 </v>
    <v>       0.50000351       0.25000148       0.72582199 </v>
    <v>       0.50000350       0.75000145       0.72582199 </v>
    <v>       0.25000050       0.00000000       0.72580398 </v>
    <v>       0.25000052       0.50000000       0.72580398 </v>
    <v>       0.75000050       0.00000000       0.72580398 </v>
    <v>       0.75000049       0.50000000       0.72580398 </v>
    <v>       0.77552072       0.55665769       0.51851551 </v>
    <v>       0.71911056       0.47901951       0.52429432 </v>
    <v>       0.86843396       0.50163488       0.53776985 </v>
    <v>       0.86057585       0.48382553       0.56535386 </v>
    <v>       0.74411623       0.64157947       0.55941316 </v>
    <v>       0.81385076       0.59816128       0.57506564 </v>
    <v>       0.66680048       0.54692053       0.56831234 </v>
    <v>       0.68177407       0.45496488       0.55973946 </v>
    <v>       0.61690207       0.56047090       0.53669676 </v>
    <v>       0.67419065       0.63979718       0.53413375 </v>
    <v>       0.60565528       0.64577631       0.50277402 </v>
    <v>       0.68697930       0.60197913       0.49370690 </v>
    <v>       0.78865610       0.38979330       0.52932944 </v>
    <v>       0.77678262       0.37245498       0.55724103 </v>
    <v>       0.86546866       0.36685644       0.54562079 </v>
    <v>       0.86228402       0.69645080       0.55189511 </v>
    <v>       0.83737877       0.64919643       0.52848669 </v>
    <v>       0.90607133       0.61064545       0.54606289 </v>
    <v>       0.77127985       0.52968382       0.59612192 </v>
    <v>       0.77480487       0.43531452       0.58852231 </v>
    <v>       0.69371148       0.47283838       0.59967970 </v>
    <v>       0.53920522       0.52762107       0.50479246 </v>
    <v>       0.57322658       0.54462024       0.47877072 </v>
    <v>       0.70403369       0.47985076       0.46990994 </v>
    <v>       0.55626319       0.41299907       0.52030738 </v>
    <v>       0.76636238       0.35776199       0.47154927 </v>
    <v>       0.62006033       0.29046463       0.52222377 </v>
    <v>       0.72575461       0.26318961       0.49825856 </v>
    <v>       0.01997481       0.25503991       0.55682896 </v>
    <v>       0.03477790       0.76549362       0.56074430 </v>
    <v>       0.46302714       0.22576984       0.55598938 </v>
    <v>       0.50159863       0.75463910       0.55469902 </v>
    <v>       0.23773741       0.53581664       0.55983512 </v>
    <v>       0.25473549       0.01460643       0.55759810 </v>
    <v>       0.77998391       0.97855470       0.56010360 </v>
    <v>       0.01048241       0.24454930       0.64799026 </v>
    <v>       0.01231706       0.76156589       0.65257639 </v>
    <v>       0.48096274       0.22588011       0.65527920 </v>
    <v>       0.49859623       0.75486101       0.64876813 </v>
    <v>       0.25237998       0.49623837       0.64861618 </v>
    <v>       0.24885174       0.99739116       0.64664160 </v>
    <v>       0.77746323       0.48287095       0.65527132 </v>
    <v>       0.75441213       0.99768129       0.64910755 </v>
    <v>       0.49998898       0.24999498       0.74327702 </v>
    <v>       0.49998903       0.74999496       0.74327702 </v>
    <v>       0.99998898       0.24999498       0.74327702 </v>
    <v>       0.99998903       0.74999496       0.74327702 </v>
    <v>       0.25000050       0.00000100       0.74325596 </v>
    <v>       0.25000052       0.50000100       0.74325596 </v>
    <v>       0.75000050       0.00000100       0.74325596 </v>
    <v>       0.75000049       0.50000100       0.74325596 </v>
    <v>       0.62650329       0.45539402       0.49531477 </v>
    <v>       0.68525883       0.43863085       0.48144157 </v>
    <v>       0.60240770       0.40069251       0.50966200 </v>
    <v>       0.72044921       0.36973788       0.48237495 </v>
    <v>       0.63769880       0.33226827       0.51071409 </v>
    <v>       0.69728635       0.31643899       0.49720446 </v>
    <v>       0.73140052       0.53595143       0.52911578 </v>
    <v>       0.83168894       0.47842865       0.55000729 </v>
    <v>       0.79303340       0.60557835       0.55870568 </v>
    <v>       0.70865770       0.50312473       0.56709383 </v>
    <v>       0.66275643       0.58478831       0.52747580 </v>
    <v>       0.63788008       0.59402437       0.50405577 </v>
    <v>       0.81322147       0.39812430       0.54522734 </v>
    <v>       0.85343983       0.64091717       0.54528802 </v>
    <v>       0.73972260       0.48450699       0.58887798 </v>
    <v>       0.58990468       0.53044173       0.49523699 </v>
    <v>       0.99391090       0.19268743       0.56468124 </v>
    <v>       0.03158924       0.70399485       0.57181493 </v>
    <v>       0.53323382       0.21309866       0.56009915 </v>
    <v>       0.47603162       0.69313521       0.56305067 </v>
    <v>       0.42879520       0.28953225       0.55771714 </v>
    <v>       0.47818520       0.82104314       0.55960814 </v>
    <v>       0.99667898       0.32070132       0.56269214 </v>
    <v>       0.98380550       0.81755532       0.56124257 </v>
    <v>       0.23469502       0.46678143       0.56630126 </v>
    <v>       0.19729224       0.97521467       0.56347006 </v>
    <v>       0.70923781       0.98162227       0.56503648 </v>
    <v>       0.32355140       0.99698802       0.56224545 </v>
    <v>       0.29858263       0.57348970       0.55616574 </v>
    <v>       0.82535616       0.03521080       0.55999720 </v>
    <v>       0.05565664       0.19398834       0.65554726 </v>
    <v>       0.06552298       0.71549493       0.65784447 </v>
    <v>       0.55071872       0.20732562       0.65671497 </v>
    <v>       0.53559360       0.70283922       0.65877068 </v>
    <v>       0.20612829       0.44989340       0.65755944 </v>
    <v>       0.20594513       0.95506817       0.65852618 </v>
    <v>       0.70727969       0.46379667       0.65664538 </v>
    <v>       0.70624664       0.95637440       0.65948951 </v>
    <v>       0.45448566       0.29315106       0.65695061 </v>
    <v>       0.45677113       0.80531159       0.65777725 </v>
    <v>       0.96724679       0.28762457       0.65954000 </v>
    <v>       0.94543837       0.76089636       0.66084226 </v>
    <v>       0.29692509       0.04586988       0.65358928 </v>
    <v>       0.29573763       0.54381850       0.65862569 </v>
    <v>       0.79897973       0.04645973       0.65770119 </v>
    <v>       0.80208621       0.55075475       0.65531924 </v>
    <v>       0.04586250       0.20411950       0.75272599 </v>
    <v>       0.04586250       0.70411946       0.75272599 </v>
    <v>       0.54586251       0.20411950       0.75272599 </v>
    <v>       0.54586250       0.70411946       0.75272599 </v>
    <v>       0.20411900       0.45410100       0.75270499 </v>
    <v>       0.20411899       0.95410095       0.75270499 </v>
    <v>       0.70411898       0.45410100       0.75270499 </v>
    <v>       0.70411896       0.95410095       0.75270499 </v>
    <v>       0.45414002       0.29588849       0.75272697 </v>
    <v>       0.45414001       0.79588852       0.75272697 </v>
    <v>       0.95414002       0.29588849       0.75272697 </v>
    <v>       0.95414006       0.79588852       0.75272697 </v>
    <v>       0.29588249       0.04590050       0.75270499 </v>
    <v>       0.29588248       0.54590053       0.75270499 </v>
    <v>       0.79588244       0.04590050       0.75270499 </v>
    <v>       0.79588248       0.54590053       0.75270499 </v>
    <v>       0.76589750       0.53035931       0.55121792 </v>
    <v>       0.51512823       0.01517788       0.55224528 </v>
    <v>       0.48298847       0.49472102       0.55430697 </v>
    <v>       0.01435185       0.00601776       0.54844533 </v>
    <v>       0.03716378       0.50874193       0.55331923 </v>
    <v>       0.23690015       0.24109986       0.55206617 </v>
    <v>       0.25524206       0.76582714       0.55351244 </v>
    <v>       0.73854764       0.20578241       0.55427871 </v>
    <v>       0.70073108       0.79139343       0.55420118 </v>
    <v>       0.00174191       0.98396481       0.65355974 </v>
    <v>       0.99729468       0.50648134       0.65467379 </v>
    <v>       0.49625753       0.01195882       0.65440109 </v>
    <v>       0.50657768       0.48857980       0.65480675 </v>
    <v>       0.25952794       0.24676838       0.65430824 </v>
    <v>       0.25849659       0.75443055       0.65465486 </v>
    <v>       0.74522629       0.26686272       0.65419701 </v>
    <v>       0.74563256       0.74461070       0.65414469 </v>
    <v>       0.13454540       0.11181315       0.60724951 </v>
    <v>       0.14774816       0.60726471       0.60816327 </v>
    <v>       0.64754555       0.10519709       0.60978645 </v>
    <v>       0.61632014       0.62800724       0.60855244 </v>
    <v>       0.35779161       0.38773038       0.60480963 </v>
    <v>       0.37513707       0.87987958       0.60630584 </v>
    <v>       0.88996832       0.36463609       0.60877936 </v>
    <v>       0.86754196       0.87823018       0.60456568 </v>
    <v>       0.12039510       0.36769619       0.60936651 </v>
    <v>       0.12396275       0.86769767       0.60762721 </v>
    <v>       0.59385974       0.33897263       0.60118055 </v>
    <v>       0.61660030       0.87110560       0.61298644 </v>
    <v>       0.38658272       0.13508130       0.60529435 </v>
    <v>       0.38486683       0.62858162       0.61030743 </v>
    <v>       0.88652217       0.13282377       0.61067958 </v>
    <v>       0.89481037       0.64641542       0.60967883 </v>
    <v>       0.00000000       0.00000000       0.75492797 </v>
    <v>       0.00000000       0.50000000       0.75492797 </v>
    <v>       0.50000000       0.00000000       0.75492797 </v>
    <v>       0.49999999       0.50000000       0.75492797 </v>
    <v>       0.25000050       0.25000000       0.75493902 </v>
    <v>       0.25000051       0.74999997       0.75493902 </v>
    <v>       0.75000047       0.25000000       0.75493902 </v>
    <v>       0.75000046       0.74999997       0.75493902 </v>
    <v>       0.13579050       0.11421000       0.70478299 </v>
    <v>       0.13579050       0.61420998       0.70478299 </v>
    <v>       0.63579045       0.11421000       0.70478299 </v>
    <v>       0.63579049       0.61420998       0.70478299 </v>
    <v>       0.36420952       0.38578999       0.70478299 </v>
    <v>       0.36420950       0.88578996       0.70478299 </v>
    <v>       0.86420954       0.38578999       0.70478299 </v>
    <v>       0.86420953       0.88578996       0.70478299 </v>
    <v>       0.11421799       0.36421899       0.70478098 </v>
    <v>       0.11421799       0.86421899       0.70478098 </v>
    <v>       0.61421800       0.36421899       0.70478098 </v>
    <v>       0.61421799       0.86421899       0.70478098 </v>
    <v>       0.38578201       0.13578149       0.70478202 </v>
    <v>       0.38578200       0.63578149       0.70478202 </v>
    <v>       0.88578199       0.13578149       0.70478202 </v>
    <v>       0.88578203       0.63578149       0.70478202 </v>
    <v>       0.13466700       0.11533200       0.80125603 </v>
    <v>       0.13466699       0.61533199       0.80125603 </v>
    <v>       0.63466699       0.11533200       0.80125603 </v>
    <v>       0.63466698       0.61533199       0.80125603 </v>
    <v>       0.36533300       0.38466799       0.80125603 </v>
    <v>       0.36533299       0.88466796       0.80125603 </v>
    <v>       0.86533295       0.38466799       0.80125603 </v>
    <v>       0.86533294       0.88466796       0.80125603 </v>
    <v>       0.11532850       0.36533700       0.80126500 </v>
    <v>       0.11532850       0.86533698       0.80126500 </v>
    <v>       0.61532850       0.36533700       0.80126500 </v>
    <v>       0.61532849       0.86533698       0.80126500 </v>
    <v>       0.38467151       0.13466300       0.80126500 </v>
    <v>       0.38467150       0.63466297       0.80126500 </v>
    <v>       0.88467149       0.13466300       0.80126500 </v>
    <v>       0.88467153       0.63466297       0.80126500 </v>
    <v>       0.99970707       0.99890034       0.60451428 </v>
    <v>       0.00523318       0.50461119       0.60425843 </v>
    <v>       0.50580149       0.00664207       0.60379459 </v>
    <v>       0.49963945       0.49169017       0.60435214 </v>
    <v>       0.24853443       0.24678180       0.60241627 </v>
    <v>       0.25304152       0.74610472       0.60365266 </v>
    <v>       0.74522545       0.24537043       0.60236041 </v>
    <v>       0.73780439       0.75512389       0.60265478 </v>
    <v>       0.00000050       0.00000050       0.70482896 </v>
    <v>       0.00000050       0.50000048       0.70482896 </v>
    <v>       0.50000048       0.00000050       0.70482896 </v>
    <v>       0.50000046       0.50000048       0.70482896 </v>
    <v>       0.24999999       0.24999947       0.70482499 </v>
    <v>       0.25000001       0.74999950       0.70482499 </v>
    <v>       0.74999999       0.24999947       0.70482499 </v>
    <v>       0.74999998       0.74999950       0.70482499 </v>
    <v>       0.00000000       0.00000000       0.80731797 </v>
    <v>       0.00000000       0.50000000       0.80731797 </v>
    <v>       0.50000000       0.00000000       0.80731797 </v>
    <v>       0.49999999       0.50000000       0.80731797 </v>
    <v>       0.24999999       0.25000000       0.80731797 </v>
    <v>       0.25000001       0.74999997       0.80731797 </v>
    <v>       0.74999999       0.25000000       0.80731797 </v>
    <v>       0.74999998       0.74999997       0.80731797 </v>
   </varray>
  </structure>
  <varray name="primitive_index" >
   <v type="int" >        1 </v>
   <v type="int" >        2 </v>
   <v type="int" >        3 </v>
   <v type="int" >        4 </v>
   <v type="int" >        5 </v>
   <v type="int" >        6 </v>
   <v type="int" >        7 </v>
   <v type="int" >        8 </v>
   <v type="int" >        9 </v>
   <v type="int" >       10 </v>
   <v type="int" >       11 </v>
   <v type="int" >       12 </v>
   <v type="int" >       13 </v>
   <v type="int" >       14 </v>
   <v type="int" >       15 </v>
   <v type="int" >       16 </v>
   <v type="int" >       17 </v>
   <v type="int" >       18 </v>
   <v type="int" >       19 </v>
   <v type="int" >       20 </v>
   <v type="int" >       21 </v>
   <v type="int" >       22 </v>
   <v type="int" >       23 </v>
   <v type="int" >       24 </v>
   <v type="int" >       25 </v>
   <v type="int" >       26 </v>
   <v type="int" >       27 </v>
   <v type="int" >       28 </v>
   <v type="int" >       29 </v>
   <v type="int" >       30 </v>
   <v type="int" >       31 </v>
   <v type="int" >       32 </v>
   <v type="int" >       33 </v>
   <v type="int" >       34 </v>
   <v type="int" >       35 </v>
   <v type="int" >       36 </v>
   <v type="int" >       37 </v>
   <v type="int" >       38 </v>
   <v type="int" >       39 </v>
   <v type="int" >       40 </v>
   <v type="int" >       41 </v>
   <v type="int" >       42 </v>
   <v type="int" >       43 </v>
   <v type="int" >       44 </v>
   <v type="int" >       45 </v>
   <v type="int" >       46 </v>
   <v type="int" >       47 </v>
   <v type="int" >       48 </v>
   <v type="int" >       49 </v>
   <v type="int" >       50 </v>
   <v type="int" >       51 </v>
   <v type="int" >       52 </v>
   <v type="int" >       53 </v>
   <v type="int" >       54 </v>
   <v type="int" >       55 </v>
   <v type="int" >       56 </v>
   <v type="int" >       57 </v>
   <v type="int" >       58 </v>
   <v type="int" >       59 </v>
   <v type="int" >       60 </v>
   <v type="int" >       61 </v>
   <v type="int" >       62 </v>
   <v type="int" >       63 </v>
   <v type="int" >       64 </v>
   <v type="int" >       65 </v>
   <v type="int" >       66 </v>
   <v type="int" >       67 </v>
   <v type="int" >       68 </v>
   <v type="int" >       69 </v>
   <v type="int" >       70 </v>
   <v type="int" >       71 </v>
   <v type="int" >       72 </v>
   <v type="int" >       73 </v>
   <v type="int" >       74 </v>
   <v type="int" >       75 </v>
   <v type="int" >       76 </v>
   <v type="int" >       77 </v>
   <v type="int" >       78 </v>
   <v type="int" >       79 </v>
   <v type="int" >       80 </v>
   <v type="int" >       81 </v>
   <v type="int" >       82 </v>
   <v type="int" >       83 </v>
   <v type="int" >       84 </v>
   <v type="int" >       85 </v>
   <v type="int" >       86 </v>
   <v type="int" >       87 </v>
   <v type="int" >       88 </v>
   <v type="int" >       89 </v>
   <v type="int" >       90 </v>
   <v type="int" >       91 </v>
   <v type="int" >       92 </v>
   <v type="int" >       93 </v>
   <v type="int" >       94 </v>
   <v type="int" >       95 </v>
   <v type="int" >       96 </v>
   <v type="int" >       97 </v>
   <v type="int" >       98 </v>
   <v type="int" >       99 </v>
   <v type="int" >      100 </v>
   <v type="int" >      101 </v>
   <v type="int" >      102 </v>
   <v type="int" >      103 </v>
   <v type="int" >      104 </v>
   <v type="int" >      105 </v>
   <v type="int" >      106 </v>
   <v type="int" >      107 </v>
   <v type="int" >      108 </v>
   <v type="int" >      109 </v>
   <v type="int" >      110 </v>
   <v type="int" >      111 </v>
   <v type="int" >      112 </v>
   <v type="int" >      113 </v>
   <v type="int" >      114 </v>
   <v type="int" >      115 </v>
   <v type="int" >      116 </v>
   <v type="int" >      117 </v>
   <v type="int" >      118 </v>
   <v type="int" >      119 </v>
   <v type="int" >      120 </v>
   <v type="int" >      121 </v>
   <v type="int" >      122 </v>
   <v type="int" >      123 </v>
   <v type="int" >      124 </v>
   <v type="int" >      125 </v>
   <v type="int" >      126 </v>
   <v type="int" >      127 </v>
   <v type="int" >      128 </v>
   <v type="int" >      129 </v>
   <v type="int" >      130 </v>
   <v type="int" >      131 </v>
   <v type="int" >      132 </v>
   <v type="int" >      133 </v>
   <v type="int" >      134 </v>
   <v type="int" >      135 </v>
   <v type="int" >      136 </v>
   <v type="int" >      137 </v>
   <v type="int" >      138 </v>
   <v type="int" >      139 </v>
   <v type="int" >      140 </v>
   <v type="int" >      141 </v>
   <v type="int" >      142 </v>
   <v type="int" >      143 </v>
   <v type="int" >      144 </v>
   <v type="int" >      145 </v>
   <v type="int" >      146 </v>
   <v type="int" >      147 </v>
   <v type="int" >      148 </v>
   <v type="int" >      149 </v>
   <v type="int" >      150 </v>
   <v type="int" >      151 </v>
   <v type="int" >      152 </v>
   <v type="int" >      153 </v>
   <v type="int" >      154 </v>
   <v type="int" >      155 </v>
   <v type="int" >      156 </v>
   <v type="int" >      157 </v>
   <v type="int" >      158 </v>
   <v type="int" >      159 </v>
   <v type="int" >      160 </v>
   <v type="int" >      161 </v>
   <v type="int" >      162 </v>
   <v type="int" >      163 </v>
   <v type="int" >      164 </v>
   <v type="int" >      165 </v>
   <v type="int" >      166 </v>
   <v type="int" >      167 </v>
   <v type="int" >      168 </v>
   <v type="int" >      169 </v>
   <v type="int" >      170 </v>
   <v type="int" >      171 </v>
   <v type="int" >      172 </v>
   <v type="int" >      173 </v>
   <v type="int" >      174 </v>
   <v type="int" >      175 </v>
   <v type="int" >      176 </v>
   <v type="int" >      177 </v>
   <v type="int" >      178 </v>
   <v type="int" >      179 </v>
   <v type="int" >      180 </v>
   <v type="int" >      181 </v>
   <v type="int" >      182 </v>
   <v type="int" >      183 </v>
   <v type="int" >      184 </v>
   <v type="int" >      185 </v>
   <v type="int" >      186 </v>
   <v type="int" >      187 </v>
   <v type="int" >      188 </v>
   <v type="int" >      189 </v>
   <v type="int" >      190 </v>
   <v type="int" >      191 </v>
   <v type="int" >      192 </v>
   <v type="int" >      193 </v>
   <v type="int" >      194 </v>
   <v type="int" >      195 </v>
   <v type="int" >      196 </v>
   <v type="int" >      197 </v>
   <v type="int" >      198 </v>
   <v type="int" >      199 </v>
   <v type="int" >      200 </v>
   <v type="int" >      201 </v>
   <v type="int" >      202 </v>
   <v type="int" >      203 </v>
   <v type="int" >      204 </v>
   <v type="int" >      205 </v>
   <v type="int" >      206 </v>
   <v type="int" >      207 </v>
   <v type="int" >      208 </v>
   <v type="int" >      209 </v>
   <v type="int" >      210 </v>
   <v type="int" >      211 </v>
   <v type="int" >      212 </v>
   <v type="int" >      213 </v>
   <v type="int" >      214 </v>
   <v type="int" >      215 </v>
   <v type="int" >      216 </v>
   <v type="int" >      217 </v>
   <v type="int" >      218 </v>
   <v type="int" >      219 </v>
   <v type="int" >      220 </v>
   <v type="int" >      221 </v>
   <v type="int" >      222 </v>
   <v type="int" >      223 </v>
   <v type="int" >      224 </v>
   <v type="int" >      225 </v>
   <v type="int" >      226 </v>
   <v type="int" >      227 </v>
   <v type="int" >      228 </v>
   <v type="int" >      229 </v>
   <v type="int" >      230 </v>
   <v type="int" >      231 </v>
   <v type="int" >      232 </v>
   <v type="int" >      233 </v>
   <v type="int" >      234 </v>
   <v type="int" >      235 </v>
   <v type="int" >      236 </v>
   <v type="int" >      237 </v>
   <v type="int" >      238 </v>
   <v type="int" >      239 </v>
   <v type="int" >      240 </v>
   <v type="int" >      241 </v>
   <v type="int" >      242 </v>
   <v type="int" >      243 </v>
   <v type="int" >      244 </v>
   <v type="int" >      245 </v>
   <v type="int" >      246 </v>
   <v type="int" >      247 </v>
   <v type="int" >      248 </v>
   <v type="int" >      249 </v>
   <v type="int" >      250 </v>
   <v type="int" >      251 </v>
   <v type="int" >      252 </v>
   <v type="int" >      253 </v>
   <v type="int" >      254 </v>
   <v type="int" >      255 </v>
   <v type="int" >      256 </v>
   <v type="int" >      257 </v>
   <v type="int" >      258 </v>
   <v type="int" >      259 </v>
   <v type="int" >      260 </v>
   <v type="int" >      261 </v>
   <v type="int" >      262 </v>
   <v type="int" >      263 </v>
   <v type="int" >      264 </v>
   <v type="int" >      265 </v>
   <v type="int" >      266 </v>
   <v type="int" >      267 </v>
   <v type="int" >      268 </v>
   <v type="int" >      269 </v>
   <v type="int" >      270 </v>
   <v type="int" >      271 </v>
   <v type="int" >      272 </v>
   <v type="int" >      273 </v>
   <v type="int" >      274 </v>
   <v type="int" >      275 </v>
   <v type="int" >      276 </v>
   <v type="int" >      277 </v>
   <v type="int" >      278 </v>
   <v type="int" >      279 </v>
   <v type="int" >      280 </v>
   <v type="int" >      281 </v>
   <v type="int" >      282 </v>
   <v type="int" >      283 </v>
   <v type="int" >      284 </v>
   <v type="int" >      285 </v>
   <v type="int" >      286 </v>
   <v type="int" >      287 </v>
   <v type="int" >      288 </v>
   <v type="int" >      289 </v>
   <v type="int" >      290 </v>
   <v type="int" >      291 </v>
   <v type="int" >      292 </v>
   <v type="int" >      293 </v>
   <v type="int" >      294 </v>
   <v type="int" >      295 </v>
   <v type="int" >      296 </v>
   <v type="int" >      297 </v>
   <v type="int" >      298 </v>
   <v type="int" >      299 </v>
   <v type="int" >      300 </v>
   <v type="int" >      301 </v>
   <v type="int" >      302 </v>
   <v type="int" >      303 </v>
   <v type="int" >      304 </v>
   <v type="int" >      305 </v>
   <v type="int" >      306 </v>
   <v type="int" >      307 </v>
   <v type="int" >      308 </v>
   <v type="int" >      309 </v>
   <v type="int" >      310 </v>
   <v type="int" >      311 </v>
   <v type="int" >      312 </v>
   <v type="int" >      313 </v>
   <v type="int" >      314 </v>
   <v type="int" >      315 </v>
   <v type="int" >      316 </v>
   <v type="int" >      317 </v>
   <v type="int" >      318 </v>
   <v type="int" >      319 </v>
   <v type="int" >      320 </v>
   <v type="int" >      321 </v>
   <v type="int" >      322 </v>
   <v type="int" >      323 </v>
   <v type="int" >      324 </v>
   <v type="int" >      325 </v>
  </varray>
 </primitive_cell>
 <kpoints>
  <generation param="Gamma">
   <v type="int" name="divisions">       3        3        1 </v>
   <v name="usershift">      0.00000000       0.00000000       0.00000000 </v>
   <v name="genvec1">      0.33333333       0.00000000       0.00000000 </v>
   <v name="genvec2">      0.00000000       0.33333333       0.00000000 </v>
   <v name="genvec3">      0.00000000       0.00000000       1.00000000 </v>
   <v name="shift">      0.00000000       0.00000000       0.00000000 </v>
  </generation>
  <varray name="kpointlist" >
   <v>       0.00000000       0.00000000       0.00000000 </v>
   <v>       0.33333333       0.00000000       0.00000000 </v>
   <v>       0.00000000       0.33333333       0.00000000 </v>
   <v>       0.33333333       0.33333333       0.00000000 </v>
   <v>      -0.33333333       0.33333333       0.00000000 </v>
  </varray>
  <varray name="weights" >
   <v>       0.11111111 </v>
   <v>       0.22222222 </v>
   <v>       0.22222222 </v>
   <v>       0.22222222 </v>
   <v>       0.22222222 </v>
  </varray>
 </kpoints>
 <parameters>
  <separator name="general" >
   <i type="string" name="SYSTEM">PSC</i>
   <i type="logical" name="LCOMPAT"> F  </i>
  </separator>
  <separator name="electronic" >
   <i type="string" name="PREC">normal</i>
   <i name="ENMAX">    500.00000000</i>
   <i name="ENAUG">    644.87300000</i>
   <i name="EDIFF">      0.00010000</i>
   <i type="int" name="IALGO">    38</i>
   <i type="int" name="IWAVPR">    10</i>
   <i type="int" name="NBANDS">   732</i>
   <i type="int" name="NBANDSLOW">    -1</i>
   <i type="int" name="NBANDSHIGH">    -1</i>
   <i name="NELECT">   1134.00000000</i>
   <i type="int" name="TURBO">     0</i>
   <i type="int" name="IRESTART">     0</i>
   <i type="int" name="NREBOOT">     0</i>
   <i type="int" name="NMIN">     0</i>
   <i name="EREF">      0.00000000</i>
   <separator name="electronic smearing" >
    <i type="int" name="ISMEAR">     0</i>
    <i name="SIGMA">      0.05000000</i>
    <i name="KSPACING">      0.50000000</i>
    <i type="logical" name="KGAMMA"> T  </i>
    <i type="logical" name="KBLOWUP"> T  </i>
   </separator>
   <separator name="electronic projectors" >
    <i type="logical" name="LREAL"> T  </i>
    <v name="ROPT">     -0.00050000     -0.00050000     -0.00050000     -0.00050000     -0.00050000</v>
    <i type="int" name="LMAXPAW">  -100</i>
    <i type="int" name="LMAXMIX">     2</i>
    <i type="logical" name="NLSPLINE"> F  </i>
   </separator>
   <separator name="electronic startup" >
    <i type="int" name="ISTART">     0</i>
    <i type="int" name="ICHARG">     1</i>
    <i type="int" name="INIWAV">     1</i>
   </separator>
   <separator name="electronic spin" >
    <i type="int" name="ISPIN">     1</i>
    <i type="logical" name="LNONCOLLINEAR"> F  </i>
    <v name="MAGMOM">      1.00000000      1.00000000      1.00000000      1.00000000      1.00000000      1.00000000      1.00000000      1.00000000      1.00000000      1.00000000      1.00000000      1.00000000      1.00000000      1.00000000      1.00000000      1.00000000      1.00000000      1.00000000      1.00000000      1.00000000
      1.00000000      1.00000000      1.00000000      1.00000000      1.00000000      1.00000000      1.00000000      1.00000000      1.00000000      1.00000000      1.00000000      1.00000000      1.00000000      1.00000000      1.00000000      1.00000000      1.00000000      1.00000000      1.00000000      1.00000000
      1.00000000      1.00000000      1.00000000      1.00000000      1.00000000      1.00000000      1.00000000      1.00000000      1.00000000      1.00000000      1.00000000      1.00000000      1.00000000      1.00000000      1.00000000      1.00000000      1.00000000      1.00000000      1.00000000      1.00000000
      1.00000000      1.00000000      1.00000000      1.00000000      1.00000000      1.00000000      1.00000000      1.00000000      1.00000000      1.00000000      1.00000000      1.00000000      1.00000000      1.00000000      1.00000000      1.00000000      1.00000000      1.00000000      1.00000000      1.00000000
      1.00000000      1.00000000      1.00000000      1.00000000      1.00000000      1.00000000      1.00000000      1.00000000      1.00000000      1.00000000      1.00000000      1.00000000      1.00000000      1.00000000      1.00000000      1.00000000      1.00000000      1.00000000      1.00000000      1.00000000
      1.00000000      1.00000000      1.00000000      1.00000000      1.00000000      1.00000000      1.00000000      1.00000000      1.00000000      1.00000000      1.00000000      1.00000000      1.00000000      1.00000000      1.00000000      1.00000000      1.00000000      1.00000000      1.00000000      1.00000000
      1.00000000      1.00000000      1.00000000      1.00000000      1.00000000      1.00000000      1.00000000      1.00000000      1.00000000      1.00000000      1.00000000      1.00000000      1.00000000      1.00000000      1.00000000      1.00000000      1.00000000      1.00000000      1.00000000      1.00000000
      1.00000000      1.00000000      1.00000000      1.00000000      1.00000000      1.00000000      1.00000000      1.00000000      1.00000000      1.00000000      1.00000000      1.00000000      1.00000000      1.00000000      1.00000000      1.00000000      1.00000000      1.00000000      1.00000000      1.00000000
      1.00000000      1.00000000      1.00000000      1.00000000      1.00000000      1.00000000      1.00000000      1.00000000      1.00000000      1.00000000      1.00000000      1.00000000      1.00000000      1.00000000      1.00000000      1.00000000      1.00000000      1.00000000      1.00000000      1.00000000
      1.00000000      1.00000000      1.00000000      1.00000000      1.00000000      1.00000000      1.00000000      1.00000000      1.00000000      1.00000000      1.00000000      1.00000000      1.00000000      1.00000000      1.00000000      1.00000000      1.00000000      1.00000000      1.00000000      1.00000000
      1.00000000      1.00000000      1.00000000      1.00000000      1.00000000      1.00000000      1.00000000      1.00000000      1.00000000      1.00000000      1.00000000      1.00000000      1.00000000      1.00000000      1.00000000      1.00000000      1.00000000      1.00000000      1.00000000      1.00000000
      1.00000000      1.00000000      1.00000000      1.00000000      1.00000000      1.00000000      1.00000000      1.00000000      1.00000000      1.00000000      1.00000000      1.00000000      1.00000000      1.00000000      1.00000000      1.00000000      1.00000000      1.00000000      1.00000000      1.00000000
      1.00000000      1.00000000      1.00000000      1.00000000      1.00000000      1.00000000      1.00000000      1.00000000      1.00000000      1.00000000      1.00000000      1.00000000      1.00000000      1.00000000      1.00000000      1.00000000      1.00000000      1.00000000      1.00000000      1.00000000
      1.00000000      1.00000000      1.00000000      1.00000000      1.00000000      1.00000000      1.00000000      1.00000000      1.00000000      1.00000000      1.00000000      1.00000000      1.00000000      1.00000000      1.00000000      1.00000000      1.00000000      1.00000000      1.00000000      1.00000000
      1.00000000      1.00000000      1.00000000      1.00000000      1.00000000      1.00000000      1.00000000      1.00000000      1.00000000      1.00000000      1.00000000      1.00000000      1.00000000      1.00000000      1.00000000      1.00000000      1.00000000      1.00000000      1.00000000      1.00000000
      1.00000000      1.00000000      1.00000000      1.00000000      1.00000000      1.00000000      1.00000000      1.00000000      1.00000000      1.00000000      1.00000000      1.00000000      1.00000000      1.00000000      1.00000000      1.00000000      1.00000000      1.00000000      1.00000000      1.00000000
      1.00000000      1.00000000      1.00000000      1.00000000      1.00000000</v>
    <i name="NUPDOWN">     -1.00000000</i>
    <i type="logical" name="LSORBIT"> F  </i>
    <v name="SAXIS">      0.00000000      0.00000000      1.00000000</v>
    <i type="logical" name="LSPIRAL"> F  </i>
    <v name="QSPIRAL">      0.00000000      0.00000000      0.00000000</v>
    <i type="logical" name="LZEROZ"> F  </i>
   </separator>
   <separator name="electronic exchange-correlation" >
    <i type="logical" name="LASPH"> F  </i>
    <i type="logical" name="LMETAGGA"> F  </i>
   </separator>
   <separator name="electronic convergence" >
    <i type="int" name="NELM">   600</i>
    <i type="int" name="NELMDL">     0</i>
    <i type="int" name="NELMIN">     2</i>
    <i name="ENINI">    500.00000000</i>
    <separator name="electronic convergence detail" >
     <i type="logical" name="LDIAG"> T  </i>
     <i type="logical" name="LSUBROT"> F  </i>
     <i name="WEIMIN">      0.00000000</i>
     <i name="EBREAK">      0.00000003</i>
     <i name="DEPER">      0.30000000</i>
     <i type="int" name="NRMM">     4</i>
     <i name="TIME">      0.40000000</i>
    </separator>
   </separator>
   <separator name="electronic mixer" >
    <i name="AMIX">      0.40000000</i>
    <i name="BMIX">      0.01000000</i>
    <i name="AMIN">      0.01000000</i>
    <i name="AMIX_MAG">      1.60000000</i>
    <i name="BMIX_MAG">      0.01000000</i>
    <separator name="electronic mixer details" >
     <i type="int" name="IMIX">     4</i>
     <i type="logical" name="MIXFIRST"> F  </i>
     <i type="int" name="MAXMIX">   -45</i>
     <i name="WC">    100.00000000</i>
     <i type="int" name="INIMIX">     1</i>
     <i type="int" name="MIXPRE">     1</i>
     <i type="int" name="MREMOVE">     5</i>
    </separator>
   </separator>
   <separator name="electronic dipolcorrection" >
    <i type="logical" name="LDIPOL"> T  </i>
    <i type="logical" name="LMONO"> F  </i>
    <i type="int" name="IDIPOL">     3</i>
    <i name="EPSILON">      1.00000000</i>
    <v name="DIPOL">   -100.00000000   -100.00000000   -100.00000000</v>
    <i name="EFIELD">      0.00000000</i>
   </separator>
  </separator>
  <separator name="grids" >
   <i type="int" name="NGX">   100</i>
   <i type="int" name="NGY">   100</i>
   <i type="int" name="NGZ">   350</i>
   <i type="int" name="NGXF">   200</i>
   <i type="int" name="NGYF">   200</i>
   <i type="int" name="NGZF">   700</i>
   <i type="logical" name="ADDGRID"> F  </i>
  </separator>
  <separator name="ionic" >
   <i type="int" name="NSW">     0</i>
   <i type="int" name="IBRION">    -1</i>
   <i type="int" name="MDALGO">     0</i>
   <i type="int" name="ISIF">     2</i>
   <i name="PSTRESS">      0.00000000</i>
   <i name="EDIFFG">      0.00100000</i>
   <i type="int" name="NFREE">     0</i>
   <i name="POTIM">      0.50000000</i>
   <i name="SMASS">     -3.00000000</i>
   <i name="SCALEE">      1.00000000</i>
  </separator>
  <separator name="ionic md" >
   <i name="TEBEG">      0.00010000</i>
   <i name="TEEND">      0.00010000</i>
   <i type="int" name="NBLOCK">     1</i>
   <i type="int" name="KBLOCK">     1</i>
   <i type="int" name="NPACO">   256</i>
   <i name="APACO">     16.00000000</i>
  </separator>
  <separator name="symmetry" >
   <i type="int" name="ISYM">     0</i>
   <i name="SYMPREC">      0.00001000</i>
  </separator>
  <separator name="dos" >
   <i type="int" name="LORBIT">     0</i>
   <v name="RWIGS">     -1.00000000     -1.00000000     -1.00000000     -1.00000000     -1.00000000</v>
   <i type="int" name="NEDOS">   301</i>
   <i name="EMIN">     10.00000000</i>
   <i name="EMAX">    -10.00000000</i>
   <i name="EFERMI">      0.00000000</i>
  </separator>
  <separator name="writing" >
   <i type="int" name="NWRITE">     2</i>
   <i type="logical" name="LWAVE"> F  </i>
   <i type="logical" name="LDOWNSAMPLE"> F  </i>
   <i type="logical" name="LCHARG"> T  </i>
   <i type="logical" name="LPARD"> F  </i>
   <i type="logical" name="LVTOT"> T  </i>
   <i type="logical" name="LVHAR"> F  </i>
   <i type="logical" name="LELF"> F  </i>
   <i type="logical" name="LOPTICS"> F  </i>
   <v name="STM">      0.00000000      0.00000000      0.00000000      0.00000000      0.00000000      0.00000000      0.00000000</v>
  </separator>
  <separator name="performance" >
   <i type="int" name="NPAR">     4</i>
   <i type="int" name="NSIM">     4</i>
   <i type="int" name="NBLK">    -1</i>
   <i type="logical" name="LPLANE"> T  </i>
   <i type="logical" name="LSCALAPACK"> T  </i>
   <i type="logical" name="LSCAAWARE"> F  </i>
   <i type="logical" name="LSCALU"> F  </i>
   <i type="logical" name="LASYNC"> F  </i>
   <i type="logical" name="LORBITALREAL"> F  </i>
  </separator>
  <separator name="miscellaneous" >
   <i type="int" name="IDIOT">     3</i>
   <i type="int" name="PHON_NSTRUCT">    -1</i>
   <i type="logical" name="LMUSIC"> F  </i>
   <v name="POMASS">      1.00000000     12.01100000     14.00100000    126.90400000    207.20000000</v>
   <v name="DARWINR">      0.00000000      0.00000000      0.00000000      0.00000000      0.00000000</v>
   <v name="DARWINV">      1.00000000      1.00000000      1.00000000      1.00000000      1.00000000</v>
   <i type="logical" name="LCORR"> T  </i>
  </separator>
  <i type="logical" name="GGA_COMPAT"> F  </i>
  <i type="logical" name="LBERRY"> F  </i>
  <i type="int" name="ICORELEVEL">     0</i>
  <i type="logical" name="LDAU"> F  </i>
  <i type="int" name="I_CONSTRAINED_M">     0</i>
  <separator name="electronic exchange-correlation" >
   <i type="string" name="GGA">--</i>
   <i type="int" name="VOSKOWN">     0</i>
   <i type="logical" name="LHFCALC"> F  </i>
   <i type="string" name="PRECFOCK"></i>
   <i type="logical" name="LSYMGRAD"> F  </i>
   <i type="logical" name="LHFONE"> F  </i>
   <i type="logical" name="LRHFCALC"> F  </i>
   <i type="logical" name="LTHOMAS"> F  </i>
   <i type="logical" name="LMODELHF"> F  </i>
   <i type="logical" name="LFOCKACE"> F  </i>
   <i name="ENCUT4O">     -1.00000000</i>
   <i type="int" name="EXXOEP">     0</i>
   <i type="int" name="FOURORBIT">     0</i>
   <i name="AEXX">      0.00000000</i>
   <i name="HFALPHA">      0.00000000</i>
   <i name="MCALPHA">      0.00000000</i>
   <i name="ALDAX">      1.00000000</i>
   <i name="AGGAX">      1.00000000</i>
   <i name="ALDAC">      1.00000000</i>
   <i name="AGGAC">      1.00000000</i>
   <i type="int" name="NKREDX">     1</i>
   <i type="int" name="NKREDY">     1</i>
   <i type="int" name="NKREDZ">     1</i>
   <i type="logical" name="SHIFTRED"> F  </i>
   <i type="logical" name="ODDONLY"> F  </i>
   <i type="logical" name="EVENONLY"> F  </i>
   <i type="int" name="LMAXFOCK">     0</i>
   <i type="int" name="NMAXFOCKAE">     0</i>
   <i type="logical" name="LFOCKAEDFT"> F  </i>
   <i name="HFSCREEN">      0.00000000</i>
   <i name="HFSCREENC">      0.00000000</i>
   <i type="int" name="NBANDSGWLOW">     0</i>
  </separator>
  <separator name="vdW DFT" >
   <i type="logical" name="LUSE_VDW"> F  </i>
   <i name="Zab_VDW">     -0.84910000</i>
   <i name="PARAM1">      0.12340000</i>
   <i name="PARAM2">      1.00000000</i>
   <i name="PARAM3">      0.00000000</i>
  </separator>
  <separator name="model GW" >
   <i type="int" name="MODEL_GW">     0</i>
   <i name="MODEL_EPS0">     37.63423484</i>
   <i name="MODEL_ALPHA">      1.00000000</i>
  </separator>
  <separator name="linear response parameters" >
   <i type="logical" name="LEPSILON"> F  </i>
   <i type="logical" name="LRPA"> F  </i>
   <i type="logical" name="LNABLA"> F  </i>
   <i type="logical" name="LVEL"> F  </i>
   <i type="int" name="KINTER">     0</i>
   <i name="CSHIFT">      0.10000000</i>
   <i name="OMEGAMAX">     -1.00000000</i>
   <i name="DEG_THRESHOLD">      0.00200000</i>
   <i name="RTIME">     -0.10000000</i>
   <i name="WPLASMAI">      0.00000000</i>
   <v name="DFIELD">      0.00000000      0.00000000      0.00000000</v>
   <v name="WPLASMA">      0.00000000      0.00000000      0.00000000      0.00000000      0.00000000      0.00000000      0.00000000      0.00000000      0.00000000</v>
  </separator>
  <separator name="orbital magnetization" >
   <i type="logical" name="NUCIND"> F  </i>
   <v name="MAGPOS">      0.00000000      0.00000000      0.00000000</v>
   <i type="logical" name="LNICSALL"> T  </i>
   <i type="logical" name="ORBITALMAG"> F  </i>
   <i type="logical" name="LMAGBLOCH"> F  </i>
   <i type="logical" name="LCHIMAG"> F  </i>
   <i type="logical" name="LGAUGE"> T  </i>
   <i type="int" name="MAGATOM">     0</i>
   <v name="MAGDIPOL">      0.00000000      0.00000000      0.00000000</v>
   <v name="AVECCONST">      0.00000000      0.00000000      0.00000000</v>
  </separator>
  <separator name="response functions" >
   <i type="logical" name="LFINITE_TEMPERATURE"> F  </i>
   <i type="logical" name="LADDER"> F  </i>
   <i type="logical" name="LRPAFORCE"> F  </i>
   <i type="logical" name="LFXC"> F  </i>
   <i type="logical" name="LHARTREE"> T  </i>
   <i type="int" name="IBSE">     0</i>
   <v type="int" name="KPOINT">    -1     0     0     0</v>
   <i type="logical" name="LTCTC"> F  </i>
   <i type="logical" name="LTCTE"> F  </i>
   <i type="logical" name="LTETE"> F  </i>
   <i type="logical" name="LTRIPLET"> F  </i>
   <i type="logical" name="LFXCEPS"> F  </i>
   <i type="logical" name="LFXHEG"> F  </i>
   <i type="int" name="NATURALO">     2</i>
   <i type="logical" name="LHOLEGF"> F  </i>
   <i type="logical" name="L2ORDER"> F  </i>
   <i type="logical" name="LDMP1"> F  </i>
   <i type="logical" name="LMP2LT"> F  </i>
   <i type="logical" name="LSMP2LT"> F  </i>
   <i type="logical" name="LGWLF"> F  </i>
   <i name="ENCUTGW">     -2.00000000</i>
   <i name="ENCUTGWSOFT">     -2.00000000</i>
   <i name="ENCUTLF">     -1.00000000</i>
   <i type="logical" name="LESF_SPLINES"> F  </i>
   <i type="int" name="LMAXMP2">    -1</i>
   <i name="SCISSOR">      0.00000000</i>
   <i type="int" name="NOMEGA">     0</i>
   <i type="int" name="NOMEGAR">     0</i>
   <i type="int" name="NBANDSGW">    -1</i>
   <i type="int" name="NBANDSO">    -1</i>
   <i type="int" name="NBANDSV">    -1</i>
   <i type="int" name="NELM">   600</i>
   <i type="int" name="NELMHF">     1</i>
   <i type="int" name="DIM">     3</i>
   <i type="int" name="IESPILON">     4</i>
   <i type="int" name="ANTIRES">     0</i>
   <i name="OMEGAMAX">    -30.00000000</i>
   <i name="OMEGAMIN">    -30.00000000</i>
   <i name="OMEGATL">   -200.00000000</i>
   <i type="int" name="OMEGAGRID">     0</i>
   <i name="CSHIFT">     -0.10000000</i>
   <i type="logical" name="LSELFENERGY"> F  </i>
   <i type="logical" name="LSPECTRAL"> F  </i>
   <i type="logical" name="LSPECTRALGW"> F  </i>
   <i type="logical" name="LSINGLES"> F  </i>
   <i type="logical" name="LFERMIGW"> F  </i>
   <i type="logical" name="ODDONLYGW"> F  </i>
   <i type="logical" name="EVENONLYGW"> F  </i>
   <i type="int" name="NKREDLFX">     1</i>
   <i type="int" name="NKREDLFY">     1</i>
   <i type="int" name="NKREDLFZ">     1</i>
   <i type="int" name="MAXMEM">  2800</i>
   <i type="int" name="TELESCOPE">     0</i>
   <i type="int" name="NTAUPAR">    -1</i>
   <i type="int" name="NOMEGAPAR">    -1</i>
   <i name="DAMP_NEWTON">      0.80000001</i>
   <i name="LAMBDA">      1.00000000</i>
  </separator>
  <separator name="External order field" >
   <i name="OFIELD_KAPPA">      0.00000000</i>
   <v name="OFIELD_K">      0.00000000      0.00000000      0.00000000</v>
   <i name="OFIELD_Q6_NEAR">      0.00000000</i>
   <i name="OFIELD_Q6_FAR">      0.00000000</i>
   <i name="OFIELD_A">      0.00000000</i>
  </separator>
 </parameters>
 <atominfo>
  <atoms>     325 </atoms>
  <types>       5 </types>
  <array name="atoms" >
   <dimension dim="1">ion</dimension>
   <field type="string">element</field>
   <field type="int">atomtype</field>
   <set>
    <rc><c>H </c><c>   1</c></rc>
    <rc><c>H </c><c>   1</c></rc>
    <rc><c>H </c><c>   1</c></rc>
    <rc><c>H </c><c>   1</c></rc>
    <rc><c>H </c><c>   1</c></rc>
    <rc><c>H </c><c>   1</c></rc>
    <rc><c>H </c><c>   1</c></rc>
    <rc><c>H </c><c>   1</c></rc>
    <rc><c>H </c><c>   1</c></rc>
    <rc><c>H </c><c>   1</c></rc>
    <rc><c>H </c><c>   1</c></rc>
    <rc><c>H </c><c>   1</c></rc>
    <rc><c>H </c><c>   1</c></rc>
    <rc><c>H </c><c>   1</c></rc>
    <rc><c>H </c><c>   1</c></rc>
    <rc><c>H </c><c>   1</c></rc>
    <rc><c>H </c><c>   1</c></rc>
    <rc><c>H </c><c>   1</c></rc>
    <rc><c>H </c><c>   1</c></rc>
    <rc><c>H </c><c>   1</c></rc>
    <rc><c>H </c><c>   1</c></rc>
    <rc><c>H </c><c>   1</c></rc>
    <rc><c>H </c><c>   1</c></rc>
    <rc><c>H </c><c>   1</c></rc>
    <rc><c>H </c><c>   1</c></rc>
    <rc><c>H </c><c>   1</c></rc>
    <rc><c>H </c><c>   1</c></rc>
    <rc><c>H </c><c>   1</c></rc>
    <rc><c>H </c><c>   1</c></rc>
    <rc><c>H </c><c>   1</c></rc>
    <rc><c>H </c><c>   1</c></rc>
    <rc><c>H </c><c>   1</c></rc>
    <rc><c>H </c><c>   1</c></rc>
    <rc><c>H </c><c>   1</c></rc>
    <rc><c>H </c><c>   1</c></rc>
    <rc><c>H </c><c>   1</c></rc>
    <rc><c>H </c><c>   1</c></rc>
    <rc><c>H </c><c>   1</c></rc>
    <rc><c>H </c><c>   1</c></rc>
    <rc><c>H </c><c>   1</c></rc>
    <rc><c>H </c><c>   1</c></rc>
    <rc><c>H </c><c>   1</c></rc>
    <rc><c>H </c><c>   1</c></rc>
    <rc><c>H </c><c>   1</c></rc>
    <rc><c>H </c><c>   1</c></rc>
    <rc><c>H </c><c>   1</c></rc>
    <rc><c>H </c><c>   1</c></rc>
    <rc><c>H </c><c>   1</c></rc>
    <rc><c>H </c><c>   1</c></rc>
    <rc><c>H </c><c>   1</c></rc>
    <rc><c>H </c><c>   1</c></rc>
    <rc><c>H </c><c>   1</c></rc>
    <rc><c>H </c><c>   1</c></rc>
    <rc><c>H </c><c>   1</c></rc>
    <rc><c>H </c><c>   1</c></rc>
    <rc><c>H </c><c>   1</c></rc>
    <rc><c>H </c><c>   1</c></rc>
    <rc><c>H </c><c>   1</c></rc>
    <rc><c>H </c><c>   1</c></rc>
    <rc><c>H </c><c>   1</c></rc>
    <rc><c>H </c><c>   1</c></rc>
    <rc><c>H </c><c>   1</c></rc>
    <rc><c>H </c><c>   1</c></rc>
    <rc><c>H </c><c>   1</c></rc>
    <rc><c>H </c><c>   1</c></rc>
    <rc><c>H </c><c>   1</c></rc>
    <rc><c>H </c><c>   1</c></rc>
    <rc><c>H </c><c>   1</c></rc>
    <rc><c>H </c><c>   1</c></rc>
    <rc><c>H </c><c>   1</c></rc>
    <rc><c>H </c><c>   1</c></rc>
    <rc><c>H </c><c>   1</c></rc>
    <rc><c>H </c><c>   1</c></rc>
    <rc><c>H </c><c>   1</c></rc>
    <rc><c>H </c><c>   1</c></rc>
    <rc><c>H </c><c>   1</c></rc>
    <rc><c>H </c><c>   1</c></rc>
    <rc><c>H </c><c>   1</c></rc>
    <rc><c>H </c><c>   1</c></rc>
    <rc><c>H </c><c>   1</c></rc>
    <rc><c>H </c><c>   1</c></rc>
    <rc><c>H </c><c>   1</c></rc>
    <rc><c>H </c><c>   1</c></rc>
    <rc><c>H </c><c>   1</c></rc>
    <rc><c>H </c><c>   1</c></rc>
    <rc><c>H </c><c>   1</c></rc>
    <rc><c>H </c><c>   1</c></rc>
    <rc><c>H </c><c>   1</c></rc>
    <rc><c>H </c><c>   1</c></rc>
    <rc><c>H </c><c>   1</c></rc>
    <rc><c>H </c><c>   1</c></rc>
    <rc><c>H </c><c>   1</c></rc>
    <rc><c>H </c><c>   1</c></rc>
    <rc><c>H </c><c>   1</c></rc>
    <rc><c>H </c><c>   1</c></rc>
    <rc><c>H </c><c>   1</c></rc>
    <rc><c>H </c><c>   1</c></rc>
    <rc><c>H </c><c>   1</c></rc>
    <rc><c>H </c><c>   1</c></rc>
    <rc><c>H </c><c>   1</c></rc>
    <rc><c>H </c><c>   1</c></rc>
    <rc><c>H </c><c>   1</c></rc>
    <rc><c>H </c><c>   1</c></rc>
    <rc><c>H </c><c>   1</c></rc>
    <rc><c>H </c><c>   1</c></rc>
    <rc><c>H </c><c>   1</c></rc>
    <rc><c>H </c><c>   1</c></rc>
    <rc><c>H </c><c>   1</c></rc>
    <rc><c>H </c><c>   1</c></rc>
    <rc><c>H </c><c>   1</c></rc>
    <rc><c>H </c><c>   1</c></rc>
    <rc><c>H </c><c>   1</c></rc>
    <rc><c>H </c><c>   1</c></rc>
    <rc><c>H </c><c>   1</c></rc>
    <rc><c>H </c><c>   1</c></rc>
    <rc><c>H </c><c>   1</c></rc>
    <rc><c>H </c><c>   1</c></rc>
    <rc><c>H </c><c>   1</c></rc>
    <rc><c>H </c><c>   1</c></rc>
    <rc><c>H </c><c>   1</c></rc>
    <rc><c>H </c><c>   1</c></rc>
    <rc><c>H </c><c>   1</c></rc>
    <rc><c>H </c><c>   1</c></rc>
    <rc><c>H </c><c>   1</c></rc>
    <rc><c>H </c><c>   1</c></rc>
    <rc><c>H </c><c>   1</c></rc>
    <rc><c>H </c><c>   1</c></rc>
    <rc><c>H </c><c>   1</c></rc>
    <rc><c>H </c><c>   1</c></rc>
    <rc><c>H </c><c>   1</c></rc>
    <rc><c>H </c><c>   1</c></rc>
    <rc><c>H </c><c>   1</c></rc>
    <rc><c>H </c><c>   1</c></rc>
    <rc><c>H </c><c>   1</c></rc>
    <rc><c>H </c><c>   1</c></rc>
    <rc><c>H </c><c>   1</c></rc>
    <rc><c>H </c><c>   1</c></rc>
    <rc><c>H </c><c>   1</c></rc>
    <rc><c>H </c><c>   1</c></rc>
    <rc><c>H </c><c>   1</c></rc>
    <rc><c>H </c><c>   1</c></rc>
    <rc><c>H </c><c>   1</c></rc>
    <rc><c>H </c><c>   1</c></rc>
    <rc><c>C </c><c>   2</c></rc>
    <rc><c>C </c><c>   2</c></rc>
    <rc><c>C </c><c>   2</c></rc>
    <rc><c>C </c><c>   2</c></rc>
    <rc><c>C </c><c>   2</c></rc>
    <rc><c>C </c><c>   2</c></rc>
    <rc><c>C </c><c>   2</c></rc>
    <rc><c>C </c><c>   2</c></rc>
    <rc><c>C </c><c>   2</c></rc>
    <rc><c>C </c><c>   2</c></rc>
    <rc><c>C </c><c>   2</c></rc>
    <rc><c>C </c><c>   2</c></rc>
    <rc><c>C </c><c>   2</c></rc>
    <rc><c>C </c><c>   2</c></rc>
    <rc><c>C </c><c>   2</c></rc>
    <rc><c>C </c><c>   2</c></rc>
    <rc><c>C </c><c>   2</c></rc>
    <rc><c>C </c><c>   2</c></rc>
    <rc><c>C </c><c>   2</c></rc>
    <rc><c>C </c><c>   2</c></rc>
    <rc><c>C </c><c>   2</c></rc>
    <rc><c>C </c><c>   2</c></rc>
    <rc><c>C </c><c>   2</c></rc>
    <rc><c>C </c><c>   2</c></rc>
    <rc><c>C </c><c>   2</c></rc>
    <rc><c>C </c><c>   2</c></rc>
    <rc><c>C </c><c>   2</c></rc>
    <rc><c>C </c><c>   2</c></rc>
    <rc><c>C </c><c>   2</c></rc>
    <rc><c>C </c><c>   2</c></rc>
    <rc><c>C </c><c>   2</c></rc>
    <rc><c>C </c><c>   2</c></rc>
    <rc><c>C </c><c>   2</c></rc>
    <rc><c>C </c><c>   2</c></rc>
    <rc><c>C </c><c>   2</c></rc>
    <rc><c>C </c><c>   2</c></rc>
    <rc><c>C </c><c>   2</c></rc>
    <rc><c>C </c><c>   2</c></rc>
    <rc><c>C </c><c>   2</c></rc>
    <rc><c>N </c><c>   3</c></rc>
    <rc><c>N </c><c>   3</c></rc>
    <rc><c>N </c><c>   3</c></rc>
    <rc><c>N </c><c>   3</c></rc>
    <rc><c>N </c><c>   3</c></rc>
    <rc><c>N </c><c>   3</c></rc>
    <rc><c>N </c><c>   3</c></rc>
    <rc><c>N </c><c>   3</c></rc>
    <rc><c>N </c><c>   3</c></rc>
    <rc><c>N </c><c>   3</c></rc>
    <rc><c>N </c><c>   3</c></rc>
    <rc><c>N </c><c>   3</c></rc>
    <rc><c>N </c><c>   3</c></rc>
    <rc><c>N </c><c>   3</c></rc>
    <rc><c>N </c><c>   3</c></rc>
    <rc><c>N </c><c>   3</c></rc>
    <rc><c>N </c><c>   3</c></rc>
    <rc><c>N </c><c>   3</c></rc>
    <rc><c>N </c><c>   3</c></rc>
    <rc><c>N </c><c>   3</c></rc>
    <rc><c>N </c><c>   3</c></rc>
    <rc><c>N </c><c>   3</c></rc>
    <rc><c>N </c><c>   3</c></rc>
    <rc><c>N </c><c>   3</c></rc>
    <rc><c>N </c><c>   3</c></rc>
    <rc><c>N </c><c>   3</c></rc>
    <rc><c>N </c><c>   3</c></rc>
    <rc><c>N </c><c>   3</c></rc>
    <rc><c>N </c><c>   3</c></rc>
    <rc><c>N </c><c>   3</c></rc>
    <rc><c>N </c><c>   3</c></rc>
    <rc><c>N </c><c>   3</c></rc>
    <rc><c>N </c><c>   3</c></rc>
    <rc><c>N </c><c>   3</c></rc>
    <rc><c>N </c><c>   3</c></rc>
    <rc><c>N </c><c>   3</c></rc>
    <rc><c>N </c><c>   3</c></rc>
    <rc><c>N </c><c>   3</c></rc>
    <rc><c>N </c><c>   3</c></rc>
    <rc><c>N </c><c>   3</c></rc>
    <rc><c>N </c><c>   3</c></rc>
    <rc><c>N </c><c>   3</c></rc>
    <rc><c>N </c><c>   3</c></rc>
    <rc><c>N </c><c>   3</c></rc>
    <rc><c>N </c><c>   3</c></rc>
    <rc><c>N </c><c>   3</c></rc>
    <rc><c>N </c><c>   3</c></rc>
    <rc><c>I </c><c>   4</c></rc>
    <rc><c>I </c><c>   4</c></rc>
    <rc><c>I </c><c>   4</c></rc>
    <rc><c>I </c><c>   4</c></rc>
    <rc><c>I </c><c>   4</c></rc>
    <rc><c>I </c><c>   4</c></rc>
    <rc><c>I </c><c>   4</c></rc>
    <rc><c>I </c><c>   4</c></rc>
    <rc><c>I </c><c>   4</c></rc>
    <rc><c>I </c><c>   4</c></rc>
    <rc><c>I </c><c>   4</c></rc>
    <rc><c>I </c><c>   4</c></rc>
    <rc><c>I </c><c>   4</c></rc>
    <rc><c>I </c><c>   4</c></rc>
    <rc><c>I </c><c>   4</c></rc>
    <rc><c>I </c><c>   4</c></rc>
    <rc><c>I </c><c>   4</c></rc>
    <rc><c>I </c><c>   4</c></rc>
    <rc><c>I </c><c>   4</c></rc>
    <rc><c>I </c><c>   4</c></rc>
    <rc><c>I </c><c>   4</c></rc>
    <rc><c>I </c><c>   4</c></rc>
    <rc><c>I </c><c>   4</c></rc>
    <rc><c>I </c><c>   4</c></rc>
    <rc><c>I </c><c>   4</c></rc>
    <rc><c>I </c><c>   4</c></rc>
    <rc><c>I </c><c>   4</c></rc>
    <rc><c>I </c><c>   4</c></rc>
    <rc><c>I </c><c>   4</c></rc>
    <rc><c>I </c><c>   4</c></rc>
    <rc><c>I </c><c>   4</c></rc>
    <rc><c>I </c><c>   4</c></rc>
    <rc><c>I </c><c>   4</c></rc>
    <rc><c>I </c><c>   4</c></rc>
    <rc><c>I </c><c>   4</c></rc>
    <rc><c>I </c><c>   4</c></rc>
    <rc><c>I </c><c>   4</c></rc>
    <rc><c>I </c><c>   4</c></rc>
    <rc><c>I </c><c>   4</c></rc>
    <rc><c>I </c><c>   4</c></rc>
    <rc><c>I </c><c>   4</c></rc>
    <rc><c>I </c><c>   4</c></rc>
    <rc><c>I </c><c>   4</c></rc>
    <rc><c>I </c><c>   4</c></rc>
    <rc><c>I </c><c>   4</c></rc>
    <rc><c>I </c><c>   4</c></rc>
    <rc><c>I </c><c>   4</c></rc>
    <rc><c>I </c><c>   4</c></rc>
    <rc><c>I </c><c>   4</c></rc>
    <rc><c>I </c><c>   4</c></rc>
    <rc><c>I </c><c>   4</c></rc>
    <rc><c>I </c><c>   4</c></rc>
    <rc><c>I </c><c>   4</c></rc>
    <rc><c>I </c><c>   4</c></rc>
    <rc><c>I </c><c>   4</c></rc>
    <rc><c>I </c><c>   4</c></rc>
    <rc><c>I </c><c>   4</c></rc>
    <rc><c>I </c><c>   4</c></rc>
    <rc><c>I </c><c>   4</c></rc>
    <rc><c>I </c><c>   4</c></rc>
    <rc><c>I </c><c>   4</c></rc>
    <rc><c>I </c><c>   4</c></rc>
    <rc><c>I </c><c>   4</c></rc>
    <rc><c>I </c><c>   4</c></rc>
    <rc><c>I </c><c>   4</c></rc>
    <rc><c>I </c><c>   4</c></rc>
    <rc><c>I </c><c>   4</c></rc>
    <rc><c>I </c><c>   4</c></rc>
    <rc><c>I </c><c>   4</c></rc>
    <rc><c>I </c><c>   4</c></rc>
    <rc><c>I </c><c>   4</c></rc>
    <rc><c>I </c><c>   4</c></rc>
    <rc><c>Pb</c><c>   5</c></rc>
    <rc><c>Pb</c><c>   5</c></rc>
    <rc><c>Pb</c><c>   5</c></rc>
    <rc><c>Pb</c><c>   5</c></rc>
    <rc><c>Pb</c><c>   5</c></rc>
    <rc><c>Pb</c><c>   5</c></rc>
    <rc><c>Pb</c><c>   5</c></rc>
    <rc><c>Pb</c><c>   5</c></rc>
    <rc><c>Pb</c><c>   5</c></rc>
    <rc><c>Pb</c><c>   5</c></rc>
    <rc><c>Pb</c><c>   5</c></rc>
    <rc><c>Pb</c><c>   5</c></rc>
    <rc><c>Pb</c><c>   5</c></rc>
    <rc><c>Pb</c><c>   5</c></rc>
    <rc><c>Pb</c><c>   5</c></rc>
    <rc><c>Pb</c><c>   5</c></rc>
    <rc><c>Pb</c><c>   5</c></rc>
    <rc><c>Pb</c><c>   5</c></rc>
    <rc><c>Pb</c><c>   5</c></rc>
    <rc><c>Pb</c><c>   5</c></rc>
    <rc><c>Pb</c><c>   5</c></rc>
    <rc><c>Pb</c><c>   5</c></rc>
    <rc><c>Pb</c><c>   5</c></rc>
    <rc><c>Pb</c><c>   5</c></rc>
   </set>
  </array>
  <array name="atomtypes" >
   <dimension dim="1">type</dimension>
   <field type="int">atomspertype</field>
   <field type="string">element</field>
   <field>mass</field>
   <field>valence</field>
   <field type="string">pseudopotential</field>
   <set>
    <rc><c> 143</c><c>H </c><c>      1.00000000</c><c>      1.00000000</c><c>  PAW_PBE H 15Jun2001                   </c></rc>
    <rc><c>  39</c><c>C </c><c>     12.01100000</c><c>      4.00000000</c><c>  PAW_PBE C 08Apr2002                   </c></rc>
    <rc><c>  47</c><c>N </c><c>     14.00100000</c><c>      5.00000000</c><c>  PAW_PBE N 08Apr2002                   </c></rc>
    <rc><c>  72</c><c>I </c><c>    126.90400000</c><c>      7.00000000</c><c>  PAW_PBE I 08Apr2002                   </c></rc>
    <rc><c>  24</c><c>Pb</c><c>    207.20000000</c><c>      4.00000000</c><c>  PAW_PBE Pb 08Apr2002                  </c></rc>
   </set>
  </array>
 </atominfo>
 <structure name="initialpos" >
  <crystal>
   <varray name="basis" >
    <v>      18.06080055       0.00000000       0.00000000 </v>
    <v>      -0.00491865      18.06279945       0.00000000 </v>
    <v>       0.00000000       0.00000000      62.48749924 </v>
   </varray>
   <i name="volume">  20385.21054034 </i>
   <varray name="rec_basis" >
    <v>       0.05536853       0.00001508      -0.00000000 </v>
    <v>       0.00000000       0.05536240       0.00000000 </v>
    <v>       0.00000000      -0.00000000       0.01600320 </v>
   </varray>
  </crystal>
  <varray name="positions" >
   <v>       0.45288481       0.33616931       0.56381217 </v>
   <v>       0.43943890       0.82966231       0.57138064 </v>
   <v>       0.96168309       0.32760270       0.57548516 </v>
   <v>       0.94295360       0.81866196       0.57272185 </v>
   <v>       0.33514082       0.95312826       0.57216992 </v>
   <v>       0.35026853       0.55057091       0.55758998 </v>
   <v>       0.80665306       0.08843131       0.56240643 </v>
   <v>       0.01257472       0.14301195       0.55880104 </v>
   <v>       0.07214915       0.66490840       0.57058776 </v>
   <v>       0.55171648       0.15977160       0.55922196 </v>
   <v>       0.49580153       0.64231689       0.55870324 </v>
   <v>       0.36731109       0.02766181       0.55727968 </v>
   <v>       0.29379215       0.62841663       0.55250669 </v>
   <v>       0.87916216       0.02759707       0.55534753 </v>
   <v>       0.95578184       0.19098106       0.57680134 </v>
   <v>       0.98986878       0.69252202       0.58267978 </v>
   <v>       0.56636642       0.25172841       0.56737422 </v>
   <v>       0.43956290       0.69262856       0.57555933 </v>
   <v>       0.28022789       0.43904563       0.57207652 </v>
   <v>       0.20151103       0.92870767       0.57272069 </v>
   <v>       0.68497262       0.02908000       0.57051676 </v>
   <v>       0.37251805       0.29019603       0.55533324 </v>
   <v>       0.50332777       0.86779191       0.55386572 </v>
   <v>       0.02012852       0.36808623       0.55662751 </v>
   <v>       0.99385024       0.86729588       0.55388239 </v>
   <v>       0.18400962       0.44481785       0.56952407 </v>
   <v>       0.14452845       0.99229192       0.56001356 </v>
   <v>       0.68030704       0.93344063       0.56514764 </v>
   <v>       0.43038250       0.17893725       0.55025550 </v>
   <v>       0.54612224       0.75045393       0.54299264 </v>
   <v>       0.06370806       0.25148779       0.54478822 </v>
   <v>       0.08308079       0.77363402       0.55048846 </v>
   <v>       0.18467930       0.56316321       0.55700722 </v>
   <v>       0.24460234       0.06521730       0.54840064 </v>
   <v>       0.80123299       0.92400788       0.55556144 </v>
   <v>       0.48679655       0.33939359       0.65913299 </v>
   <v>       0.44745125       0.80897849       0.67389583 </v>
   <v>       0.96365812       0.28622469       0.67574185 </v>
   <v>       0.92999564       0.72431437       0.67260627 </v>
   <v>       0.30683952       0.05754481       0.66943871 </v>
   <v>       0.29809089       0.54971870       0.67492015 </v>
   <v>       0.80201989       0.05750122       0.67380683 </v>
   <v>       0.76881576       0.59692291       0.65584077 </v>
   <v>       0.08646961       0.16363595       0.64489742 </v>
   <v>       0.11788210       0.72244712       0.65197452 </v>
   <v>       0.56513419       0.15301054       0.65477140 </v>
   <v>       0.56670946       0.66755124       0.64981466 </v>
   <v>       0.17625374       0.41556182       0.64787873 </v>
   <v>       0.17111979       0.91928884       0.65115154 </v>
   <v>       0.69421928       0.40860308       0.65764197 </v>
   <v>       0.67388282       0.92091827       0.65100588 </v>
   <v>       0.06363860       0.18331600       0.67146114 </v>
   <v>       0.05989588       0.67671819       0.66969828 </v>
   <v>       0.59295433       0.24399643       0.65935863 </v>
   <v>       0.53717386       0.69608048       0.67494420 </v>
   <v>       0.19899853       0.44423581       0.67381055 </v>
   <v>       0.20550753       0.95521152       0.67495843 </v>
   <v>       0.66480455       0.50075084       0.65831588 </v>
   <v>       0.69801376       0.95808770       0.67573476 </v>
   <v>       0.39850127       0.30054554       0.65594675 </v>
   <v>       0.43029700       0.84267409       0.64828872 </v>
   <v>       0.93528423       0.32504787       0.65167716 </v>
   <v>       0.90580226       0.79577305       0.65520179 </v>
   <v>       0.32621645       0.07559035       0.64257835 </v>
   <v>       0.32794369       0.57801969       0.64978634 </v>
   <v>       0.83381394       0.07526813       0.64792897 </v>
   <v>       0.85785079       0.55992756       0.65317379 </v>
   <v>       0.00780858       0.25227123       0.63070281 </v>
   <v>       0.02367338       0.80262630       0.64017241 </v>
   <v>       0.44130983       0.18186516       0.65206499 </v>
   <v>       0.50332011       0.75647925       0.63134631 </v>
   <v>       0.24347937       0.99116645       0.62935977 </v>
   <v>       0.25576330       0.49560116       0.63118582 </v>
   <v>       0.75710565       0.99033901       0.63176064 </v>
   <v>       0.81769624       0.43821811       0.65413334 </v>
   <v>       0.44874502       0.30128397       0.76888902 </v>
   <v>       0.44874501       0.80128391       0.76888902 </v>
   <v>       0.94874497       0.30128397       0.76888902 </v>
   <v>       0.94874501       0.80128391       0.76888902 </v>
   <v>       0.30127600       0.05129450       0.76887296 </v>
   <v>       0.30127601       0.55129450       0.76887296 </v>
   <v>       0.80127594       0.05129450       0.76887296 </v>
   <v>       0.80127598       0.55129450       0.76887296 </v>
   <v>       0.07877100       0.17118050       0.74344197 </v>
   <v>       0.07877101       0.67118045       0.74344197 </v>
   <v>       0.57877100       0.17118050       0.74344197 </v>
   <v>       0.57877099       0.67118045       0.74344197 </v>
   <v>       0.17119950       0.42117448       0.74342103 </v>
   <v>       0.17119950       0.92117451       0.74342103 </v>
   <v>       0.67119951       0.42117448       0.74342103 </v>
   <v>       0.67119950       0.92117451       0.74342103 </v>
   <v>       0.05125600       0.19871499       0.76888902 </v>
   <v>       0.05125600       0.69871493       0.76888902 </v>
   <v>       0.55125603       0.19871499       0.76888902 </v>
   <v>       0.55125602       0.69871493       0.76888902 </v>
   <v>       0.19872349       0.44870397       0.76887205 </v>
   <v>       0.19872349       0.94870397       0.76887205 </v>
   <v>       0.69872352       0.44870397       0.76887205 </v>
   <v>       0.69872351       0.94870397       0.76887205 </v>
   <v>       0.42123152       0.32881747       0.74344197 </v>
   <v>       0.42123151       0.82881744       0.74344197 </v>
   <v>       0.92123147       0.32881747       0.74344197 </v>
   <v>       0.92123151       0.82881744       0.74344197 </v>
   <v>       0.32880050       0.07882500       0.74342103 </v>
   <v>       0.32880049       0.57882496       0.74342103 </v>
   <v>       0.82880048       0.07882500       0.74342103 </v>
   <v>       0.82880052       0.57882496       0.74342103 </v>
   <v>       0.00000350       0.25000148       0.72582199 </v>
   <v>       0.00000350       0.75000145       0.72582199 </v>
   <v>       0.50000351       0.25000148       0.72582199 </v>
   <v>       0.50000350       0.75000145       0.72582199 </v>
   <v>       0.25000050       0.00000000       0.72580398 </v>
   <v>       0.25000052       0.50000000       0.72580398 </v>
   <v>       0.75000050       0.00000000       0.72580398 </v>
   <v>       0.75000049       0.50000000       0.72580398 </v>
   <v>       0.77552072       0.55665769       0.51851551 </v>
   <v>       0.71911056       0.47901951       0.52429432 </v>
   <v>       0.86843396       0.50163488       0.53776985 </v>
   <v>       0.86057585       0.48382553       0.56535386 </v>
   <v>       0.74411623       0.64157947       0.55941316 </v>
   <v>       0.81385076       0.59816128       0.57506564 </v>
   <v>       0.66680048       0.54692053       0.56831234 </v>
   <v>       0.68177407       0.45496488       0.55973946 </v>
   <v>       0.61690207       0.56047090       0.53669676 </v>
   <v>       0.67419065       0.63979718       0.53413375 </v>
   <v>       0.60565528       0.64577631       0.50277402 </v>
   <v>       0.68697930       0.60197913       0.49370690 </v>
   <v>       0.78865610       0.38979330       0.52932944 </v>
   <v>       0.77678262       0.37245498       0.55724103 </v>
   <v>       0.86546866       0.36685644       0.54562079 </v>
   <v>       0.86228402       0.69645080       0.55189511 </v>
   <v>       0.83737877       0.64919643       0.52848669 </v>
   <v>       0.90607133       0.61064545       0.54606289 </v>
   <v>       0.77127985       0.52968382       0.59612192 </v>
   <v>       0.77480487       0.43531452       0.58852231 </v>
   <v>       0.69371148       0.47283838       0.59967970 </v>
   <v>       0.53920522       0.52762107       0.50479246 </v>
   <v>       0.57322658       0.54462024       0.47877072 </v>
   <v>       0.70403369       0.47985076       0.46990994 </v>
   <v>       0.55626319       0.41299907       0.52030738 </v>
   <v>       0.76636238       0.35776199       0.47154927 </v>
   <v>       0.62006033       0.29046463       0.52222377 </v>
   <v>       0.72575461       0.26318961       0.49825856 </v>
   <v>       0.01997481       0.25503991       0.55682896 </v>
   <v>       0.03477790       0.76549362       0.56074430 </v>
   <v>       0.46302714       0.22576984       0.55598938 </v>
   <v>       0.50159863       0.75463910       0.55469902 </v>
   <v>       0.23773741       0.53581664       0.55983512 </v>
   <v>       0.25473549       0.01460643       0.55759810 </v>
   <v>       0.77998391       0.97855470       0.56010360 </v>
   <v>       0.01048241       0.24454930       0.64799026 </v>
   <v>       0.01231706       0.76156589       0.65257639 </v>
   <v>       0.48096274       0.22588011       0.65527920 </v>
   <v>       0.49859623       0.75486101       0.64876813 </v>
   <v>       0.25237998       0.49623837       0.64861618 </v>
   <v>       0.24885174       0.99739116       0.64664160 </v>
   <v>       0.77746323       0.48287095       0.65527132 </v>
   <v>       0.75441213       0.99768129       0.64910755 </v>
   <v>       0.49998898       0.24999498       0.74327702 </v>
   <v>       0.49998903       0.74999496       0.74327702 </v>
   <v>       0.99998898       0.24999498       0.74327702 </v>
   <v>       0.99998903       0.74999496       0.74327702 </v>
   <v>       0.25000050       0.00000100       0.74325596 </v>
   <v>       0.25000052       0.50000100       0.74325596 </v>
   <v>       0.75000050       0.00000100       0.74325596 </v>
   <v>       0.75000049       0.50000100       0.74325596 </v>
   <v>       0.62650329       0.45539402       0.49531477 </v>
   <v>       0.68525883       0.43863085       0.48144157 </v>
   <v>       0.60240770       0.40069251       0.50966200 </v>
   <v>       0.72044921       0.36973788       0.48237495 </v>
   <v>       0.63769880       0.33226827       0.51071409 </v>
   <v>       0.69728635       0.31643899       0.49720446 </v>
   <v>       0.73140052       0.53595143       0.52911578 </v>
   <v>       0.83168894       0.47842865       0.55000729 </v>
   <v>       0.79303340       0.60557835       0.55870568 </v>
   <v>       0.70865770       0.50312473       0.56709383 </v>
   <v>       0.66275643       0.58478831       0.52747580 </v>
   <v>       0.63788008       0.59402437       0.50405577 </v>
   <v>       0.81322147       0.39812430       0.54522734 </v>
   <v>       0.85343983       0.64091717       0.54528802 </v>
   <v>       0.73972260       0.48450699       0.58887798 </v>
   <v>       0.58990468       0.53044173       0.49523699 </v>
   <v>       0.99391090       0.19268743       0.56468124 </v>
   <v>       0.03158924       0.70399485       0.57181493 </v>
   <v>       0.53323382       0.21309866       0.56009915 </v>
   <v>       0.47603162       0.69313521       0.56305067 </v>
   <v>       0.42879520       0.28953225       0.55771714 </v>
   <v>       0.47818520       0.82104314       0.55960814 </v>
   <v>       0.99667898       0.32070132       0.56269214 </v>
   <v>       0.98380550       0.81755532       0.56124257 </v>
   <v>       0.23469502       0.46678143       0.56630126 </v>
   <v>       0.19729224       0.97521467       0.56347006 </v>
   <v>       0.70923781       0.98162227       0.56503648 </v>
   <v>       0.32355140       0.99698802       0.56224545 </v>
   <v>       0.29858263       0.57348970       0.55616574 </v>
   <v>       0.82535616       0.03521080       0.55999720 </v>
   <v>       0.05565664       0.19398834       0.65554726 </v>
   <v>       0.06552298       0.71549493       0.65784447 </v>
   <v>       0.55071872       0.20732562       0.65671497 </v>
   <v>       0.53559360       0.70283922       0.65877068 </v>
   <v>       0.20612829       0.44989340       0.65755944 </v>
   <v>       0.20594513       0.95506817       0.65852618 </v>
   <v>       0.70727969       0.46379667       0.65664538 </v>
   <v>       0.70624664       0.95637440       0.65948951 </v>
   <v>       0.45448566       0.29315106       0.65695061 </v>
   <v>       0.45677113       0.80531159       0.65777725 </v>
   <v>       0.96724679       0.28762457       0.65954000 </v>
   <v>       0.94543837       0.76089636       0.66084226 </v>
   <v>       0.29692509       0.04586988       0.65358928 </v>
   <v>       0.29573763       0.54381850       0.65862569 </v>
   <v>       0.79897973       0.04645973       0.65770119 </v>
   <v>       0.80208621       0.55075475       0.65531924 </v>
   <v>       0.04586250       0.20411950       0.75272599 </v>
   <v>       0.04586250       0.70411946       0.75272599 </v>
   <v>       0.54586251       0.20411950       0.75272599 </v>
   <v>       0.54586250       0.70411946       0.75272599 </v>
   <v>       0.20411900       0.45410100       0.75270499 </v>
   <v>       0.20411899       0.95410095       0.75270499 </v>
   <v>       0.70411898       0.45410100       0.75270499 </v>
   <v>       0.70411896       0.95410095       0.75270499 </v>
   <v>       0.45414002       0.29588849       0.75272697 </v>
   <v>       0.45414001       0.79588852       0.75272697 </v>
   <v>       0.95414002       0.29588849       0.75272697 </v>
[...]
   <v>       0.55171648       0.15977160       0.55922196 </v>
   <v>       0.49580153       0.64231689       0.55870324 </v>
   <v>       0.36731109       0.02766181       0.55727968 </v>
   <v>       0.29379215       0.62841663       0.55250669 </v>
   <v>       0.87916216       0.02759707       0.55534753 </v>
   <v>       0.95578184       0.19098106       0.57680134 </v>
   <v>       0.98986878       0.69252202       0.58267978 </v>
   <v>       0.56636642       0.25172841       0.56737422 </v>
   <v>       0.43956290       0.69262856       0.57555933 </v>
   <v>       0.28022789       0.43904563       0.57207652 </v>
   <v>       0.20151103       0.92870767       0.57272069 </v>
   <v>       0.68497262       0.02908000       0.57051676 </v>
   <v>       0.37251805       0.29019603       0.55533324 </v>
   <v>       0.50332777       0.86779191       0.55386572 </v>
   <v>       0.02012852       0.36808623       0.55662751 </v>
   <v>       0.99385024       0.86729588       0.55388239 </v>
   <v>       0.18400962       0.44481785       0.56952407 </v>
   <v>       0.14452845       0.99229192       0.56001356 </v>
   <v>       0.68030704       0.93344063       0.56514764 </v>
   <v>       0.43038250       0.17893725       0.55025550 </v>
   <v>       0.54612224       0.75045393       0.54299264 </v>
   <v>       0.06370806       0.25148779       0.54478822 </v>
   <v>       0.08308079       0.77363402       0.55048846 </v>
   <v>       0.18467930       0.56316321       0.55700722 </v>
   <v>       0.24460234       0.06521730       0.54840064 </v>
   <v>       0.80123299       0.92400788       0.55556144 </v>
   <v>       0.48679655       0.33939359       0.65913299 </v>
   <v>       0.44745125       0.80897849       0.67389583 </v>
   <v>       0.96365812       0.28622469       0.67574185 </v>
   <v>       0.92999564       0.72431437       0.67260627 </v>
   <v>       0.30683952       0.05754481       0.66943871 </v>
   <v>       0.29809089       0.54971870       0.67492015 </v>
   <v>       0.80201989       0.05750122       0.67380683 </v>
   <v>       0.76881576       0.59692291       0.65584077 </v>
   <v>       0.08646961       0.16363595       0.64489742 </v>
   <v>       0.11788210       0.72244712       0.65197452 </v>
   <v>       0.56513419       0.15301054       0.65477140 </v>
   <v>       0.56670946       0.66755124       0.64981466 </v>
   <v>       0.17625374       0.41556182       0.64787873 </v>
   <v>       0.17111979       0.91928884       0.65115154 </v>
   <v>       0.69421928       0.40860308       0.65764197 </v>
   <v>       0.67388282       0.92091827       0.65100588 </v>
   <v>       0.06363860       0.18331600       0.67146114 </v>
   <v>       0.05989588       0.67671819       0.66969828 </v>
   <v>       0.59295433       0.24399643       0.65935863 </v>
   <v>       0.53717386       0.69608048       0.67494420 </v>
   <v>       0.19899853       0.44423581       0.67381055 </v>
   <v>       0.20550753       0.95521152       0.67495843 </v>
   <v>       0.66480455       0.50075084       0.65831588 </v>
   <v>       0.69801376       0.95808770       0.67573476 </v>
   <v>       0.39850127       0.30054554       0.65594675 </v>
   <v>       0.43029700       0.84267409       0.64828872 </v>
   <v>       0.93528423       0.32504787       0.65167716 </v>
   <v>       0.90580226       0.79577305       0.65520179 </v>
   <v>       0.32621645       0.07559035       0.64257835 </v>
   <v>       0.32794369       0.57801969       0.64978634 </v>
   <v>       0.83381394       0.07526813       0.64792897 </v>
   <v>       0.85785079       0.55992756       0.65317379 </v>
   <v>       0.00780858       0.25227123       0.63070281 </v>
   <v>       0.02367338       0.80262630       0.64017241 </v>
   <v>       0.44130983       0.18186516       0.65206499 </v>
   <v>       0.50332011       0.75647925       0.63134631 </v>
   <v>       0.24347937       0.99116645       0.62935977 </v>
   <v>       0.25576330       0.49560116       0.63118582 </v>
   <v>       0.75710565       0.99033901       0.63176064 </v>
   <v>       0.81769624       0.43821811       0.65413334 </v>
   <v>       0.44874502       0.30128397       0.76888902 </v>
   <v>       0.44874501       0.80128391       0.76888902 </v>
   <v>       0.94874497       0.30128397       0.76888902 </v>
   <v>       0.94874501       0.80128391       0.76888902 </v>
   <v>       0.30127600       0.05129450       0.76887296 </v>
   <v>       0.30127601       0.55129450       0.76887296 </v>
   <v>       0.80127594       0.05129450       0.76887296 </v>
   <v>       0.80127598       0.55129450       0.76887296 </v>
   <v>       0.07877100       0.17118050       0.74344197 </v>
   <v>       0.07877101       0.67118045       0.74344197 </v>
   <v>       0.57877100       0.17118050       0.74344197 </v>
   <v>       0.57877099       0.67118045       0.74344197 </v>
   <v>       0.17119950       0.42117448       0.74342103 </v>
   <v>       0.17119950       0.92117451       0.74342103 </v>
   <v>       0.67119951       0.42117448       0.74342103 </v>
   <v>       0.67119950       0.92117451       0.74342103 </v>
   <v>       0.05125600       0.19871499       0.76888902 </v>
   <v>       0.05125600       0.69871493       0.76888902 </v>
   <v>       0.55125603       0.19871499       0.76888902 </v>
   <v>       0.55125602       0.69871493       0.76888902 </v>
   <v>       0.19872349       0.44870397       0.76887205 </v>
   <v>       0.19872349       0.94870397       0.76887205 </v>
   <v>       0.69872352       0.44870397       0.76887205 </v>
   <v>       0.69872351       0.94870397       0.76887205 </v>
   <v>       0.42123152       0.32881747       0.74344197 </v>
   <v>       0.42123151       0.82881744       0.74344197 </v>
   <v>       0.92123147       0.32881747       0.74344197 </v>
   <v>       0.92123151       0.82881744       0.74344197 </v>
   <v>       0.32880050       0.07882500       0.74342103 </v>
   <v>       0.32880049       0.57882496       0.74342103 </v>
   <v>       0.82880048       0.07882500       0.74342103 </v>
   <v>       0.82880052       0.57882496       0.74342103 </v>
   <v>       0.00000350       0.25000148       0.72582199 </v>
   <v>       0.00000350       0.75000145       0.72582199 </v>
   <v>       0.50000351       0.25000148       0.72582199 </v>
   <v>       0.50000350       0.75000145       0.72582199 </v>
   <v>       0.25000050       0.00000000       0.72580398 </v>
   <v>       0.25000052       0.50000000       0.72580398 </v>
   <v>       0.75000050       0.00000000       0.72580398 </v>
   <v>       0.75000049       0.50000000       0.72580398 </v>
   <v>       0.77552072       0.55665769       0.51851551 </v>
   <v>       0.71911056       0.47901951       0.52429432 </v>
   <v>       0.86843396       0.50163488       0.53776985 </v>
   <v>       0.86057585       0.48382553       0.56535386 </v>
   <v>       0.74411623       0.64157947       0.55941316 </v>
   <v>       0.81385076       0.59816128       0.57506564 </v>
   <v>       0.66680048       0.54692053       0.56831234 </v>
   <v>       0.68177407       0.45496488       0.55973946 </v>
   <v>       0.61690207       0.56047090       0.53669676 </v>
   <v>       0.67419065       0.63979718       0.53413375 </v>
   <v>       0.60565528       0.64577631       0.50277402 </v>
   <v>       0.68697930       0.60197913       0.49370690 </v>
   <v>       0.78865610       0.38979330       0.52932944 </v>
   <v>       0.77678262       0.37245498       0.55724103 </v>
   <v>       0.86546866       0.36685644       0.54562079 </v>
   <v>       0.86228402       0.69645080       0.55189511 </v>
   <v>       0.83737877       0.64919643       0.52848669 </v>
   <v>       0.90607133       0.61064545       0.54606289 </v>
   <v>       0.77127985       0.52968382       0.59612192 </v>
   <v>       0.77480487       0.43531452       0.58852231 </v>
   <v>       0.69371148       0.47283838       0.59967970 </v>
   <v>       0.53920522       0.52762107       0.50479246 </v>
   <v>       0.57322658       0.54462024       0.47877072 </v>
   <v>       0.70403369       0.47985076       0.46990994 </v>
   <v>       0.55626319       0.41299907       0.52030738 </v>
   <v>       0.76636238       0.35776199       0.47154927 </v>
   <v>       0.62006033       0.29046463       0.52222377 </v>
   <v>       0.72575461       0.26318961       0.49825856 </v>
   <v>       0.01997481       0.25503991       0.55682896 </v>
   <v>       0.03477790       0.76549362       0.56074430 </v>
   <v>       0.46302714       0.22576984       0.55598938 </v>
   <v>       0.50159863       0.75463910       0.55469902 </v>
   <v>       0.23773741       0.53581664       0.55983512 </v>
   <v>       0.25473549       0.01460643       0.55759810 </v>
   <v>       0.77998391       0.97855470       0.56010360 </v>
   <v>       0.01048241       0.24454930       0.64799026 </v>
   <v>       0.01231706       0.76156589       0.65257639 </v>
   <v>       0.48096274       0.22588011       0.65527920 </v>
   <v>       0.49859623       0.75486101       0.64876813 </v>
   <v>       0.25237998       0.49623837       0.64861618 </v>
   <v>       0.24885174       0.99739116       0.64664160 </v>
   <v>       0.77746323       0.48287095       0.65527132 </v>
   <v>       0.75441213       0.99768129       0.64910755 </v>
   <v>       0.49998898       0.24999498       0.74327702 </v>
   <v>       0.49998903       0.74999496       0.74327702 </v>
   <v>       0.99998898       0.24999498       0.74327702 </v>
   <v>       0.99998903       0.74999496       0.74327702 </v>
   <v>       0.25000050       0.00000100       0.74325596 </v>
   <v>       0.25000052       0.50000100       0.74325596 </v>
   <v>       0.75000050       0.00000100       0.74325596 </v>
   <v>       0.75000049       0.50000100       0.74325596 </v>
   <v>       0.62650329       0.45539402       0.49531477 </v>
   <v>       0.68525883       0.43863085       0.48144157 </v>
   <v>       0.60240770       0.40069251       0.50966200 </v>
   <v>       0.72044921       0.36973788       0.48237495 </v>
   <v>       0.63769880       0.33226827       0.51071409 </v>
   <v>       0.69728635       0.31643899       0.49720446 </v>
   <v>       0.73140052       0.53595143       0.52911578 </v>
   <v>       0.83168894       0.47842865       0.55000729 </v>
   <v>       0.79303340       0.60557835       0.55870568 </v>
   <v>       0.70865770       0.50312473       0.56709383 </v>
   <v>       0.66275643       0.58478831       0.52747580 </v>
   <v>       0.63788008       0.59402437       0.50405577 </v>
   <v>       0.81322147       0.39812430       0.54522734 </v>
   <v>       0.85343983       0.64091717       0.54528802 </v>
   <v>       0.73972260       0.48450699       0.58887798 </v>
   <v>       0.58990468       0.53044173       0.49523699 </v>
   <v>       0.99391090       0.19268743       0.56468124 </v>
   <v>       0.03158924       0.70399485       0.57181493 </v>
   <v>       0.53323382       0.21309866       0.56009915 </v>
   <v>       0.47603162       0.69313521       0.56305067 </v>
   <v>       0.42879520       0.28953225       0.55771714 </v>
   <v>       0.47818520       0.82104314       0.55960814 </v>
   <v>       0.99667898       0.32070132       0.56269214 </v>
   <v>       0.98380550       0.81755532       0.56124257 </v>
   <v>       0.23469502       0.46678143       0.56630126 </v>
   <v>       0.19729224       0.97521467       0.56347006 </v>
   <v>       0.70923781       0.98162227       0.56503648 </v>
   <v>       0.32355140       0.99698802       0.56224545 </v>
   <v>       0.29858263       0.57348970       0.55616574 </v>
   <v>       0.82535616       0.03521080       0.55999720 </v>
   <v>       0.05565664       0.19398834       0.65554726 </v>
   <v>       0.06552298       0.71549493       0.65784447 </v>
   <v>       0.55071872       0.20732562       0.65671497 </v>
   <v>       0.53559360       0.70283922       0.65877068 </v>
   <v>       0.20612829       0.44989340       0.65755944 </v>
   <v>       0.20594513       0.95506817       0.65852618 </v>
   <v>       0.70727969       0.46379667       0.65664538 </v>
   <v>       0.70624664       0.95637440       0.65948951 </v>
   <v>       0.45448566       0.29315106       0.65695061 </v>
   <v>       0.45677113       0.80531159       0.65777725 </v>
   <v>       0.96724679       0.28762457       0.65954000 </v>
   <v>       0.94543837       0.76089636       0.66084226 </v>
   <v>       0.29692509       0.04586988       0.65358928 </v>
   <v>       0.29573763       0.54381850       0.65862569 </v>
   <v>       0.79897973       0.04645973       0.65770119 </v>
   <v>       0.80208621       0.55075475       0.65531924 </v>
   <v>       0.04586250       0.20411950       0.75272599 </v>
   <v>       0.04586250       0.70411946       0.75272599 </v>
   <v>       0.54586251       0.20411950       0.75272599 </v>
   <v>       0.54586250       0.70411946       0.75272599 </v>
   <v>       0.20411900       0.45410100       0.75270499 </v>
   <v>       0.20411899       0.95410095       0.75270499 </v>
   <v>       0.70411898       0.45410100       0.75270499 </v>
   <v>       0.70411896       0.95410095       0.75270499 </v>
   <v>       0.45414002       0.29588849       0.75272697 </v>
   <v>       0.45414001       0.79588852       0.75272697 </v>
   <v>       0.95414002       0.29588849       0.75272697 </v>
   <v>       0.95414006       0.79588852       0.75272697 </v>
   <v>       0.29588249       0.04590050       0.75270499 </v>
   <v>       0.29588248       0.54590053       0.75270499 </v>
   <v>       0.79588244       0.04590050       0.75270499 </v>
   <v>       0.79588248       0.54590053       0.75270499 </v>
   <v>       0.76589750       0.53035931       0.55121792 </v>
   <v>       0.51512823       0.01517788       0.55224528 </v>
   <v>       0.48298847       0.49472102       0.55430697 </v>
   <v>       0.01435185       0.00601776       0.54844533 </v>
   <v>       0.03716378       0.50874193       0.55331923 </v>
   <v>       0.23690015       0.24109986       0.55206617 </v>
   <v>       0.25524206       0.76582714       0.55351244 </v>
   <v>       0.73854764       0.20578241       0.55427871 </v>
   <v>       0.70073108       0.79139343       0.55420118 </v>
   <v>       0.00174191       0.98396481       0.65355974 </v>
   <v>       0.99729468       0.50648134       0.65467379 </v>
   <v>       0.49625753       0.01195882       0.65440109 </v>
   <v>       0.50657768       0.48857980       0.65480675 </v>
   <v>       0.25952794       0.24676838       0.65430824 </v>
   <v>       0.25849659       0.75443055       0.65465486 </v>
   <v>       0.74522629       0.26686272       0.65419701 </v>
   <v>       0.74563256       0.74461070       0.65414469 </v>
   <v>       0.13454540       0.11181315       0.60724951 </v>
   <v>       0.14774816       0.60726471       0.60816327 </v>
   <v>       0.64754555       0.10519709       0.60978645 </v>
   <v>       0.61632014       0.62800724       0.60855244 </v>
   <v>       0.35779161       0.38773038       0.60480963 </v>
   <v>       0.37513707       0.87987958       0.60630584 </v>
   <v>       0.88996832       0.36463609       0.60877936 </v>
   <v>       0.86754196       0.87823018       0.60456568 </v>
   <v>       0.12039510       0.36769619       0.60936651 </v>
   <v>       0.12396275       0.86769767       0.60762721 </v>
   <v>       0.59385974       0.33897263       0.60118055 </v>
   <v>       0.61660030       0.87110560       0.61298644 </v>
   <v>       0.38658272       0.13508130       0.60529435 </v>
   <v>       0.38486683       0.62858162       0.61030743 </v>
   <v>       0.88652217       0.13282377       0.61067958 </v>
   <v>       0.89481037       0.64641542       0.60967883 </v>
   <v>       0.00000000       0.00000000       0.75492797 </v>
   <v>       0.00000000       0.50000000       0.75492797 </v>
   <v>       0.50000000       0.00000000       0.75492797 </v>
   <v>       0.49999999       0.50000000       0.75492797 </v>
   <v>       0.25000050       0.25000000       0.75493902 </v>
   <v>       0.25000051       0.74999997       0.75493902 </v>
   <v>       0.75000047       0.25000000       0.75493902 </v>
   <v>       0.75000046       0.74999997       0.75493902 </v>
   <v>       0.13579050       0.11421000       0.70478299 </v>
   <v>       0.13579050       0.61420998       0.70478299 </v>
   <v>       0.63579045       0.11421000       0.70478299 </v>
   <v>       0.63579049       0.61420998       0.70478299 </v>
   <v>       0.36420952       0.38578999       0.70478299 </v>
   <v>       0.36420950       0.88578996       0.70478299 </v>
   <v>       0.86420954       0.38578999       0.70478299 </v>
   <v>       0.86420953       0.88578996       0.70478299 </v>
   <v>       0.11421799       0.36421899       0.70478098 </v>
   <v>       0.11421799       0.86421899       0.70478098 </v>
   <v>       0.61421800       0.36421899       0.70478098 </v>
   <v>       0.61421799       0.86421899       0.70478098 </v>
   <v>       0.38578201       0.13578149       0.70478202 </v>
   <v>       0.38578200       0.63578149       0.70478202 </v>
   <v>       0.88578199       0.13578149       0.70478202 </v>
   <v>       0.88578203       0.63578149       0.70478202 </v>
   <v>       0.13466700       0.11533200       0.80125603 </v>
   <v>       0.13466699       0.61533199       0.80125603 </v>
   <v>       0.63466699       0.11533200       0.80125603 </v>
   <v>       0.63466698       0.61533199       0.80125603 </v>
   <v>       0.36533300       0.38466799       0.80125603 </v>
   <v>       0.36533299       0.88466796       0.80125603 </v>
   <v>       0.86533295       0.38466799       0.80125603 </v>
   <v>       0.86533294       0.88466796       0.80125603 </v>
   <v>       0.11532850       0.36533700       0.80126500 </v>
   <v>       0.11532850       0.86533698       0.80126500 </v>
   <v>       0.61532850       0.36533700       0.80126500 </v>
   <v>       0.61532849       0.86533698       0.80126500 </v>
   <v>       0.38467151       0.13466300       0.80126500 </v>
   <v>       0.38467150       0.63466297       0.80126500 </v>
   <v>       0.88467149       0.13466300       0.80126500 </v>
   <v>       0.88467153       0.63466297       0.80126500 </v>
   <v>       0.99970707       0.99890034       0.60451428 </v>
   <v>       0.00523318       0.50461119       0.60425843 </v>
   <v>       0.50580149       0.00664207       0.60379459 </v>
   <v>       0.49963945       0.49169017       0.60435214 </v>
   <v>       0.24853443       0.24678180       0.60241627 </v>
   <v>       0.25304152       0.74610472       0.60365266 </v>
   <v>       0.74522545       0.24537043       0.60236041 </v>
   <v>       0.73780439       0.75512389       0.60265478 </v>
   <v>       0.00000050       0.00000050       0.70482896 </v>
   <v>       0.00000050       0.50000048       0.70482896 </v>
   <v>       0.50000048       0.00000050       0.70482896 </v>
   <v>       0.50000046       0.50000048       0.70482896 </v>
   <v>       0.24999999       0.24999947       0.70482499 </v>
   <v>       0.25000001       0.74999950       0.70482499 </v>
   <v>       0.74999999       0.24999947       0.70482499 </v>
   <v>       0.74999998       0.74999950       0.70482499 </v>
   <v>       0.00000000       0.00000000       0.80731797 </v>
   <v>       0.00000000       0.50000000       0.80731797 </v>
   <v>       0.50000000       0.00000000       0.80731797 </v>
   <v>       0.49999999       0.50000000       0.80731797 </v>
   <v>       0.24999999       0.25000000       0.80731797 </v>
   <v>       0.25000001       0.74999997       0.80731797 </v>
   <v>       0.74999999       0.25000000       0.80731797 </v>
   <v>       0.74999998       0.74999997       0.80731797 </v>
  </varray>
 </structure>
</modeling>
