 vasp.6.2.1 16May21 (build Nov 15 2021 14:57:28) complex                         
 executed on             LinuxPGI date 2023.07.30  14:26:29
 running on    4 total cores
 distrk:  each k-point on    4 cores,    1 groups
 distr:  one band on NCORE=   1 cores,    4 groups


--------------------------------------------------------------------------------------------------------


 INCAR:
   SYSTEM = PSC
   ISTART = 1
   ICHARG = 1
   PREC = Normal
   ENCUT = 500
   GGA_COMPAT = F
   NELM = 600
   ISYM = 0
   LREAL = Auto
   ISMEAR = 0
   SIGMA = 0.05
   AMIN = 0.01
   BMIX = 0.01
   LVTOT = T
   LWAVE = F
   LDIPOL = T
   IDIPOL = 3
   LVDW = T
   IVDW = 12

 POTCAR:    PAW_PBE H 15Jun2001                   
 POTCAR:    PAW_PBE C 08Apr2002                   
 POTCAR:    PAW_PBE N 08Apr2002                   
 POTCAR:    PAW_PBE I 08Apr2002                   
 POTCAR:    PAW_PBE Pb 08Apr2002                  
 WARNING: For LVTOT=.TRUE., VASP.5.x writes the TOTAL local potential to the
     file LOCPOT. If you want only the Hartree contributions, use LVHAR=.TRUE.
     instead. 

 POTCAR:    PAW_PBE H 15Jun2001                   
   SHA256 =  030f79b5d3ab3cf0e668861823c8fb652ff669f3e15e46930bd03bfd63a607b6 H/POTCAR              
   COPYR  = (c) Copyright 15Jun2001 Georg Kresse                                                    
   COPYR  = This file is part of the software VASP. Any use, copying, and all other rights are regul
   COPYR  = If you do not have a valid VASP license, you may not use, copy or distribute this file. 
   VRHFIN =H: ultrasoft test                                                                        
   LEXCH  = PE                                                                                      
   EATOM  =    12.4884 eV,    0.9179 Ry                                                             
                                                                                                    
   TITEL  = PAW_PBE H 15Jun2001                                                                     
   LULTRA =        F    use ultrasoft PP ?                                                          
   IUNSCR =        0    unscreen: 0-lin 1-nonlin 2-no                                               
   RPACOR =    0.000    partial core radius                                                         
   POMASS =    1.000; ZVAL   =    1.000    mass and valenz                                          
   RCORE  =    1.100    outmost cutoff radius                                                       
   RWIGS  =    0.700; RWIGS  =    0.370    wigner-seitz radius (au A)                               
   ENMAX  =  250.000; ENMIN  =  200.000 eV                                                          
   RCLOC  =    0.701    cutoff for local pot                                                        
   LCOR   =        T    correct aug charges                                                         
   LPAW   =        T    paw PP                                                                      
   EAUG   =  400.000                                                                                
   RMAX   =    1.123    core radius for proj-oper                                                   
   RAUG   =    1.200    factor for augmentation sphere                                              
   RDEP   =    1.112    radius for radial grids                                                     
   RDEPT  =    0.926    core radius for aug-charge                                                  
                                                                                                    
   Atomic configuration                                                                             
    2 entries                                                                                       
     n  l   j            E        occ.                                                              
     1  0  0.50        -6.4927   1.0000                                                             
     2  1  0.50        -3.4015   0.0000                                                             
   Description                                                                                      
     l       E           TYP  RCUT    TYP  RCUT                                                     
     0     -6.4927494     23  1.100                                                                 
     0      6.8029130     23  1.100                                                                 
     1     -4.0817478     23  1.100                                                                 
  local pseudopotential read in
  atomic valenz-charges read in
  non local Contribution for L=            0  read in
    real space projection operators read in
  non local Contribution for L=            0  read in
    real space projection operators read in
  non local Contribution for L=            1  read in
    real space projection operators read in
    PAW grid and wavefunctions read in
 
   number of l-projection  operators is LMAX  =            3
   number of lm-projection operators is LMMAX =            5
 
 POTCAR:    PAW_PBE C 08Apr2002                   
   SHA256 =  253f7b50bb8d59471dbedb8285d89021f4a42ed1a2c5d38a03a736e69125dd95 C/POTCAR              
   COPYR  = (c) Copyright 08Apr2002 Georg Kresse                                                    
   COPYR  = This file is part of the software VASP. Any use, copying, and all other rights are regul
   COPYR  = If you do not have a valid VASP license, you may not use, copy or distribute this file. 
   VRHFIN =C: s2p2                                                                                  
   LEXCH  = PE                                                                                      
   EATOM  =   147.1560 eV,   10.8157 Ry                                                             
                                                                                                    
   TITEL  = PAW_PBE C 08Apr2002                                                                     
   LULTRA =        F    use ultrasoft PP ?                                                          
   IUNSCR =        1    unscreen: 0-lin 1-nonlin 2-no                                               
   RPACOR =    1.200    partial core radius                                                         
   POMASS =   12.011; ZVAL   =    4.000    mass and valenz                                          
   RCORE  =    1.500    outmost cutoff radius                                                       
   RWIGS  =    1.630; RWIGS  =    0.863    wigner-seitz radius (au A)                               
   ENMAX  =  400.000; ENMIN  =  300.000 eV                                                          
   ICORE  =        2    local potential                                                             
   LCOR   =        T    correct aug charges                                                         
   LPAW   =        T    paw PP                                                                      
   EAUG   =  644.873                                                                                
   DEXC   =    0.000                                                                                
   RMAX   =    1.529    core radius for proj-oper                                                   
   RAUG   =    1.300    factor for augmentation sphere                                              
   RDEP   =    1.501    radius for radial grids                                                     
   RDEPT  =    1.300    core radius for aug-charge                                                  
                                                                                                    
   Atomic configuration                                                                             
    4 entries                                                                                       
     n  l   j            E        occ.                                                              
     1  0  0.50      -273.3789   2.0000                                                             
     2  0  0.50       -13.7508   2.0000                                                             
     2  1  0.50        -5.2854   2.0000                                                             
     3  2  1.50        -5.4423   0.0000                                                             
   Description                                                                                      
     l       E           TYP  RCUT    TYP  RCUT                                                     
     0    -13.7508458     23  1.200                                                                 
     0     -8.2022199     23  1.200                                                                 
     1     -5.2854383     23  1.500                                                                 
     1     34.0145650     23  1.500                                                                 
     2     -5.4423304      7  1.500                                                                 
  local pseudopotential read in
  partial core-charges read in
  partial kinetic energy density read in
  atomic valenz-charges read in
  non local Contribution for L=            0  read in
    real space projection operators read in
  non local Contribution for L=            0  read in
    real space projection operators read in
  non local Contribution for L=            1  read in
    real space projection operators read in
  non local Contribution for L=            1  read in
    real space projection operators read in
    PAW grid and wavefunctions read in
 
   number of l-projection  operators is LMAX  =            4
   number of lm-projection operators is LMMAX =            8
 
 POTCAR:    PAW_PBE N 08Apr2002                   
   SHA256 =  e053789ff3a61a86a1b75d8a110fcc91f86041011e7b0817c7c99e4e8a6349d7 N/POTCAR              
   COPYR  = (c) Copyright 08Apr2002 Georg Kresse                                                    
   COPYR  = This file is part of the software VASP. Any use, copying, and all other rights are regul
   COPYR  = If you do not have a valid VASP license, you may not use, copy or distribute this file. 
   VRHFIN =N: s2p3                                                                                  
   LEXCH  = PE                                                                                      
   EATOM  =   264.5486 eV,   19.4438 Ry                                                             
                                                                                                    
   TITEL  = PAW_PBE N 08Apr2002                                                                     
   LULTRA =        F    use ultrasoft PP ?                                                          
   IUNSCR =        1    unscreen: 0-lin 1-nonlin 2-no                                               
   RPACOR =    1.200    partial core radius                                                         
   POMASS =   14.001; ZVAL   =    5.000    mass and valenz                                          
   RCORE  =    1.500    outmost cutoff radius                                                       
   RWIGS  =    1.400; RWIGS  =    0.741    wigner-seitz radius (au A)                               
   ENMAX  =  400.000; ENMIN  =  300.000 eV                                                          
   ICORE  =        2    local potential                                                             
   LCOR   =        T    correct aug charges                                                         
   LPAW   =        T    paw PP                                                                      
   EAUG   =  627.112                                                                                
   DEXC   =    0.000                                                                                
   RMAX   =    1.529    core radius for proj-oper                                                   
   RAUG   =    1.300    factor for augmentation sphere                                              
   RDEP   =    1.514    radius for radial grids                                                     
   RDEPT  =    1.338    core radius for aug-charge                                                  
                                                                                                    
   Atomic configuration                                                                             
    4 entries                                                                                       
     n  l   j            E        occ.                                                              
     1  0  0.50      -384.7179   2.0000                                                             
     2  0  0.50       -18.5828   2.0000                                                             
     2  1  0.50        -7.0898   3.0000                                                             
     3  2  1.50        -6.8029   0.0000                                                             
   Description                                                                                      
     l       E           TYP  RCUT    TYP  RCUT                                                     
     0    -18.5828119     23  1.200                                                                 
     0    -13.5018863     23  1.200                                                                 
     1     -7.0897853     23  1.500                                                                 
     1      9.5240782     23  1.500                                                                 
     2     -6.8029130      7  1.500                                                                 
  local pseudopotential read in
  partial core-charges read in
  partial kinetic energy density read in
  atomic valenz-charges read in
  non local Contribution for L=            0  read in
    real space projection operators read in
  non local Contribution for L=            0  read in
    real space projection operators read in
  non local Contribution for L=            1  read in
    real space projection operators read in
  non local Contribution for L=            1  read in
    real space projection operators read in
    PAW grid and wavefunctions read in
 
   number of l-projection  operators is LMAX  =            4
   number of lm-projection operators is LMMAX =            8
 
 POTCAR:    PAW_PBE I 08Apr2002                   
   SHA256 =  e40f3f59b681c1fc3e3091736183c4589116986673d2b852a5012aec72758799 I/POTCAR              
   COPYR  = (c) Copyright 08Apr2002 Georg Kresse                                                    
   COPYR  = This file is part of the software VASP. Any use, copying, and all other rights are regul
   COPYR  = If you do not have a valid VASP license, you may not use, copy or distribute this file. 
   VRHFIN =I : s2p5                                                                                 
   LEXCH  = PE                                                                                      
   EATOM  =   315.8678 eV,   23.2156 Ry                                                             
                                                                                                    
   TITEL  = PAW_PBE I 08Apr2002                                                                     
   LULTRA =        F    use ultrasoft PP ?                                                          
   IUNSCR =        1    unscreen: 0-lin 1-nonlin 2-no                                               
   RPACOR =    2.200    partial core radius                                                         
   POMASS =  126.904; ZVAL   =    7.000    mass and valenz                                          
   RCORE  =    2.300    outmost cutoff radius                                                       
   RWIGS  =    2.810; RWIGS  =    1.487    wigner-seitz radius (au A)                               
   ENMAX  =  175.647; ENMIN  =  131.735 eV                                                          
   ICORE  =        3    local potential                                                             
   LCOR   =        T    correct aug charges                                                         
   LPAW   =        T    paw PP                                                                      
   EAUG   =  370.139                                                                                
   DEXC   =    0.000                                                                                
   RMAX   =    2.359    core radius for proj-oper                                                   
   RAUG   =    1.300    factor for augmentation sphere                                              
   RDEP   =    2.392    radius for radial grids                                                     
   RDEPT  =    2.170    core radius for aug-charge                                                  
                                                                                                    
   Atomic configuration                                                                             
   13 entries                                                                                       
     n  l   j            E        occ.                                                              
     1  0  0.50    -32976.3739   2.0000                                                             
     2  0  0.50     -5094.5933   2.0000                                                             
     2  1  1.50     -4572.0131   6.0000                                                             
     3  0  0.50     -1028.2813   2.0000                                                             
     3  1  1.50      -859.0250   6.0000                                                             
     3  2  2.50      -605.7620  10.0000                                                             
     4  0  0.50      -180.5540   2.0000                                                             
     4  1  1.50      -127.5306   6.0000                                                             
     4  2  2.50       -50.2720  10.0000                                                             
     5  0  0.50       -17.4058   2.0000                                                             
     5  1  0.50        -7.0851   5.0000                                                             
     5  2  1.50        -7.0750   0.0000                                                             
     4  3  2.50        -7.0750   0.0000                                                             
   Description                                                                                      
     l       E           TYP  RCUT    TYP  RCUT                                                     
     0    -17.4058016     23  2.300                                                                 
     0    -18.7663842     23  2.300                                                                 
     1     -7.0850686     23  2.300                                                                 
     1     -4.2150896     23  2.300                                                                 
     2     -7.0750295     23  2.300                                                                 
     3     -1.3605826     23  2.300                                                                 
  local pseudopotential read in
  partial core-charges read in
  partial kinetic energy density read in
  atomic valenz-charges read in
  non local Contribution for L=            0  read in
    real space projection operators read in
  non local Contribution for L=            0  read in
    real space projection operators read in
  non local Contribution for L=            1  read in
    real space projection operators read in
  non local Contribution for L=            1  read in
    real space projection operators read in
  non local Contribution for L=            2  read in
    real space projection operators read in
    PAW grid and wavefunctions read in
 
   number of l-projection  operators is LMAX  =            5
   number of lm-projection operators is LMMAX =           13
 
 POTCAR:    PAW_PBE Pb 08Apr2002                  
   SHA256 =  797118a27cf1bcd06b9881c67a26cdde129e3cd1a551dd4a281f9681ce847303 Pb/POTCAR             
   COPYR  = (c) Copyright 08Apr2002 Georg Kresse                                                    
   COPYR  = This file is part of the software VASP. Any use, copying, and all other rights are regul
   COPYR  = If you do not have a valid VASP license, you may not use, copy or distribute this file. 
   VRHFIN =Pb:                                                                                      
   LEXCH  = PE                                                                                      
   EATOM  =    96.9868 eV,    7.1283 Ry                                                             
                                                                                                    
   TITEL  = PAW_PBE Pb 08Apr2002                                                                    
   LULTRA =        F    use ultrasoft PP ?                                                          
   IUNSCR =        1    unscreen: 0-lin 1-nonlin 2-no                                               
   RPACOR =    2.200    partial core radius                                                         
   POMASS =  207.200; ZVAL   =    4.000    mass and valenz                                          
   RCORE  =    3.100    outmost cutoff radius                                                       
   RWIGS  =    3.260; RWIGS  =    1.725    wigner-seitz radius (au A)                               
   ENMAX  =   97.973; ENMIN  =   73.480 eV                                                          
   ICORE  =        3    local potential                                                             
   LCOR   =        T    correct aug charges                                                         
   LPAW   =        T    paw PP                                                                      
   EAUG   =  234.873                                                                                
   DEXC   =    0.000                                                                                
   RMAX   =    3.158    core radius for proj-oper                                                   
   RAUG   =    1.300    factor for augmentation sphere                                              
   RDEP   =    3.202    radius for radial grids                                                     
   RDEPT  =    2.659    core radius for aug-charge                                                  
                                                                                                    
   Atomic configuration                                                                             
   17 entries                                                                                       
     n  l   j            E        occ.                                                              
     1  0  0.50    -88091.8466   2.0000                                                             
     2  0  0.50    -15753.4197   2.0000                                                             
     2  1  1.50    -13508.1797   6.0000                                                             
     3  0  0.50     -3781.7194   2.0000                                                             
     3  1  1.50     -3138.2529   6.0000                                                             
     3  2  2.50     -2483.2977  10.0000                                                             
     4  0  0.50      -856.2895   2.0000                                                             
     4  1  1.50      -645.4943   6.0000                                                             
     4  2  2.50      -401.8768  10.0000                                                             
     4  3  3.50      -132.9059  14.0000                                                             
     5  0  0.50      -144.0950   2.0000                                                             
     5  1  1.50       -85.7879   6.0000                                                             
     5  2  2.50       -21.1769  10.0000                                                             
     6  0  0.50       -12.0372   2.0000                                                             
     6  1  1.50        -3.4971   2.0000                                                             
     6  2  2.50        -1.3606   0.0000                                                             
     5  3  2.50        -2.7212   0.0000                                                             
   Description                                                                                      
     l       E           TYP  RCUT    TYP  RCUT                                                     
     0    -12.0371566     23  3.100                                                                 
     0    -13.3977392     23  3.100                                                                 
     1     -3.4971341     23  3.100                                                                 
     1     -5.4423304     23  3.100                                                                 
     2     -1.3605826     23  3.100                                                                 
     3     -1.3605826     23  3.100                                                                 
  local pseudopotential read in
  partial core-charges read in
  partial kinetic energy density read in
  atomic valenz-charges read in
  non local Contribution for L=            0  read in
    real space projection operators read in
  non local Contribution for L=            0  read in
    real space projection operators read in
  non local Contribution for L=            1  read in
    real space projection operators read in
  non local Contribution for L=            1  read in
    real space projection operators read in
  non local Contribution for L=            2  read in
    real space projection operators read in
    PAW grid and wavefunctions read in
 
   number of l-projection  operators is LMAX  =            5
   number of lm-projection operators is LMMAX =           13
 
 Optimization of the real space projectors (new method)

 maximal supplied QI-value         = 34.20
 optimisation between [QCUT,QGAM] = [ 11.29, 22.57] = [ 35.68,142.71] Ry 
 Optimized for a Real-space Cutoff    1.16 Angstroem

   l    n(q)    QCUT    max X(q) W(low)/X(q) W(high)/X(q)  e(spline) 
   0      8    11.287    19.460    0.40E-03    0.73E-03    0.16E-06
   0      8    11.287    12.209    0.38E-03    0.70E-03    0.15E-06
   1      7    11.287     4.655    0.22E-03    0.25E-04    0.22E-06
 Optimization of the real space projectors (new method)

 maximal supplied QI-value         = 25.13
 optimisation between [QCUT,QGAM] = [ 11.31, 22.87] = [ 35.82,146.48] Ry 
 Optimized for a Real-space Cutoff    1.00 Angstroem

   l    n(q)    QCUT    max X(q) W(low)/X(q) W(high)/X(q)  e(spline) 
   0      7    11.310   115.676    0.43E-03    0.13E-02    0.19E-06
   0      7    11.310    87.132    0.43E-03    0.13E-02    0.18E-06
   1      6    11.310     4.429    0.42E-03    0.74E-03    0.11E-06
   1      6    11.310     2.733    0.34E-03    0.55E-03    0.92E-07
 Optimization of the real space projectors (new method)

 maximal supplied QI-value         = 25.13
 optimisation between [QCUT,QGAM] = [ 11.31, 22.87] = [ 35.82,146.48] Ry 
 Optimized for a Real-space Cutoff    1.27 Angstroem

   l    n(q)    QCUT    max X(q) W(low)/X(q) W(high)/X(q)  e(spline) 
   0      9    11.310    79.467    0.75E-04    0.16E-03    0.36E-06
   0      9    11.310    66.151    0.74E-04    0.16E-03    0.36E-06
   1      8    11.310    17.416    0.35E-03    0.12E-03    0.95E-06
   1      8    11.310    12.382    0.37E-03    0.13E-03    0.98E-06
 Optimization of the real space projectors (new method)

 maximal supplied QI-value         = 16.25
 optimisation between [QCUT,QGAM] = [ 11.38, 22.75] = [ 36.24,144.96] Ry 
 Optimized for a Real-space Cutoff    1.31 Angstroem

   l    n(q)    QCUT    max X(q) W(low)/X(q) W(high)/X(q)  e(spline) 
   0      9    11.376   194.483    0.24E-03    0.23E-03    0.67E-07
   0      9    11.376   190.334    0.23E-03    0.22E-03    0.65E-07
   1      8    11.376   116.687    0.25E-03    0.63E-04    0.16E-06
   1      8    11.376    88.696    0.25E-03    0.61E-04    0.16E-06
   2      8    11.376     4.877    0.17E-03    0.14E-03    0.29E-07
 Optimization of the real space projectors (new method)

 maximal supplied QI-value         = 12.09
 optimisation between [QCUT,QGAM] = [ 11.37, 22.86] = [ 36.19,146.31] Ry 
 Optimized for a Real-space Cutoff    1.66 Angstroem

   l    n(q)    QCUT    max X(q) W(low)/X(q) W(high)/X(q)  e(spline) 
   0     11    11.369   135.111    0.12E-03    0.69E-04    0.19E-05
   0     11    11.369   146.850    0.11E-03    0.65E-04    0.18E-05
   1     11    11.369   148.016    0.17E-03    0.32E-03    0.89E-06
   1     11    11.369   122.989    0.17E-03    0.32E-03    0.91E-06
   2     10    11.369     8.916    0.12E-03    0.45E-04    0.33E-06
  PAW_PBE H 15Jun2001                   :
 energy of atom  1       EATOM=  -12.4884
 kinetic energy error for atom=    0.0020 (will be added to EATOM!!)
  PAW_PBE C 08Apr2002                   :
 energy of atom  2       EATOM= -147.1560
 kinetic energy error for atom=    0.0076 (will be added to EATOM!!)
  PAW_PBE N 08Apr2002                   :
 energy of atom  3       EATOM= -264.5486
 kinetic energy error for atom=    0.0138 (will be added to EATOM!!)
  PAW_PBE I 08Apr2002                   :
 energy of atom  4       EATOM= -315.8678
 kinetic energy error for atom=    0.0009 (will be added to EATOM!!)
  PAW_PBE Pb 08Apr2002                  :
 energy of atom  5       EATOM=  -96.9868
 kinetic energy error for atom=    0.0000 (will be added to EATOM!!)
 
 
 POSCAR:  H  C  N  I Pb
  positions in cartesian coordinates
  No initial velocities read in
 exchange correlation table for  LEXCH =        8
   RHO(1)=    0.500       N(1)  =     2000
   RHO(2)=  100.500       N(2)  =     4000
 


--------------------------------------------------------------------------------------------------------


 ion  position               nearest neighbor table
   1  0.408  0.284  0.561- 187 1.03
   2  0.416  0.695  0.571- 188 1.03
   3  0.925  0.293  0.579- 189 1.03
   4  0.927  0.815  0.573- 190 1.03
   5  0.323  0.091  0.563- 194 1.02
   6  0.325  0.572  0.568- 195 1.02
   7  0.798  0.103  0.565- 196 1.02
   8  0.110  0.241  0.562- 183 1.03
   9  0.079  0.683  0.569- 184 1.02
  10  0.584  0.186  0.565- 185 1.02
  11  0.599  0.764  0.559- 186 1.03
  12  0.378  0.017  0.554- 194 1.03
  13  0.255  0.622  0.555- 195 1.04
  14  0.874  0.049  0.556- 196 1.03
  15  0.063  0.289  0.582- 183 1.02
  16  0.993  0.694  0.581- 184 1.03
  17  0.489  0.173  0.570- 185 1.03
  18  0.552  0.695  0.574- 186 1.03
  19  0.308  0.437  0.572- 191 1.02
  20  0.191  0.068  0.569- 192 1.02
  21  0.683  0.033  0.573- 193 1.02
  22  0.457  0.365  0.554- 187 1.03
  23  0.374  0.760  0.554- 188 1.02
  24  0.884  0.244  0.558- 189 1.02
  25  0.973  0.873  0.555- 190 1.03
  26  0.232  0.398  0.559- 191 1.02
  27  0.156  0.983  0.561- 192 1.02
  28  0.683  0.939  0.566- 193 1.02
  29  0.571  0.306  0.555- 146 1.09
  30  0.490  0.813  0.545- 147 1.09
  31  1.000  0.204  0.545- 144 1.10
  32  0.071  0.792  0.550- 145 1.09
  33  0.188  0.513  0.547- 148 1.10
  34  0.274  0.939  0.551- 149 1.10
  35  0.804  0.941  0.554- 150 1.10
  36  0.455  0.297  0.673- 205 1.02
  37  0.442  0.815  0.671- 206 1.02
  38  0.957  0.284  0.677- 207 1.02
  39  0.913  0.739  0.664- 208 1.01
  40  0.297  0.041  0.675- 209 1.02
  41  0.301  0.561  0.673- 210 1.03
  42  0.797  0.051  0.676- 211 1.03
  43  0.833  0.472  0.666- 212 1.02
  44  0.091  0.171  0.647- 197 1.02
  45  0.108  0.700  0.655- 198 1.02
  46  0.577  0.164  0.646- 199 1.02
  47  0.573  0.674  0.652- 200 1.02
  48  0.185  0.412  0.651- 201 1.02
  49  0.164  0.929  0.644- 202 1.03
  50  0.635  0.484  0.654- 203 1.03
  51  0.673  0.918  0.649- 204 1.02
  52  0.063  0.188  0.673- 197 1.03
  53  0.025  0.655  0.661- 198 1.02
  54  0.548  0.188  0.672- 199 1.02
  55  0.543  0.714  0.676- 200 1.02
  56  0.213  0.447  0.676- 201 1.02
  57  0.184  0.952  0.671- 202 1.02
  58  0.698  0.435  0.670- 203 1.02
  59  0.697  0.947  0.675- 204 1.02
  60  0.436  0.337  0.648- 205 1.02
  61  0.417  0.830  0.644- 206 1.02
  62  0.926  0.319  0.652- 207 1.01
  63  0.928  0.832  0.658- 208 1.02
  64  0.342  0.062  0.651- 209 1.03
  65  0.320  0.588  0.647- 210 1.02
  66  0.826  0.080  0.650- 211 1.02
  67  0.850  0.545  0.648- 212 1.02
  68  0.007  0.252  0.632- 151 1.09
  69  0.053  0.815  0.651- 152 1.09
  70  0.511  0.256  0.629- 153 1.09
  71  0.497  0.742  0.630- 154 1.09
  72  0.262  0.995  0.630- 156 1.09
  73  0.250  0.496  0.631- 155 1.09
  74  0.751  0.998  0.632- 158 1.09
  75  0.726  0.557  0.638- 157 1.10
  76  0.449  0.301  0.769- 221 1.02
  77  0.449  0.801  0.769- 222 1.02
  78  0.949  0.301  0.769- 223 1.02
  79  0.949  0.801  0.769- 224 1.02
  80  0.301  0.051  0.769- 225 1.02
  81  0.301  0.551  0.769- 226 1.02
  82  0.801  0.051  0.769- 227 1.02
  83  0.801  0.551  0.769- 228 1.02
  84  0.079  0.171  0.743- 213 1.02
  85  0.079  0.671  0.743- 214 1.02
  86  0.579  0.171  0.743- 215 1.02
  87  0.579  0.671  0.743- 216 1.02
  88  0.171  0.421  0.743- 217 1.02
  89  0.171  0.921  0.743- 218 1.02
  90  0.671  0.421  0.743- 219 1.02
  91  0.671  0.921  0.743- 220 1.02
  92  0.051  0.199  0.769- 213 1.02
  93  0.051  0.699  0.769- 214 1.02
  94  0.551  0.199  0.769- 215 1.02
  95  0.551  0.699  0.769- 216 1.02
  96  0.199  0.449  0.769- 217 1.02
  97  0.199  0.949  0.769- 218 1.02
  98  0.699  0.449  0.769- 219 1.02
  99  0.699  0.949  0.769- 220 1.02
 100  0.421  0.329  0.743- 221 1.02
 101  0.421  0.829  0.743- 222 1.02
 102  0.921  0.329  0.743- 223 1.02
 103  0.921  0.829  0.743- 224 1.02
 104  0.329  0.079  0.743- 225 1.02
 105  0.329  0.579  0.743- 226 1.02
 106  0.829  0.079  0.743- 227 1.02
 107  0.829  0.579  0.743- 228 1.02
 108  0.000  0.250  0.726- 161 1.09
 109  0.000  0.750  0.726- 162 1.09
 110  0.500  0.250  0.726- 159 1.09
 111  0.500  0.750  0.726- 160 1.09
 112  0.250  0.000  0.726- 163 1.09
 113  0.250  0.500  0.726- 164 1.09
 114  0.750  0.000  0.726- 165 1.09
 115  0.750  0.500  0.726- 166 1.09
 116  0.799  0.508  0.514- 173 1.11
 117  0.878  0.500  0.531- 173 1.10
 118  0.758  0.618  0.532- 174 1.10
 119  0.756  0.620  0.560- 174 1.10
 120  0.687  0.442  0.549- 175 1.09
 121  0.668  0.534  0.557- 175 1.10
 122  0.796  0.422  0.566- 176 1.09
 123  0.864  0.492  0.568- 176 1.10
 124  0.858  0.373  0.539- 177 1.10
 125  0.763  0.376  0.532- 177 1.10
 126  0.786  0.383  0.494- 178 1.10
 127  0.879  0.410  0.497- 178 1.11
 128  0.896  0.616  0.532- 179 1.10
 129  0.897  0.605  0.560- 179 1.10
 130  0.862  0.688  0.549- 179 1.10
 131  0.601  0.506  0.525- 180 1.10
 132  0.681  0.480  0.510- 180 1.10
 133  0.667  0.574  0.519- 180 1.09
 134  0.704  0.499  0.587- 181 1.10
 135  0.775  0.568  0.591- 181 1.09
 136  0.786  0.479  0.601- 181 1.10
 137  0.822  0.258  0.512- 182 1.10
 138  0.848  0.275  0.485- 182 1.10
 139  0.925  0.159  0.499- 168 1.09
 140  0.974  0.385  0.517- 169 1.09
 141  0.056  0.126  0.504- 170 1.09
 142  0.104  0.351  0.522- 171 1.09
 143  0.148  0.222  0.515- 172 1.09
 144  0.997  0.239  0.559-  31 1.10 189 1.31 183 1.31
 145  0.025  0.776  0.560-  32 1.09 184 1.31 190 1.32
 146  0.521  0.275  0.559-  29 1.09 187 1.31 185 1.31
 147  0.487  0.764  0.555-  30 1.09 188 1.31 186 1.32
 148  0.241  0.510  0.556-  33 1.10 195 1.31 191 1.32
 149  0.267  0.996  0.557-  34 1.10 194 1.31 192 1.32
 150  0.779  0.993  0.560-  35 1.10 196 1.32 193 1.32
 151  0.008  0.245  0.649-  68 1.09 197 1.31 207 1.32
 152  0.019  0.768  0.655-  69 1.09 208 1.31 198 1.32
 153  0.507  0.251  0.647-  70 1.09 205 1.31 199 1.32
 154  0.495  0.751  0.648-  71 1.09 206 1.31 200 1.32
 155  0.253  0.500  0.649-  73 1.09 210 1.31 201 1.32
 156  0.253  0.996  0.647-  72 1.09 209 1.31 202 1.31
 157  0.742  0.515  0.650-  75 1.10 203 1.30 212 1.32
 158  0.750  0.999  0.650-  74 1.09 211 1.31 204 1.32
 159  0.500  0.250  0.743- 110 1.09 221 1.31 215 1.31
 160  0.500  0.750  0.743- 111 1.09 222 1.31 216 1.31
 161  1.000  0.250  0.743- 108 1.09 223 1.31 213 1.31
 162  1.000  0.750  0.743- 109 1.09 224 1.31 214 1.31
 163  0.250  0.000  0.743- 112 1.09 225 1.31 218 1.31
 164  0.250  0.500  0.743- 113 1.09 226 1.31 217 1.31
 165  0.750  0.000  0.743- 114 1.09 227 1.31 220 1.31
 166  0.750  0.500  0.743- 115 1.09 228 1.31 219 1.31
 167  0.939  0.275  0.507- 169 1.40 168 1.41 182 1.52
 168  0.964  0.202  0.503- 139 1.09 170 1.39 167 1.41
 169  0.991  0.328  0.513- 140 1.09 167 1.40 171 1.40
 170  0.038  0.183  0.506- 141 1.09 168 1.39 172 1.40
 171  0.065  0.309  0.516- 142 1.09 172 1.39 169 1.40
 172  0.090  0.237  0.512- 143 1.09 171 1.39 170 1.40
 173  0.821  0.482  0.529- 117 1.10 116 1.11 229 1.51 177 1.52
 174  0.787  0.599  0.547- 118 1.10 119 1.10 179 1.51 229 1.52
 175  0.695  0.500  0.545- 120 1.09 121 1.10 180 1.51 229 1.52
 176  0.804  0.482  0.568- 122 1.09 123 1.10 181 1.51 229 1.52
 177  0.818  0.398  0.527- 125 1.10 124 1.10 173 1.52 178 1.54
 178  0.836  0.374  0.504- 126 1.10 127 1.11 182 1.53 177 1.54
 179  0.866  0.628  0.547- 129 1.10 128 1.10 130 1.10 174 1.51
 180  0.661  0.516  0.523- 133 1.09 132 1.10 131 1.10 175 1.51
 181  0.764  0.510  0.587- 135 1.09 136 1.10 134 1.10 176 1.51
 182  0.858  0.293  0.502- 138 1.10 137 1.10 167 1.52 178 1.53
 183  0.060  0.257  0.568-  15 1.02   8 1.03 144 1.31
 184  0.030  0.712  0.570-   9 1.02  16 1.03 145 1.31
 185  0.531  0.205  0.564-  10 1.02  17 1.03 146 1.31
 186  0.550  0.737  0.563-  18 1.03  11 1.03 147 1.32
 187  0.457  0.309  0.557-  22 1.03   1 1.03 146 1.31
 188  0.422  0.736  0.560-  23 1.02   2 1.03 147 1.31
 189  0.932  0.260  0.566-  24 1.02   3 1.03 144 1.31
 190  0.968  0.821  0.561-   4 1.03  25 1.03 145 1.32
 191  0.263  0.444  0.562-  26 1.02  19 1.02 148 1.32
 192  0.200  0.017  0.562-  20 1.02  27 1.02 149 1.32
 193  0.709  0.989  0.566-  21 1.02  28 1.02 150 1.32
 194  0.326  0.038  0.557-   5 1.02  12 1.03 149 1.31
 195  0.277  0.571  0.559-   6 1.02  13 1.04 148 1.31
 196  0.820  0.053  0.561-   7 1.02  14 1.03 150 1.32
 197  0.057  0.198  0.657-  44 1.02  52 1.03 151 1.31
 198  0.052  0.703  0.657-  45 1.02  53 1.02 152 1.32
 199  0.546  0.198  0.656-  46 1.02  54 1.02 153 1.32
 200  0.539  0.710  0.659-  47 1.02  55 1.02 154 1.32
 201  0.215  0.450  0.660-  56 1.02  48 1.02 155 1.32
 202  0.197  0.958  0.655-  57 1.02  49 1.03 156 1.31
 203  0.689  0.475  0.658-  58 1.02  50 1.03 157 1.30
 204  0.704  0.952  0.659-  59 1.02  51 1.02 158 1.32
 205  0.464  0.298  0.657-  60 1.02  36 1.02 153 1.31
 206  0.448  0.801  0.655-  61 1.02  37 1.02 154 1.31
 207  0.961  0.285  0.660-  62 1.01  38 1.02 151 1.32
 208  0.949  0.779  0.659-  39 1.01  63 1.02 152 1.31
 209  0.299  0.036  0.659-  40 1.02  64 1.03 156 1.31
 210  0.294  0.552  0.657-  65 1.02  41 1.03 155 1.31
 211  0.793  0.046  0.659-  66 1.02  42 1.03 158 1.31
 212  0.813  0.510  0.655-  67 1.02  43 1.02 157 1.32
 213  0.046  0.204  0.753-  92 1.02  84 1.02 161 1.31
 214  0.046  0.704  0.753-  93 1.02  85 1.02 162 1.31
 215  0.546  0.204  0.753-  94 1.02  86 1.02 159 1.31
 216  0.546  0.704  0.753-  95 1.02  87 1.02 160 1.31
 217  0.204  0.454  0.753-  96 1.02  88 1.02 164 1.31
 218  0.204  0.954  0.753-  97 1.02  89 1.02 163 1.31
 219  0.704  0.454  0.753-  98 1.02  90 1.02 166 1.31
 220  0.704  0.954  0.753-  99 1.02  91 1.02 165 1.31
 221  0.454  0.296  0.753-  76 1.02 100 1.02 159 1.31
 222  0.454  0.796  0.753-  77 1.02 101 1.02 160 1.31
 223  0.954  0.296  0.753-  78 1.02 102 1.02 161 1.31
 224  0.954  0.796  0.753-  79 1.02 103 1.02 162 1.31
 225  0.296  0.046  0.753-  80 1.02 104 1.02 163 1.31
 226  0.296  0.546  0.753-  81 1.02 105 1.02 164 1.31
 227  0.796  0.046  0.753-  82 1.02 106 1.02 165 1.31
 228  0.796  0.546  0.753-  83 1.02 107 1.02 166 1.31
 229  0.777  0.516  0.547- 173 1.51 175 1.52 174 1.52 176 1.52
 230  0.513  0.983  0.553- 304 3.16
 231  0.475  0.511  0.553- 305 3.14
 232  0.007  0.013  0.551- 302 3.30
 233  0.031  0.488  0.554- 303 3.12
 234  0.259  0.240  0.554- 306 3.23
 235  0.230  0.766  0.551- 307 3.28
 236  0.734  0.231  0.555- 308 3.23
 237  0.733  0.795  0.554- 309 3.24
 238  0.996  0.985  0.654- 302 3.16 310 3.18
 239  0.010  0.505  0.655- 311 3.12 303 3.20
 240  0.497  0.002  0.655- 312 3.14 304 3.19
 241  0.494  0.503  0.654- 313 3.19 305 3.20
 242  0.263  0.242  0.655- 306 3.10 314 3.12
 243  0.246  0.756  0.654- 307 3.17 315 3.20
 244  0.745  0.267  0.655- 316 3.11 308 3.11
 245  0.749  0.733  0.655- 317 3.15 309 3.17
 246  0.135  0.117  0.609- 306 3.21 302 3.21
 247  0.147  0.609  0.606- 303 3.15 307 3.19
 248  0.638  0.113  0.609- 308 3.19 304 3.28
 249  0.619  0.631  0.607- 305 3.20 309 3.31
 250  0.367  0.384  0.608- 306 3.19 305 3.20
 251  0.364  0.885  0.605- 304 3.17 307 3.20
 252  0.887  0.367  0.611- 308 3.29 303 3.33
 253  0.862  0.890  0.607- 309 3.12 302 3.23
 254  0.127  0.369  0.612- 306 3.21 303 3.22
 255  0.116  0.873  0.606- 307 3.14 302 3.23
 256  0.613  0.365  0.602- 305 3.18 308 3.19
 257  0.616  0.864  0.612- 309 3.15 304 3.18
 258  0.396  0.138  0.604- 306 3.21 304 3.24
 259  0.379  0.634  0.607- 305 3.27 307 3.31
 260  0.882  0.135  0.612- 302 3.15 308 3.24
 261  0.902  0.647  0.610- 303 3.31 309 3.39
 262  0.000  0.000  0.755- 310 3.13 318 3.27
 263  0.000  0.500  0.755- 311 3.13 319 3.27
 264  0.500  0.000  0.755- 312 3.13 320 3.27
 265  0.500  0.500  0.755- 313 3.13 321 3.27
 266  0.250  0.250  0.755- 314 3.13 322 3.27
 267  0.250  0.750  0.755- 315 3.13 323 3.27
 268  0.750  0.250  0.755- 316 3.13 324 3.27
 269  0.750  0.750  0.755- 317 3.13 325 3.27
 270  0.136  0.114  0.705- 310 3.20 314 3.20
 271  0.136  0.614  0.705- 311 3.20 315 3.20
 272  0.636  0.114  0.705- 312 3.20 316 3.20
 273  0.636  0.614  0.705- 313 3.20 317 3.20
 274  0.364  0.386  0.705- 313 3.20 314 3.20
 275  0.364  0.886  0.705- 312 3.20 315 3.20
 276  0.864  0.386  0.705- 311 3.20 316 3.20
 277  0.864  0.886  0.705- 310 3.20 317 3.20
 278  0.114  0.364  0.705- 314 3.21 311 3.21
 279  0.114  0.864  0.705- 315 3.21 310 3.21
 280  0.614  0.364  0.705- 316 3.21 313 3.21
 281  0.614  0.864  0.705- 317 3.21 312 3.21
 282  0.386  0.136  0.705- 314 3.21 312 3.21
 283  0.386  0.636  0.705- 315 3.21 313 3.21
 284  0.886  0.136  0.705- 316 3.21 310 3.21
 285  0.886  0.636  0.705- 317 3.21 311 3.21
 286  0.135  0.115  0.801- 318 3.22 322 3.22
 287  0.135  0.615  0.801- 319 3.22 323 3.22
 288  0.635  0.115  0.801- 320 3.22 324 3.22
 289  0.635  0.615  0.801- 321 3.22 325 3.22
 290  0.365  0.385  0.801- 321 3.22 322 3.22
 291  0.365  0.885  0.801- 320 3.22 323 3.22
 292  0.865  0.385  0.801- 319 3.22 324 3.22
 293  0.865  0.885  0.801- 318 3.22 325 3.22
 294  0.115  0.365  0.801- 319 3.23 322 3.23
 295  0.115  0.865  0.801- 318 3.23 323 3.23
 296  0.615  0.365  0.801- 321 3.23 324 3.23
 297  0.615  0.865  0.801- 320 3.23 325 3.23
 298  0.385  0.135  0.801- 320 3.23 322 3.23
 299  0.385  0.635  0.801- 321 3.23 323 3.23
 300  0.885  0.135  0.801- 318 3.23 324 3.23
 301  0.885  0.635  0.801- 319 3.23 325 3.23
 302  0.997  0.007  0.604- 260 3.15 238 3.16 246 3.21 253 3.23 255 3.23 232 3.30
 303  0.010  0.501  0.604- 233 3.12 247 3.15 239 3.20 254 3.22 261 3.31 252 3.33
 304  0.502  0.994  0.604- 230 3.16 251 3.17 257 3.18 240 3.19 258 3.24 248 3.28
 305  0.500  0.500  0.603- 231 3.14 256 3.18 250 3.20 241 3.20 249 3.20 259 3.27
 306  0.256  0.248  0.606- 242 3.10 250 3.19 254 3.21 246 3.21 258 3.21 234 3.23
 307  0.244  0.756  0.603- 255 3.14 243 3.17 247 3.19 251 3.20 235 3.28 259 3.31
 308  0.747  0.251  0.606- 244 3.11 256 3.19 248 3.19 236 3.23 260 3.24 252 3.29
 309  0.752  0.757  0.604- 253 3.12 257 3.15 245 3.17 237 3.24 249 3.31 261 3.39
 310  0.000  0.000  0.705- 262 3.13 238 3.18 270 3.20 277 3.20 279 3.21 284 3.21
 311  0.000  0.500  0.705- 239 3.12 263 3.13 271 3.20 276 3.20 278 3.21 285 3.21
 312  0.500  0.000  0.705- 264 3.13 240 3.14 272 3.20 275 3.20 281 3.21 282 3.21
 313  0.500  0.500  0.705- 265 3.13 241 3.19 273 3.20 274 3.20 280 3.21 283 3.21
 314  0.250  0.250  0.705- 242 3.12 266 3.13 270 3.20 274 3.20 282 3.21 278 3.21
 315  0.250  0.750  0.705- 267 3.13 271 3.20 275 3.20 243 3.20 283 3.21 279 3.21
 316  0.750  0.250  0.705- 244 3.11 268 3.13 272 3.20 276 3.20 284 3.21 280 3.21
 317  0.750  0.750  0.705- 269 3.13 245 3.15 273 3.20 277 3.20 285 3.21 281 3.21
 318  0.000  0.000  0.807- 286 3.22 293 3.22 300 3.23 295 3.23 262 3.27
 319  0.000  0.500  0.807- 287 3.22 292 3.22 301 3.23 294 3.23 263 3.27
 320  0.500  0.000  0.807- 288 3.22 291 3.22 298 3.23 297 3.23 264 3.27
 321  0.500  0.500  0.807- 289 3.22 290 3.22 299 3.23 296 3.23 265 3.27
 322  0.250  0.250  0.807- 290 3.22 286 3.22 294 3.23 298 3.23 266 3.27
 323  0.250  0.750  0.807- 291 3.22 287 3.22 299 3.23 295 3.23 267 3.27
 324  0.750  0.250  0.807- 292 3.22 288 3.22 296 3.23 300 3.23 268 3.27
 325  0.750  0.750  0.807- 293 3.22 289 3.22 297 3.23 301 3.23 269 3.27
 

IMPORTANT INFORMATION: All symmetrisations will be switched off!
NOSYMM: (Re-)initialisation of all symmetry stuff for point group C_1.


----------------------------------------------------------------------------------------

                                     Primitive cell                                     

  volume of cell :   20385.2105

  direct lattice vectors                    reciprocal lattice vectors
    18.060800552  0.000000000  0.000000000     0.055368531  0.000015077 -0.000000000
    -0.004918649 18.062799454  0.000000000     0.000000000  0.055362404  0.000000000
     0.000000000  0.000000000 62.487499237     0.000000000 -0.000000000  0.016003201

  length of vectors
    18.060800552 18.062800123 62.487499237     0.055368533  0.055362404  0.016003201

  position of ions in fractional coordinates (direct lattice)
     0.407797729  0.284173577  0.560996545
     0.416011961  0.695242473  0.571157634
     0.925134207  0.292866191  0.579461358
     0.926669648  0.814886872  0.572817024
     0.322638756  0.091153557  0.563057504
     0.324572119  0.572341142  0.568324487
     0.798358474  0.103377341  0.564894602
     0.109508809  0.241428319  0.561960360
     0.078679467  0.682751856  0.569120911
     0.583815808  0.185747176  0.565033546
     0.599098528  0.763540789  0.559015130
     0.378167146  0.016972807  0.554144283
     0.255272372  0.622060950  0.554848892
     0.874419205  0.049168725  0.555998902
     0.063391583  0.289192606  0.581855148
     0.992517288  0.694026172  0.581284050
     0.489397427  0.173371394  0.570112809
     0.552449689  0.695212114  0.573524563
     0.307569011  0.436824222  0.571776472
     0.190521997  0.067827433  0.568766959
     0.682975598  0.032805575  0.573427253
     0.456870289  0.365341545  0.554497198
     0.374291864  0.760140881  0.554270040
     0.884391116  0.244077946  0.558449099
     0.972988077  0.873452988  0.555222257
     0.232469093  0.397578872  0.558543234
     0.155923909  0.982841390  0.560682151
     0.682892396  0.939022303  0.565661235
     0.571270647  0.306192569  0.554895898
     0.490143878  0.812700413  0.544821373
     0.999670491  0.203918125  0.544779067
     0.070545211  0.791806990  0.549638010
     0.188238296  0.513238021  0.546814326
     0.273575522  0.938556911  0.550913290
     0.803553216  0.941218635  0.554402574
     0.454942195  0.296997981  0.672938978
     0.442130511  0.815218494  0.670610998
     0.957122753  0.284271200  0.676630513
     0.913106451  0.739227025  0.663850735
     0.296948136  0.041304666  0.675020632
     0.300991308  0.560944335  0.673188845
     0.797459276  0.051391416  0.675535811
     0.832641601  0.471971706  0.665906993
     0.091008671  0.170636236  0.647180225
     0.108256013  0.700199544  0.654646562
     0.577152965  0.164275366  0.646275564
     0.573253498  0.673509143  0.651949673
     0.185129023  0.411534202  0.651257029
     0.164155757  0.929473931  0.644245861
     0.634735719  0.484043848  0.654015271
     0.672536842  0.918325049  0.649421823
     0.063286519  0.188375327  0.673386517
     0.024869978  0.655285594  0.660704292
     0.547545257  0.188243174  0.671776026
     0.543481076  0.713692894  0.675729331
     0.212530666  0.446999712  0.675842147
     0.183805834  0.952362527  0.670733276
     0.697783170  0.434856848  0.669780571
     0.696815165  0.946796666  0.674979181
     0.436498325  0.337275104  0.648298308
     0.417188189  0.829716796  0.643901737
     0.926408661  0.318946118  0.652285922
     0.928430654  0.831613712  0.657885247
     0.342384398  0.062046019  0.651486812
     0.320291511  0.587913772  0.646982126
     0.826010988  0.079663266  0.650072527
     0.849714925  0.544811469  0.648096241
     0.006776626  0.251552200  0.631909043
     0.052954650  0.815281429  0.650564386
     0.511177282  0.256075537  0.629270027
     0.496585146  0.741837554  0.630432369
     0.261801753  0.994867543  0.630182074
     0.249861430  0.496405796  0.631319814
     0.751210761  0.998264437  0.632052993
     0.726208998  0.557161961  0.638497886
     0.448745018  0.301283966  0.768889017
     0.448745007  0.801283913  0.768889017
     0.948744965  0.301283966  0.768889017
     0.948745007  0.801283913  0.768889017
     0.301275995  0.051294496  0.768872961
     0.301276011  0.551294499  0.768872961
     0.801275943  0.051294496  0.768872961
     0.801275984  0.551294499  0.768872961
     0.078771004  0.171180501  0.743441971
     0.078771006  0.671180448  0.743441971
     0.578771004  0.171180501  0.743441971
     0.578770992  0.671180448  0.743441971
     0.171199499  0.421174482  0.743421032
     0.171199501  0.921174508  0.743421032
     0.671199512  0.421174482  0.743421032
     0.671199501  0.921174508  0.743421032
     0.051256000  0.198714991  0.768889017
     0.051256002  0.698714925  0.768889017
     0.551256027  0.198714991  0.768889017
     0.551256016  0.698714925  0.768889017
     0.198723491  0.448703970  0.768872046
     0.198723493  0.948703970  0.768872046
     0.698723518  0.448703970  0.768872046
     0.698723507  0.948703970  0.768872046
     0.421231519  0.328817467  0.743441971
     0.421231508  0.828817440  0.743441971
     0.921231466  0.328817467  0.743441971
     0.921231508  0.828817440  0.743441971
     0.328800503  0.078824997  0.743421032
     0.328800492  0.578824964  0.743421032
     0.828800477  0.078824997  0.743421032
     0.828800519  0.578824964  0.743421032
     0.000003500  0.250001478  0.725821992
     0.000003500  0.750001452  0.725821992
     0.500003506  0.250001478  0.725821992
     0.500003495  0.750001452  0.725821992
     0.250000502  0.000000000  0.725803983
     0.250000517  0.500000000  0.725803983
     0.750000502  0.000000000  0.725803983
     0.750000490  0.500000000  0.725803983
     0.799140253  0.507914587  0.513928415
     0.878183306  0.500154592  0.530803982
     0.757782681  0.618285756  0.532132007
     0.755722231  0.620214403  0.560391077
     0.687304478  0.442079864  0.549274779
     0.668138218  0.533988310  0.557164052
     0.796162143  0.422058394  0.566232699
     0.863840793  0.491765987  0.568334133
     0.857758175  0.373231792  0.538543079
     0.763376636  0.375925531  0.531855584
     0.785514226  0.383172570  0.494415723
     0.878952003  0.409740585  0.497211570
     0.896061245  0.616408903  0.532094401
     0.897222435  0.605311248  0.560446264
     0.862269819  0.688119904  0.548991275
     0.600922828  0.505823270  0.524799913
     0.680984091  0.480417543  0.510347132
     0.666685057  0.574094554  0.518618134
     0.704248019  0.499441981  0.587196792
     0.775034427  0.568394567  0.590581747
     0.785710072  0.479139152  0.601272117
     0.821691828  0.258277624  0.511894438
     0.848302722  0.274634590  0.485348235
     0.924605168  0.158887163  0.498691541
     0.973744142  0.384550669  0.516537213
     0.056161154  0.125794487  0.503780297
     0.103817862  0.351199548  0.521545844
     0.147746507  0.222463279  0.514969760
     0.996982748  0.238661297  0.559171167
     0.024623504  0.775737428  0.560074790
     0.521146282  0.274908319  0.558591767
     0.486706718  0.763963329  0.555194420
     0.240835105  0.509850362  0.555564977
     0.267322130  0.995755490  0.556609803
     0.778633852  0.992996066  0.560246272
     0.008452429  0.244890291  0.649275005
     0.019266127  0.767891109  0.655486940
     0.506678425  0.251054080  0.646630616
     0.494906631  0.751157352  0.647706759
     0.252927455  0.499653858  0.648747922
     0.252622333  0.996230905  0.647424048
     0.741586166  0.515219202  0.650362869
     0.749716027  0.998757151  0.649520171
     0.499988984  0.249994984  0.743277021
     0.499989025  0.749994958  0.743277021
     0.999988984  0.249994984  0.743277021
     0.999989025  0.749994958  0.743277021
     0.250000502  0.000001000  0.743255960
     0.250000517  0.500001003  0.743255960
     0.750000502  0.000001000  0.743255960
     0.750000491  0.500001003  0.743255960
     0.938692649  0.274528942  0.506766215
     0.964210668  0.201502697  0.503471916
     0.990610888  0.327645542  0.513236870
     0.038275003  0.182773345  0.506246824
     0.065293195  0.308766668  0.516061471
     0.089778133  0.236783890  0.512369814
     0.820656341  0.481797622  0.528666348
     0.786827467  0.599422668  0.546546633
     0.694646500  0.500074339  0.544808309
     0.803949750  0.481901581  0.567807599
     0.817963201  0.397646426  0.527254749
     0.835531573  0.373598815  0.504208728
     0.865676826  0.627686809  0.546950156
     0.660515547  0.516134556  0.523222266
     0.764276778  0.509902420  0.587469491
     0.858427767  0.292728890  0.501895429
     0.059713975  0.256814599  0.568467399
     0.030412247  0.712124855  0.570038575
     0.530805889  0.205072745  0.563637515
     0.549599692  0.737363477  0.562506429
     0.457444258  0.309284191  0.557257271
     0.421791743  0.736293690  0.559921561
     0.931748933  0.260000730  0.566112192
     0.967628668  0.820881629  0.561482237
     0.262558943  0.443966062  0.562032335
     0.200264643  0.017496542  0.561971898
     0.708697566  0.989330810  0.566118358
     0.326291323  0.038271540  0.557370453
     0.277276242  0.571355092  0.559319879
     0.819657382  0.053223985  0.560551998
     0.056741045  0.198291949  0.657329594
     0.052489673  0.703311915  0.657170749
     0.545984639  0.198096004  0.655690411
     0.539331709  0.710160833  0.659460697
     0.215036530  0.449927662  0.659573268
     0.196970630  0.957647960  0.654907418
     0.688881324  0.474556523  0.658477590
     0.704450353  0.951669818  0.658884104
     0.463681099  0.297662070  0.656768508
     0.448311373  0.801244738  0.654832207
     0.961274114  0.284984391  0.660378727
     0.948718141  0.779258982  0.658987579
     0.298848419  0.035545057  0.658847109
     0.293553718  0.552415606  0.657026067
     0.793029212  0.046332466  0.659218888
     0.812680913  0.510372320  0.655299464
     0.045862501  0.204119496  0.752725994
     0.045862500  0.704119456  0.752725994
     0.545862507  0.204119496  0.752725994
     0.545862496  0.704119456  0.752725994
     0.204119002  0.454101003  0.752704994
     0.204118991  0.954100951  0.752704994
     0.704118976  0.454101003  0.752704994
     0.704118964  0.954100951  0.752704994
     0.454140018  0.295888490  0.752726971
     0.454140007  0.795888516  0.752726971
     0.954140018  0.295888490  0.752726971
     0.954140060  0.795888516  0.752726971
     0.295882492  0.045900498  0.752704994
     0.295882481  0.545900528  0.752704994
     0.795882439  0.045900498  0.752704994
     0.795882481  0.545900528  0.752704994
     0.777000097  0.515674793  0.546846559
     0.512843260  0.982788226  0.553107088
     0.474538403  0.511126271  0.553075282
     0.006931771  0.012824547  0.551290746
     0.030951744  0.487758800  0.554300930
     0.258907415  0.239787156  0.554046485
     0.230023906  0.765728515  0.550696083
     0.734402939  0.230623613  0.554501959
     0.732768846  0.795102886  0.554116689
     0.996057548  0.984800785  0.654201649
     0.010151324  0.505010080  0.654969259
     0.497287872  0.002012784  0.654550657
     0.493882209  0.503050546  0.653872665
     0.262663298  0.242185412  0.655158567
     0.245924623  0.756170124  0.653587635
     0.744961731  0.266822034  0.655343235
     0.749058898  0.733250694  0.654710052
     0.135219213  0.117391151  0.608621243
     0.147216341  0.608575149  0.606417861
     0.637583750  0.113201561  0.608544446
     0.619069950  0.630768928  0.607033279
     0.367476464  0.384309067  0.607989708
     0.364188140  0.885188386  0.605447269
     0.887342278  0.366511410  0.611308182
     0.861666944  0.890283100  0.606525609
     0.126960926  0.368731157  0.611625140
     0.115539117  0.873013869  0.605900484
     0.613337158  0.365468444  0.602101018
     0.615949688  0.863647662  0.612497873
     0.395596413  0.138461421  0.603746001
     0.379253375  0.633958648  0.607177962
     0.882159408  0.135238148  0.612002962
     0.901931388  0.646945141  0.609870761
     0.000000000  0.000000000  0.754927972
     0.000000000  0.500000000  0.754927972
     0.500000000  0.000000000  0.754927972
     0.499999989  0.500000000  0.754927972
     0.250000496  0.250000000  0.754939022
     0.250000511  0.749999974  0.754939022
     0.750000470  0.250000000  0.754939022
     0.750000458  0.749999974  0.754939022
     0.135790500  0.114209997  0.704782994
     0.135790502  0.614209984  0.704782994
     0.635790447  0.114209997  0.704782994
     0.635790488  0.614209984  0.704782994
     0.364209516  0.385789989  0.704782994
     0.364209505  0.885789963  0.704782994
     0.864209542  0.385789989  0.704782994
     0.864209531  0.885789963  0.704782994
     0.114217990  0.364218986  0.704780979
     0.114217992  0.864218986  0.704780979
     0.614218004  0.364218986  0.704780979
     0.614217992  0.864218986  0.704780979
     0.385782012  0.135781489  0.704782017
     0.385782001  0.635781489  0.704782017
     0.885781985  0.135781489  0.704782017
     0.885782027  0.635781489  0.704782017
     0.134667000  0.115332001  0.801256025
     0.134666989  0.615331988  0.801256025
     0.634666987  0.115332001  0.801256025
     0.634666976  0.615331988  0.801256025
     0.365333002  0.384667985  0.801256025
     0.365332990  0.884667959  0.801256025
     0.865332949  0.384667985  0.801256025
     0.865332938  0.884667959  0.801256025
     0.115328503  0.365337004  0.801264999
     0.115328505  0.865336978  0.801264999
     0.615328503  0.365337004  0.801264999
     0.615328492  0.865336978  0.801264999
     0.384671513  0.134662996  0.801264999
     0.384671501  0.634662970  0.801264999
     0.884671486  0.134662996  0.801264999
     0.884671528  0.634662970  0.801264999
     0.996923431  0.006596715  0.604041897
     0.010423527  0.501021372  0.603720605
     0.501929729  0.993881381  0.603546925
     0.500162879  0.499967371  0.602642203
     0.255551562  0.247918239  0.605601108
     0.243534542  0.755852599  0.602898236
     0.747471915  0.251341167  0.605768561
     0.751533468  0.757429244  0.604499997
     0.000000500  0.000000500  0.704828963
     0.000000500  0.500000475  0.704828963
     0.500000475  0.000000500  0.704828963
     0.500000464  0.500000475  0.704828963
     0.249999994  0.249999472  0.704824995
     0.250000010  0.749999498  0.704824995
     0.749999994  0.249999472  0.704824995
     0.749999983  0.749999498  0.704824995
     0.000000000  0.000000000  0.807317968
     0.000000000  0.500000000  0.807317968
     0.500000000  0.000000000  0.807317968
     0.499999989  0.500000000  0.807317968
     0.249999994  0.250000000  0.807317968
     0.250000010  0.749999974  0.807317968
     0.749999994  0.250000000  0.807317968
     0.749999983  0.749999974  0.807317968

  ion indices of the primitive-cell ions
   primitive index   ion index
                 1           1
                 2           2
                 3           3
                 4           4
                 5           5
                 6           6
                 7           7
                 8           8
                 9           9
                10          10
                11          11
                12          12
                13          13
                14          14
                15          15
                16          16
                17          17
                18          18
                19          19
                20          20
                21          21
                22          22
                23          23
                24          24
                25          25
                26          26
                27          27
                28          28
                29          29
                30          30
                31          31
                32          32
                33          33
                34          34
                35          35
                36          36
                37          37
                38          38
                39          39
                40          40
                41          41
                42          42
                43          43
                44          44
                45          45
                46          46
                47          47
                48          48
                49          49
                50          50
                51          51
                52          52
                53          53
                54          54
                55          55
                56          56
                57          57
                58          58
                59          59
                60          60
                61          61
                62          62
                63          63
                64          64
                65          65
                66          66
                67          67
                68          68
                69          69
                70          70
                71          71
                72          72
                73          73
                74          74
                75          75
                76          76
                77          77
                78          78
                79          79
                80          80
                81          81
                82          82
                83          83
                84          84
                85          85
                86          86
                87          87
                88          88
                89          89
                90          90
                91          91
                92          92
                93          93
                94          94
                95          95
                96          96
                97          97
                98          98
                99          99
               100         100
               101         101
               102         102
               103         103
               104         104
               105         105
               106         106
               107         107
               108         108
               109         109
               110         110
               111         111
               112         112
               113         113
               114         114
               115         115
               116         116
               117         117
               118         118
               119         119
               120         120
               121         121
               122         122
               123         123
               124         124
               125         125
               126         126
               127         127
               128         128
               129         129
               130         130
               131         131
               132         132
               133         133
               134         134
               135         135
               136         136
               137         137
               138         138
               139         139
               140         140
               141         141
               142         142
               143         143
               144         144
               145         145
               146         146
               147         147
               148         148
               149         149
               150         150
               151         151
               152         152
               153         153
               154         154
               155         155
               156         156
               157         157
               158         158
               159         159
               160         160
               161         161
               162         162
               163         163
               164         164
               165         165
               166         166
               167         167
               168         168
               169         169
               170         170
               171         171
               172         172
               173         173
               174         174
               175         175
               176         176
               177         177
               178         178
               179         179
               180         180
               181         181
               182         182
               183         183
               184         184
               185         185
               186         186
               187         187
               188         188
               189         189
               190         190
               191         191
               192         192
               193         193
               194         194
               195         195
               196         196
               197         197
               198         198
               199         199
               200         200
               201         201
               202         202
               203         203
               204         204
               205         205
               206         206
               207         207
               208         208
               209         209
               210         210
               211         211
               212         212
               213         213
               214         214
               215         215
               216         216
               217         217
               218         218
               219         219
               220         220
               221         221
               222         222
               223         223
               224         224
               225         225
               226         226
               227         227
               228         228
               229         229
               230         230
               231         231
               232         232
               233         233
               234         234
               235         235
               236         236
               237         237
               238         238
               239         239
               240         240
               241         241
               242         242
               243         243
               244         244
               245         245
               246         246
               247         247
               248         248
               249         249
               250         250
               251         251
               252         252
               253         253
               254         254
               255         255
               256         256
               257         257
               258         258
               259         259
               260         260
               261         261
               262         262
               263         263
               264         264
               265         265
               266         266
               267         267
               268         268
               269         269
               270         270
               271         271
               272         272
               273         273
               274         274
               275         275
               276         276
               277         277
               278         278
               279         279
               280         280
               281         281
               282         282
               283         283
               284         284
               285         285
               286         286
               287         287
               288         288
               289         289
               290         290
               291         291
               292         292
               293         293
               294         294
               295         295
               296         296
               297         297
               298         298
               299         299
               300         300
               301         301
               302         302
               303         303
               304         304
               305         305
               306         306
               307         307
               308         308
               309         309
               310         310
               311         311
               312         312
               313         313
               314         314
               315         315
               316         316
               317         317
               318         318
               319         319
               320         320
               321         321
               322         322
               323         323
               324         324
               325         325

----------------------------------------------------------------------------------------

 
 
 KPOINTS: Automatic Mesh                          

Automatic generation of k-mesh.
 Grid dimensions read from file:
 generate k-points for:    3    3    1

 Generating k-lattice:

  Cartesian coordinates                     Fractional coordinates (reciprocal lattice)
     0.018456177  0.000005026 -0.000000000     0.333333333  0.000000000  0.000000000
     0.000000000  0.018454135  0.000000000     0.000000000  0.333333333  0.000000000
     0.000000000 -0.000000000  0.016003201     0.000000000  0.000000000  1.000000000

  Length of vectors
     0.018456178  0.018454135  0.016003201

  Shift w.r.t. Gamma in fractional coordinates (k-lattice)
     0.000000000  0.000000000  0.000000000

 
 Subroutine IBZKPT returns following result:
 ===========================================
 
 Found      5 irreducible k-points:
 
 Following reciprocal coordinates:
            Coordinates               Weight
  0.000000  0.000000  0.000000      1.000000
  0.333333  0.000000  0.000000      2.000000
  0.000000  0.333333  0.000000      2.000000
  0.333333  0.333333  0.000000      2.000000
 -0.333333  0.333333  0.000000      2.000000
 
 Following cartesian coordinates:
            Coordinates               Weight
  0.000000  0.000000  0.000000      1.000000
  0.018456  0.000005  0.000000      2.000000
  0.000000  0.018454  0.000000      2.000000
  0.018456  0.018459  0.000000      2.000000
 -0.018456  0.018449  0.000000      2.000000
 


--------------------------------------------------------------------------------------------------------




 Dimension of arrays:
   k-points           NKPTS =      5   k-points in BZ     NKDIM =      5   number of bands    NBANDS=    732
   number of dos      NEDOS =    301   number of ions     NIONS =    325
   non local maximal  LDIM  =      5   non local SUM 2l+1 LMDIM =     13
   total plane-waves  NPLWV = ******
   max r-space proj   IRMAX =   3336   max aug-charges    IRDMAX=  19845
   dimension x,y,z NGX =   100 NGY =  100 NGZ =  350
   dimension x,y,z NGXF=   200 NGYF=  200 NGZF=  700
   support grid    NGXF=   200 NGYF=  200 NGZF=  700
   ions per type =             143  39  47  72  24
   NGX,Y,Z   is equivalent  to a cutoff of   9.20,  9.20,  9.31 a.u.
   NGXF,Y,Z  is equivalent  to a cutoff of  18.41, 18.41, 18.62 a.u.

 SYSTEM =  PSC                                     
 POSCAR =   H  C  N  I Pb                          

 Startparameter for this run:
   NWRITE =      2    write-flag & timer
   PREC   = normal    normal or accurate (medium, high low for compatibility)
   ISTART =      0    job   : 0-new  1-cont  2-samecut
   ICHARG =      1    charge: 1-file 2-atom 10-const
   ISPIN  =      1    spin polarized calculation?
   LNONCOLLINEAR =      F non collinear calculations
   LSORBIT =      F    spin-orbit coupling
   INIWAV =      1    electr: 0-lowe 1-rand  2-diag
   LASPH  =      F    aspherical Exc in radial PAW
 Electronic Relaxation 1
   ENCUT  =  500.0 eV  36.75 Ry    6.06 a.u.  32.93 32.93113.93*2*pi/ulx,y,z
   ENINI  =  500.0     initial cutoff
   ENAUG  =  644.9 eV  augmentation charge cutoff
   NELM   =    600;   NELMIN=  2; NELMDL=  0     # of ELM steps 
   EDIFF  = 0.1E-03   stopping-criterion for ELM
   LREAL  =      T    real-space projection
   NLSPLINE    = F    spline interpolate recip. space projectors
   LCOMPAT=      F    compatible to vasp.4.4
   GGA_COMPAT  = F    GGA compatible to vasp.4.4-vasp.4.6
   LMAXPAW     = -100 max onsite density
   LMAXMIX     =    2 max onsite mixed and CHGCAR
   VOSKOWN=      0    Vosko Wilk Nusair interpolation
   ROPT   =   -0.00050  -0.00050  -0.00050  -0.00050
   ROPT   =   -0.00050
 Ionic relaxation
   EDIFFG = 0.1E-02   stopping-criterion for IOM
   NSW    =      0    number of steps for IOM
   NBLOCK =      1;   KBLOCK =      1    inner block; outer block 
   IBRION =     -1    ionic relax: 0-MD 1-quasi-New 2-CG
   NFREE  =      0    steps in history (QN), initial steepest desc. (CG)
   ISIF   =      2    stress and relaxation
   IWAVPR =     10    prediction:  0-non 1-charg 2-wave 3-comb
   ISYM   =      0    0-nonsym 1-usesym 2-fastsym
   LCORR  =      T    Harris-Foulkes like correction to forces

   POTIM  = 0.5000    time-step for ionic-motion
   TEIN   =    0.0    initial temperature
   TEBEG  =    0.0;   TEEND  =   0.0 temperature during run
   SMASS  =  -3.00    Nose mass-parameter (am)
   estimated Nose-frequenzy (Omega)   =  0.10E-29 period in steps = 0.13E+47 mass=  -0.745E-26a.u.
   SCALEE = 1.0000    scale energy and forces
   NPACO  =    256;   APACO  = 16.0  distance and # of slots for P.C.
   PSTRESS=    0.0 pullay stress

  Mass of Ions in am
   POMASS =   1.00 12.01 14.00126.90207.20
  Ionic Valenz
   ZVAL   =   1.00  4.00  5.00  7.00  4.00
  Atomic Wigner-Seitz radii
   RWIGS  =  -1.00 -1.00 -1.00 -1.00 -1.00
  virtual crystal weights 
   VCA    =   1.00  1.00  1.00  1.00  1.00
   NELECT =    1134.0000    total number of electrons
   NUPDOWN=      -1.0000    fix difference up-down

 DOS related values:
   EMIN   =  10.00;   EMAX   =-10.00  energy-range for DOS
   EFERMI =   0.00
   ISMEAR =     0;   SIGMA  =   0.05  broadening in eV -4-tet -1-fermi 0-gaus

 Electronic relaxation 2 (details)
   IALGO  =     38    algorithm
   LDIAG  =      T    sub-space diagonalisation (order eigenvalues)
   LSUBROT=      F    optimize rotation matrix (better conditioning)
   TURBO    =      0    0=normal 1=particle mesh
   IRESTART =      0    0=no restart 2=restart with 2 vectors
   NREBOOT  =      0    no. of reboots
   NMIN     =      0    reboot dimension
   EREF     =   0.00    reference energy to select bands
   IMIX   =      4    mixing-type and parameters
     AMIX     =   0.40;   BMIX     =  0.01
     AMIX_MAG =   1.60;   BMIX_MAG =  0.01
     AMIN     =   0.01
     WC   =   100.;   INIMIX=   1;  MIXPRE=   1;  MAXMIX= -45

 Intra band minimization:
   WEIMIN = 0.0000     energy-eigenvalue tresh-hold
   EBREAK =  0.34E-07  absolut break condition
   DEPER  =   0.30     relativ break condition  

   TIME   =   0.40     timestep for ELM

  volume/ion in A,a.u.               =      62.72       423.28
  Fermi-wavevector in a.u.,A,eV,Ry     =   0.624944  1.180972  5.313816  0.390554
  Thomas-Fermi vector in A             =   1.685677
 
 Write flags
   LWAVE        =      F    write WAVECAR
   LDOWNSAMPLE  =      F    k-point downsampling of WAVECAR
   LCHARG       =      T    write CHGCAR
   LVTOT        =      T    write LOCPOT, total local potential
   LVHAR        =      F    write LOCPOT, Hartree potential only
   LELF         =      F    write electronic localiz. function (ELF)
   LORBIT       =      0    0 simple, 1 ext, 2 COOP (PROOUT), +10 PAW based schemes


 Dipole corrections
   LMONO  =      F    monopole corrections only (constant potential shift)
   LDIPOL =      T    correct potential (dipole corrections)
   IDIPOL =      3    1-x, 2-y, 3-z, 4-all directions 
   EPSILON=  1.0000000 bulk dielectric constant

 Exchange correlation treatment:
   GGA     =    --    GGA type
   LEXCH   =     8    internal setting for exchange type
   VOSKOWN=      0    Vosko Wilk Nusair interpolation
   LHFCALC =     F    Hartree Fock is set to
   LHFONE  =     F    Hartree Fock one center treatment
   AEXX    =    0.0000 exact exchange contribution

 Linear response parameters
   LEPSILON=     F    determine dielectric tensor
   LRPA    =     F    only Hartree local field effects (RPA)
   LNABLA  =     F    use nabla operator in PAW spheres
   LVEL    =     F    velocity operator in full k-point grid
   LINTERFAST=   F  fast interpolation
   KINTER  =     0    interpolate to denser k-point grid
   CSHIFT  =0.1000    complex shift for real part using Kramers Kronig
   OMEGAMAX=  -1.0    maximum frequency
   DEG_THRESHOLD= 0.2000000E-02 threshold for treating states as degnerate
   RTIME   =   -0.100 relaxation time in fs
  (WPLASMAI=    0.000 imaginary part of plasma frequency in eV, 0.658/RTIME)
   DFIELD  = 0.0000000 0.0000000 0.0000000 field for delta impulse in time
 
 Orbital magnetization related:
   ORBITALMAG=     F  switch on orbital magnetization
   LCHIMAG   =     F  perturbation theory with respect to B field
   DQ        =  0.001000  dq finite difference perturbation B field
   LLRAUG    =     F  two centre corrections for induced B field



--------------------------------------------------------------------------------------------------------


 Static calculation
 charge density and potential will be updated during run
 non-spin polarized calculation
 Variant of blocked Davidson
 Davidson routine will perform the subspace rotation
 perform sub-space diagonalisation
    after iterative eigenvector-optimisation
 modified Broyden-mixing scheme, WC =      100.0
 initial mixing is a Kerker type mixing with AMIX =  0.4000 and BMIX =      0.0100
 Hartree-type preconditioning will be used
 using additional bands           165
 real space projection scheme for non local part
[...]
     13.54561      0.00000     45.35368         0.005142     -0.008094      0.012457
     13.54315      9.03140     45.35368        -0.002926      0.011027     -0.006411
     14.43061      9.17436     32.11410         0.077923     -0.131525      0.162926
     15.85823      9.03419     33.16861        -0.022378     -0.031394      0.023097
     13.68312     11.16797     33.25160         0.050795      0.066127      0.047393
     13.64590     11.20281     35.01744         0.006531     -0.015485     -0.069776
     12.41109      7.98520     34.32281        -0.085785     -0.151236      0.072014
     12.06448      9.64532     34.81579        -0.060928     -0.036128     -0.005671
     14.37725      7.62356     35.38247        -0.057706     -0.076875     -0.063615
     15.59924      8.88267     35.51378         0.048951      0.057128      0.042662
     15.48996      6.74161     33.65221         0.037449      0.035404     -0.039109
     13.78534      6.79027     33.23433         0.040361     -0.038828     -0.055848
     14.18513      6.92117     30.89480         0.089925      0.004017      0.030540
     15.87256      7.40106     31.06951        -0.145049     -0.118131      0.109653
     16.18055     11.13407     33.24925        -0.002722      0.017065      0.045329
     16.20158     10.93362     35.02089         0.044218      0.010094      0.001191
     15.56990     12.42937     34.30509        -0.004473     -0.075853     -0.034592
     10.85066      9.13658     32.79343        -0.064944      0.005554      0.025905
     12.29675      8.67769     31.89032         0.089254     -0.025023     -0.019518
     12.03804     10.36975     32.40715         0.005826      0.157007     -0.141565
     12.71683      9.02132     36.69246         0.234264      0.045341     -0.050496
     13.99495     10.26680     36.90398        -0.036693      0.077555     -0.009514
     14.18820      8.65459     37.57199         0.069387     -0.010268     -0.034966
     14.83914      4.66522     31.98700         0.024114     -0.048780      0.011919
     15.31968      4.96067     30.32820        -0.063844      0.006838     -0.076595
     16.69833      2.86995     31.16199        -0.011122     -0.012736     -0.022386
     17.58471      6.94606     32.27712         0.036277     -0.050455     -0.018166
      1.01370      2.27220     31.47997        -0.005375     -0.038880     -0.012201
      1.87331      6.34365     32.59010         0.026721      0.020017     -0.002318
      2.66733      4.01831     32.17917        -0.000006     -0.010025     -0.051814
     18.00513      4.31089     34.94121         0.132180      0.073931     -0.022014
      0.44090     14.01199     34.99767        -0.095288     -0.016341      0.079123
      9.41097      4.96561     34.90500         0.249840      0.030319     -0.059607
      8.78656     13.79932     34.69271         0.573217     -0.014811      0.131288
      4.34717      9.20932     34.71587        -0.005916     -0.087684      0.063870
      4.82315     17.98613     34.78115         0.010566     -0.068735     -0.076510
     14.05787     17.93629     35.00839         0.033286     -0.020961     -0.049878
      0.15145      4.42340     40.57157        -0.075337      0.034703      0.181979
      0.34418     13.87026     40.95974         0.378085     -0.345416      0.031830
      9.14978      4.53474     40.40633         0.371047     -0.470378      0.169099
      8.93472     13.56800     40.47358        -0.002522     -0.026011      0.088962
      4.56561      9.02515     40.53864        -0.169077     -0.246332      0.103454
      4.55766     17.99472     40.45591        -0.053531     -0.058723     -0.064084
     13.39111      9.30630     40.63955         0.653716      0.233197     -0.037950
     13.53556     18.04035     40.58689        -0.239172     -0.208921      0.153803
      9.02897      4.51561     46.44552         0.009402      0.003864      0.027123
      9.02651     13.54701     46.44552         0.026862     -0.011197      0.044401
     18.05937      4.51561     46.44552         0.018258     -0.000403      0.038951
     18.05691     13.54701     46.44552         0.015677     -0.001962     -0.009548
      4.51521      0.00002     46.44421         0.001157     -0.001174      0.054264
      4.51275      9.03142     46.44421        -0.005071     -0.003583      0.030073
     13.54561      0.00002     46.44421        -0.008880     -0.010800      0.035212
     13.54315      9.03142     46.44421         0.006144      0.013392      0.022031
     16.95219      4.95876     31.66655         0.143170     -0.093050     -0.126416
     17.41343      3.63970     31.46070        -0.286734      0.163724      0.068423
     17.88961      5.91820     32.07089         0.031073     -0.064278      0.017662
      0.69038      3.30140     31.63410         0.193254      0.004106      0.021928
      1.17773      5.57719     32.24739        -0.129655      0.129165     -0.014873
      1.62030      4.27698     32.01671        -0.043617     -0.052065      0.051478
     14.81934      8.70261     33.03504        -0.036089      0.193636     -0.164663
     14.20779     10.82725     34.15233        -0.088512      0.005140      0.043484
     12.54341      9.03274     34.04371        -0.038187      0.003678     -0.009710
     14.51761      8.70449     35.48088        -0.018153      0.041916      0.080477
     14.77111      7.18261     32.94683         0.043093      0.107676     -0.140386
     15.08853      6.74824     31.50674        -0.001345      0.174247     -0.182748
     15.63173     11.33778     34.17755         0.016942     -0.002333     -0.035129
     11.92690      9.32283     32.69485        -0.023933     -0.135627     -0.054425
     13.80094      9.21027     36.70950        -0.180204     -0.034879     -0.009051
     15.50245      5.28750     31.36219         0.060350     -0.112301      0.045572
      1.07722      4.63879     35.52211         0.115221     -0.210203     -0.255506
      0.54577     12.86297     35.62029         0.129701     -0.145802      0.016137
      9.58577      3.70419     35.22030         0.029163     -0.204520      0.112879
      9.92258     13.31885     35.14962         0.025514      0.151350     -0.068226
      8.26029      5.58654     34.82161        -0.455910     -0.087501      0.103490
      7.61427     13.29953     34.98810        -0.177128      0.076798     -0.137100
     16.82685      4.69634     35.37494        -0.017539     -0.057995     -0.192906
     17.47211     14.82742     35.08562        -0.135789      0.164501      0.048877
      4.73984      8.01927     35.12000        -0.164690      0.033460     -0.156808
      3.61685      0.31604     35.11622         0.189103     -0.214497     -0.090152
     12.79478     17.87008     35.37532         0.402763     -0.013524     -0.067407
      5.89289      0.69129     34.82869        -0.232508     -0.217145     -0.060680
      5.00502     10.32027     34.95050        -0.272162      0.347200     -0.212189
     14.80341      0.96137     35.02749        -0.070296     -0.445351     -0.141361
      1.02381      3.58171     41.07488        -0.159801      0.129758      0.131549
      0.94455     12.70378     41.06496        -0.258667      0.189904     -0.064232
      9.85995      3.57817     40.97245        -0.238205      0.295023     -0.041228
      9.73727     12.82749     41.20805        -0.091105      0.136245      0.017116
      3.88152      8.12695     41.21508         0.054523      0.041139     -0.168020
      3.55274     17.29780     40.92353        -0.295037     -0.212041     -0.117874
     12.43941      8.57182     41.14662        -0.264910     -0.016106     -0.102086
     12.71826     17.18982     41.17202         0.133758      0.111776     -0.245598
      8.37299      5.37661     41.03982        -0.110273      0.088950      0.188423
      8.09292     14.47272     40.91883         0.059955     -0.041998     -0.049113
     17.35998      5.14762     41.26542         0.217816     -0.158624      0.012329
     17.13078     14.07560     41.17849        -0.051016      0.307343     -0.046912
      5.39727      0.64204     41.16971         0.617713      0.466821     -0.198292
      5.29910      9.97817     41.05592         0.110196      0.169617      0.361519
     14.32251      0.83689     41.19294         0.074820      0.092592      0.262772
     14.67516      9.21875     40.94802        -0.473058     -0.123954     -0.089621
      0.82731      3.68697     47.03596         0.017269     -0.022669     -0.094979
      0.82485     12.71837     47.03596         0.025104     -0.019571     -0.054296
      9.85771      3.68697     47.03596         0.024737     -0.024610     -0.081643
      9.85525     12.71837     47.03596         0.006789     -0.011248     -0.079973
      3.68432      8.20234     47.03465        -0.008402     -0.015621     -0.066173
      3.68186     17.23373     47.03465        -0.010820     -0.008318     -0.069304
     12.71472      8.20234     47.03465        -0.015983     -0.023632     -0.053056
     12.71226     17.23373     47.03465        -0.011874     -0.004919     -0.074018
      8.20068      5.34457     47.03603        -0.020350      0.018356     -0.082533
      8.19822     14.37597     47.03603        -0.028920      0.026629     -0.085484
     17.23108      5.34457     47.03603        -0.029840      0.022282     -0.106982
     17.22862     14.37597     47.03603        -0.022531      0.030547     -0.058762
      5.34365      0.82909     47.03465         0.007482      0.010441     -0.071481
      5.34119      9.86049     47.03465         0.019003      0.014084     -0.058183
     14.37405      0.82909     47.03465         0.018222      0.021723     -0.066818
     14.37159      9.86049     47.03465         0.009050      0.004135     -0.059433
     14.03071      9.31453     34.17107         0.093666     -0.024489      0.050143
      9.25753     17.75191     34.56228         0.000967     -0.012381      0.000259
      8.56803      9.23237     34.56029        -0.058544     -0.042525      0.012616
      0.12513      0.23165     34.44878        -0.007946     -0.004541      0.012936
      0.55661      8.81029     34.63688        -0.030361     -0.026197     -0.038808
      4.67490      4.33123     34.62098        -0.031043     -0.003836     -0.009471
      4.15065     13.83120     34.41162        -0.005092     -0.012419      0.003051
     13.26277      4.16571     34.64944        -0.006308     -0.008433      0.015415
     13.23048     14.36178     34.62537         0.049228     -0.035236     -0.013808
     17.98475     17.78826     40.87943        -0.013504      0.015987      0.006005
      0.18086      9.12190     40.92739        -0.007348     -0.016990      0.034498
      8.98141      0.03636     40.90123        -0.010778      0.012225      0.034658
      8.91743      9.08650     40.85887         0.034666      0.016001      0.029717
      4.74272      4.37455     40.93922         0.005192     -0.002704      0.000157
      4.43788     13.65855     40.84106        -0.006851     -0.029116      0.007779
     13.45329      4.81955     40.95076         0.002057      0.012832     -0.026317
     13.52500     13.24456     40.91119         0.016860      0.015994     -0.042391
      2.44159      2.12041     38.03122        -0.001512     -0.023669     -0.006113
      2.65585     10.99257     37.89354        -0.020998     -0.000897     -0.019394
     11.51472      2.04474     38.02642         0.001473     -0.002680     -0.021739
     11.17780     11.39345     37.93199        -0.052088      0.025106      0.011117
      6.63503      6.94170     37.99176         0.017701      0.001209     -0.004747
      6.57318     15.98898     37.83289         0.024024      0.006469     -0.025962
     16.02431      6.62022     38.19912         0.056593      0.034454      0.009923
     15.55802     16.08101     37.90027         0.032238      0.032034      0.001164
      2.29120      6.66032     38.21893        -0.019417     -0.015796     -0.008092
      2.08243     15.76907     37.86121         0.000708      0.001051     -0.010696
     11.07556      6.60138     37.62379        -0.003038      0.016077      0.005501
     11.12030     15.59989     38.27346         0.032636      0.016364     -0.014315
      7.14411      2.50100     37.72658        -0.005621     -0.004153      0.015563
      6.84650     11.45107     37.94103         0.008197     -0.006201      0.002054
     15.93184      2.44278     38.24253        -0.013953     -0.011800      0.028094
     16.28642     11.68564     38.10930         0.010243     -0.004046     -0.017833
      0.00000      0.00000     47.17356         0.001630      0.006618      0.367105
     -0.00246      9.03140     47.17356        -0.000769     -0.009094      0.453922
      9.03040      0.00000     47.17356         0.000985     -0.000960      0.439250
      9.02794      9.03140     47.17356        -0.004249     -0.000351      0.387908
      4.51398      4.51570     47.17425        -0.001482     -0.004966      0.422849
      4.51152     13.54710     47.17425         0.004140      0.004908      0.346648
     13.54438      4.51570     47.17425         0.005606      0.001919      0.417871
     13.54192     13.54710     47.17425        -0.003944      0.000633      0.427386
      2.45192      2.06295     44.04013         0.007069     -0.030406     -0.035586
      2.44946     11.09435     44.04013         0.077947     -0.021396      0.003060
     11.48232      2.06295     44.04013         0.006089      0.014810     -0.075618
     11.47986     11.09435     44.04013        -0.086834      0.016576      0.011280
      6.57602      6.96845     44.04013         0.008057     -0.025112     -0.060172
      6.57356     15.99985     44.04013         0.033612     -0.014742     -0.066509
     15.60642      6.96845     44.04013        -0.000509      0.006922     -0.098601
     15.60396     15.99985     44.04013        -0.045744      0.050846     -0.032523
      2.06108      6.57881     44.04000         0.023577     -0.055230     -0.042931
      2.05862     15.61021     44.04000         0.055165      0.080949     -0.045759
     11.09148      6.57881     44.04000        -0.013823      0.006473     -0.031503
     11.08902     15.61021     44.04000        -0.033449     -0.005091     -0.043606
      6.96686      2.45259     44.04007         0.019357     -0.016442     -0.009369
      6.96440     11.48399     44.04007        -0.030304      0.007316     -0.060563
     15.99726      2.45259     44.04007         0.017674      0.022324     -0.058406
     15.99481     11.48399     44.04007         0.021280     -0.015233     -0.069588
      2.43163      2.08322     50.06849         0.006252     -0.013321      0.021525
      2.42917     11.11462     50.06849         0.019928     -0.003666      0.027352
     11.46203      2.08322     50.06849         0.012544     -0.008292      0.023042
     11.45957     11.11462     50.06849         0.004902     -0.014651      0.026016
      6.59631      6.94818     50.06849        -0.010190      0.009342      0.024347
      6.59385     15.97958     50.06849        -0.014592      0.006437      0.023876
     15.62671      6.94818     50.06849        -0.013189      0.003153      0.022468
     15.62425     15.97958     50.06849        -0.003920      0.019921      0.026931
      2.08113      6.59901     50.06905        -0.005702     -0.016468      0.024351
      2.07867     15.63041     50.06905        -0.008775     -0.007950      0.024627
     11.11153      6.59901     50.06905        -0.011188     -0.010680      0.024938
     11.10907     15.63041     50.06905        -0.012073     -0.007337      0.024909
      6.94681      2.43239     50.06905         0.008690      0.010334      0.023362
      6.94435     11.46379     50.06905         0.007136      0.013940      0.025330
     15.97721      2.43239     50.06905         0.014281      0.007308      0.022612
     15.97475     11.46379     50.06905         0.009326      0.009852      0.027655
     18.00520      0.11916     37.74507        -0.002464     -0.001509     -0.002081
      0.18579      9.04985     37.72499        -0.012087      0.021000      0.000589
      9.06036     17.95228     37.71414        -0.008147     -0.024539     -0.029529
      9.03088      9.03081     37.65760        -0.008895      0.029676      0.018327
      4.61425      4.47810     37.84250         0.031271     -0.004483      0.006576
      4.39471     13.65281     37.67360        -0.004513     -0.010314      0.021353
     13.49870      4.53993     37.85296         0.005809      0.014837     -0.002717
     13.56957     13.68129     37.77369        -0.012745     -0.007179     -0.043379
      0.00001      0.00001     44.04300        -0.048460     -0.115337      0.109120
     -0.00245      9.03141     44.04300         0.062254      0.129734      0.164010
      9.03041      0.00001     44.04300        -0.019664      0.004327      0.067697
      9.02795      9.03141     44.04300         0.056197      0.024900      0.107251
      4.51397      4.51569     44.04275         0.032901      0.040146      0.167288
      4.51151     13.54709     44.04275        -0.090242     -0.033147      0.106709
     13.54437      4.51569     44.04275        -0.073364     -0.024994      0.178614
     13.54191     13.54709     44.04275         0.060938     -0.052697      0.138577
      0.00000      0.00000     50.44728        -0.004704     -0.004389     -0.618280
     -0.00246      9.03140     50.44728        -0.003587      0.004644     -0.644564
      9.03040      0.00000     50.44728         0.004122     -0.001564     -0.636613
      9.02794      9.03140     50.44728         0.004850      0.000780     -0.626859
      4.51397      4.51570     50.44728         0.001575      0.005043     -0.631961
      4.51151     13.54710     50.44728        -0.001069     -0.005313     -0.616550
     13.54437      4.51570     50.44728        -0.001573      0.004885     -0.628319
     13.54191     13.54710     50.44728         0.001947     -0.005057     -0.640624
 -----------------------------------------------------------------------------------
    total drift:                               -0.068380      0.030063      0.596074


--------------------------------------------------------------------------------------------------------



  FREE ENERGIE OF THE ION-ELECTRON SYSTEM (eV)
  ---------------------------------------------------
  free  energy   TOTEN  =     -1576.38062537 eV

  energy  without entropy=    -1576.38062537  energy(sigma->0) =    -1576.38062537
 


--------------------------------------------------------------------------------------------------------


    POTLOK:  cpu time    0.5002: real time    0.5001


--------------------------------------------------------------------------------------------------------


     LOOP+:  cpu time  264.4187: real time  265.2631
 vacuum level on the upper side and lower side of the slab         2.360         1.551
    4ORBIT:  cpu time    0.0000: real time    0.0000

 total amount of memory used by VASP MPI-rank0  8653620. kBytes
=======================================================================

   base      :      30000. kBytes
   nonlr-proj:      53658. kBytes
   fftplans  :     249280. kBytes
   grid      :     701440. kBytes
   one-center:       2636. kBytes
   wavefun   :    7616606. kBytes
 
  
  
 General timing and accounting informations for this job:
 ========================================================
  
                  Total CPU time used (sec):      476.511
                            User time (sec):      389.322
                          System time (sec):       87.189
                         Elapsed time (sec):      480.103
  
                   Maximum memory used (kb):    10308240.
                   Average memory used (kb):          N/A
  
                          Minor page faults:      3542520
                          Major page faults:           12
                 Voluntary context switches:        10769
