<?xml version="1.0" encoding="ISO-8859-1"?>
<modeling>
 <generator>
  <i name="program" type="string">vasp </i>
  <i name="version" type="string">6.2.1  </i>
  <i name="subversion" type="string">16May21 (build Nov 15 2021 14:57:28) complex                          parallel </i>
  <i name="platform" type="string">LinuxPGI </i>
  <i name="date" type="string">2023 07 30 </i>
  <i name="time" type="string">14:26:29 </i>
 </generator>
 <incar>
  <i type="string" name="SYSTEM">PSC</i>
  <i type="int" name="ISTART">     1</i>
  <i type="string" name="PREC">Normal</i>
  <i name="BMIX">      0.01000000</i>
  <i name="AMIN">      0.01000000</i>
  <i type="int" name="ICHARG">     1</i>
  <i type="int" name="NELM">   600</i>
  <i type="int" name="ISYM">     0</i>
  <i name="ENCUT">    500.00000000</i>
  <i type="string" name="LREAL">Auto</i>
  <i type="int" name="ISMEAR">     0</i>
  <i name="SIGMA">      0.05000000</i>
  <i type="logical" name="LWAVE"> F  </i>
  <i type="logical" name="LVTOT"> T  </i>
  <i type="logical" name="GGA_COMPAT"> F  </i>
  <i type="logical" name="LDIPOL"> T  </i>
  <i type="int" name="IDIPOL">     3</i>
  <i type="int" name="IVDW">    12</i>
 </incar>
 <primitive_cell>
  <structure name="primitive_cell" >
   <crystal>
    <varray name="basis" >
     <v>      18.06080055       0.00000000       0.00000000 </v>
     <v>      -0.00491865      18.06279945       0.00000000 </v>
     <v>       0.00000000       0.00000000      62.48749924 </v>
    </varray>
    <i name="volume">  20385.21054034 </i>
    <varray name="rec_basis" >
     <v>       0.05536853       0.00001508      -0.00000000 </v>
     <v>       0.00000000       0.05536240       0.00000000 </v>
     <v>       0.00000000      -0.00000000       0.01600320 </v>
    </varray>
   </crystal>
   <varray name="positions" >
    <v>       0.40779773       0.28417358       0.56099654 </v>
    <v>       0.41601196       0.69524247       0.57115763 </v>
    <v>       0.92513421       0.29286619       0.57946136 </v>
    <v>       0.92666965       0.81488687       0.57281702 </v>
    <v>       0.32263876       0.09115356       0.56305750 </v>
    <v>       0.32457212       0.57234114       0.56832449 </v>
    <v>       0.79835847       0.10337734       0.56489460 </v>
    <v>       0.10950881       0.24142832       0.56196036 </v>
    <v>       0.07867947       0.68275186       0.56912091 </v>
    <v>       0.58381581       0.18574718       0.56503355 </v>
    <v>       0.59909853       0.76354079       0.55901513 </v>
    <v>       0.37816715       0.01697281       0.55414428 </v>
    <v>       0.25527237       0.62206095       0.55484889 </v>
    <v>       0.87441921       0.04916873       0.55599890 </v>
    <v>       0.06339158       0.28919261       0.58185515 </v>
    <v>       0.99251729       0.69402617       0.58128405 </v>
    <v>       0.48939743       0.17337139       0.57011281 </v>
    <v>       0.55244969       0.69521211       0.57352456 </v>
    <v>       0.30756901       0.43682422       0.57177647 </v>
    <v>       0.19052200       0.06782743       0.56876696 </v>
    <v>       0.68297560       0.03280558       0.57342725 </v>
    <v>       0.45687029       0.36534154       0.55449720 </v>
    <v>       0.37429186       0.76014088       0.55427004 </v>
    <v>       0.88439112       0.24407795       0.55844910 </v>
    <v>       0.97298808       0.87345299       0.55522226 </v>
    <v>       0.23246909       0.39757887       0.55854323 </v>
    <v>       0.15592391       0.98284139       0.56068215 </v>
    <v>       0.68289240       0.93902230       0.56566123 </v>
    <v>       0.57127065       0.30619257       0.55489590 </v>
    <v>       0.49014388       0.81270041       0.54482137 </v>
    <v>       0.99967049       0.20391813       0.54477907 </v>
    <v>       0.07054521       0.79180699       0.54963801 </v>
    <v>       0.18823830       0.51323802       0.54681433 </v>
    <v>       0.27357552       0.93855691       0.55091329 </v>
    <v>       0.80355322       0.94121863       0.55440257 </v>
    <v>       0.45494219       0.29699798       0.67293898 </v>
    <v>       0.44213051       0.81521849       0.67061100 </v>
    <v>       0.95712275       0.28427120       0.67663051 </v>
    <v>       0.91310645       0.73922702       0.66385073 </v>
    <v>       0.29694814       0.04130467       0.67502063 </v>
    <v>       0.30099131       0.56094434       0.67318885 </v>
    <v>       0.79745928       0.05139142       0.67553581 </v>
    <v>       0.83264160       0.47197171       0.66590699 </v>
    <v>       0.09100867       0.17063624       0.64718023 </v>
    <v>       0.10825601       0.70019954       0.65464656 </v>
    <v>       0.57715296       0.16427537       0.64627556 </v>
    <v>       0.57325350       0.67350914       0.65194967 </v>
    <v>       0.18512902       0.41153420       0.65125703 </v>
    <v>       0.16415576       0.92947393       0.64424586 </v>
    <v>       0.63473572       0.48404385       0.65401527 </v>
    <v>       0.67253684       0.91832505       0.64942182 </v>
    <v>       0.06328652       0.18837533       0.67338652 </v>
    <v>       0.02486998       0.65528559       0.66070429 </v>
    <v>       0.54754526       0.18824317       0.67177603 </v>
    <v>       0.54348108       0.71369289       0.67572933 </v>
    <v>       0.21253067       0.44699971       0.67584215 </v>
    <v>       0.18380583       0.95236253       0.67073328 </v>
    <v>       0.69778317       0.43485685       0.66978057 </v>
    <v>       0.69681516       0.94679667       0.67497918 </v>
    <v>       0.43649832       0.33727510       0.64829831 </v>
    <v>       0.41718819       0.82971680       0.64390174 </v>
    <v>       0.92640866       0.31894612       0.65228592 </v>
    <v>       0.92843065       0.83161371       0.65788525 </v>
    <v>       0.34238440       0.06204602       0.65148681 </v>
    <v>       0.32029151       0.58791377       0.64698213 </v>
    <v>       0.82601099       0.07966327       0.65007253 </v>
    <v>       0.84971492       0.54481147       0.64809624 </v>
    <v>       0.00677663       0.25155220       0.63190904 </v>
    <v>       0.05295465       0.81528143       0.65056439 </v>
    <v>       0.51117728       0.25607554       0.62927003 </v>
    <v>       0.49658515       0.74183755       0.63043237 </v>
    <v>       0.26180175       0.99486754       0.63018207 </v>
    <v>       0.24986143       0.49640580       0.63131981 </v>
    <v>       0.75121076       0.99826444       0.63205299 </v>
    <v>       0.72620900       0.55716196       0.63849789 </v>
    <v>       0.44874502       0.30128397       0.76888902 </v>
    <v>       0.44874501       0.80128391       0.76888902 </v>
    <v>       0.94874497       0.30128397       0.76888902 </v>
    <v>       0.94874501       0.80128391       0.76888902 </v>
    <v>       0.30127600       0.05129450       0.76887296 </v>
    <v>       0.30127601       0.55129450       0.76887296 </v>
    <v>       0.80127594       0.05129450       0.76887296 </v>
    <v>       0.80127598       0.55129450       0.76887296 </v>
    <v>       0.07877100       0.17118050       0.74344197 </v>
    <v>       0.07877101       0.67118045       0.74344197 </v>
    <v>       0.57877100       0.17118050       0.74344197 </v>
    <v>       0.57877099       0.67118045       0.74344197 </v>
    <v>       0.17119950       0.42117448       0.74342103 </v>
    <v>       0.17119950       0.92117451       0.74342103 </v>
    <v>       0.67119951       0.42117448       0.74342103 </v>
    <v>       0.67119950       0.92117451       0.74342103 </v>
    <v>       0.05125600       0.19871499       0.76888902 </v>
    <v>       0.05125600       0.69871493       0.76888902 </v>
    <v>       0.55125603       0.19871499       0.76888902 </v>
    <v>       0.55125602       0.69871493       0.76888902 </v>
    <v>       0.19872349       0.44870397       0.76887205 </v>
    <v>       0.19872349       0.94870397       0.76887205 </v>
    <v>       0.69872352       0.44870397       0.76887205 </v>
    <v>       0.69872351       0.94870397       0.76887205 </v>
    <v>       0.42123152       0.32881747       0.74344197 </v>
    <v>       0.42123151       0.82881744       0.74344197 </v>
    <v>       0.92123147       0.32881747       0.74344197 </v>
    <v>       0.92123151       0.82881744       0.74344197 </v>
    <v>       0.32880050       0.07882500       0.74342103 </v>
    <v>       0.32880049       0.57882496       0.74342103 </v>
    <v>       0.82880048       0.07882500       0.74342103 </v>
    <v>       0.82880052       0.57882496       0.74342103 </v>
    <v>       0.00000350       0.25000148       0.72582199 </v>
    <v>       0.00000350       0.75000145       0.72582199 </v>
    <v>       0.50000351       0.25000148       0.72582199 </v>
    <v>       0.50000350       0.75000145       0.72582199 </v>
    <v>       0.25000050       0.00000000       0.72580398 </v>
    <v>       0.25000052       0.50000000       0.72580398 </v>
    <v>       0.75000050       0.00000000       0.72580398 </v>
    <v>       0.75000049       0.50000000       0.72580398 </v>
    <v>       0.79914025       0.50791459       0.51392841 </v>
    <v>       0.87818331       0.50015459       0.53080398 </v>
    <v>       0.75778268       0.61828576       0.53213201 </v>
    <v>       0.75572223       0.62021440       0.56039108 </v>
    <v>       0.68730448       0.44207986       0.54927478 </v>
    <v>       0.66813822       0.53398831       0.55716405 </v>
    <v>       0.79616214       0.42205839       0.56623270 </v>
    <v>       0.86384079       0.49176599       0.56833413 </v>
    <v>       0.85775818       0.37323179       0.53854308 </v>
    <v>       0.76337664       0.37592553       0.53185558 </v>
    <v>       0.78551423       0.38317257       0.49441572 </v>
    <v>       0.87895200       0.40974058       0.49721157 </v>
    <v>       0.89606124       0.61640890       0.53209440 </v>
    <v>       0.89722244       0.60531125       0.56044626 </v>
    <v>       0.86226982       0.68811990       0.54899127 </v>
    <v>       0.60092283       0.50582327       0.52479991 </v>
    <v>       0.68098409       0.48041754       0.51034713 </v>
    <v>       0.66668506       0.57409455       0.51861813 </v>
    <v>       0.70424802       0.49944198       0.58719679 </v>
    <v>       0.77503443       0.56839457       0.59058175 </v>
    <v>       0.78571007       0.47913915       0.60127212 </v>
    <v>       0.82169183       0.25827762       0.51189444 </v>
    <v>       0.84830272       0.27463459       0.48534824 </v>
    <v>       0.92460517       0.15888716       0.49869154 </v>
    <v>       0.97374414       0.38455067       0.51653721 </v>
    <v>       0.05616115       0.12579449       0.50378030 </v>
    <v>       0.10381786       0.35119955       0.52154584 </v>
    <v>       0.14774651       0.22246328       0.51496976 </v>
    <v>       0.99698275       0.23866130       0.55917117 </v>
    <v>       0.02462350       0.77573743       0.56007479 </v>
    <v>       0.52114628       0.27490832       0.55859177 </v>
    <v>       0.48670672       0.76396333       0.55519442 </v>
    <v>       0.24083510       0.50985036       0.55556498 </v>
    <v>       0.26732213       0.99575549       0.55660980 </v>
    <v>       0.77863385       0.99299607       0.56024627 </v>
    <v>       0.00845243       0.24489029       0.64927500 </v>
    <v>       0.01926613       0.76789111       0.65548694 </v>
    <v>       0.50667843       0.25105408       0.64663062 </v>
    <v>       0.49490663       0.75115735       0.64770676 </v>
    <v>       0.25292746       0.49965386       0.64874792 </v>
    <v>       0.25262233       0.99623091       0.64742405 </v>
    <v>       0.74158617       0.51521920       0.65036287 </v>
    <v>       0.74971603       0.99875715       0.64952017 </v>
    <v>       0.49998898       0.24999498       0.74327702 </v>
    <v>       0.49998903       0.74999496       0.74327702 </v>
    <v>       0.99998898       0.24999498       0.74327702 </v>
    <v>       0.99998903       0.74999496       0.74327702 </v>
    <v>       0.25000050       0.00000100       0.74325596 </v>
    <v>       0.25000052       0.50000100       0.74325596 </v>
    <v>       0.75000050       0.00000100       0.74325596 </v>
    <v>       0.75000049       0.50000100       0.74325596 </v>
    <v>       0.93869265       0.27452894       0.50676622 </v>
    <v>       0.96421067       0.20150270       0.50347192 </v>
    <v>       0.99061089       0.32764554       0.51323687 </v>
    <v>       0.03827500       0.18277335       0.50624682 </v>
    <v>       0.06529319       0.30876667       0.51606147 </v>
    <v>       0.08977813       0.23678389       0.51236981 </v>
    <v>       0.82065634       0.48179762       0.52866635 </v>
    <v>       0.78682747       0.59942267       0.54654663 </v>
    <v>       0.69464650       0.50007434       0.54480831 </v>
    <v>       0.80394975       0.48190158       0.56780760 </v>
    <v>       0.81796320       0.39764643       0.52725475 </v>
    <v>       0.83553157       0.37359881       0.50420873 </v>
    <v>       0.86567683       0.62768681       0.54695016 </v>
    <v>       0.66051555       0.51613456       0.52322227 </v>
    <v>       0.76427678       0.50990242       0.58746949 </v>
    <v>       0.85842777       0.29272889       0.50189543 </v>
    <v>       0.05971397       0.25681460       0.56846740 </v>
    <v>       0.03041225       0.71212486       0.57003858 </v>
    <v>       0.53080589       0.20507275       0.56363751 </v>
    <v>       0.54959969       0.73736348       0.56250643 </v>
    <v>       0.45744426       0.30928419       0.55725727 </v>
    <v>       0.42179174       0.73629369       0.55992156 </v>
    <v>       0.93174893       0.26000073       0.56611219 </v>
    <v>       0.96762867       0.82088163       0.56148224 </v>
    <v>       0.26255894       0.44396606       0.56203234 </v>
    <v>       0.20026464       0.01749654       0.56197190 </v>
    <v>       0.70869757       0.98933081       0.56611836 </v>
    <v>       0.32629132       0.03827154       0.55737045 </v>
    <v>       0.27727624       0.57135509       0.55931988 </v>
    <v>       0.81965738       0.05322398       0.56055200 </v>
    <v>       0.05674104       0.19829195       0.65732959 </v>
    <v>       0.05248967       0.70331192       0.65717075 </v>
    <v>       0.54598464       0.19809600       0.65569041 </v>
    <v>       0.53933171       0.71016083       0.65946070 </v>
    <v>       0.21503653       0.44992766       0.65957327 </v>
    <v>       0.19697063       0.95764796       0.65490742 </v>
    <v>       0.68888132       0.47455652       0.65847759 </v>
    <v>       0.70445035       0.95166982       0.65888410 </v>
    <v>       0.46368110       0.29766207       0.65676851 </v>
    <v>       0.44831137       0.80124474       0.65483221 </v>
    <v>       0.96127411       0.28498439       0.66037873 </v>
    <v>       0.94871814       0.77925898       0.65898758 </v>
    <v>       0.29884842       0.03554506       0.65884711 </v>
    <v>       0.29355372       0.55241561       0.65702607 </v>
    <v>       0.79302921       0.04633247       0.65921889 </v>
    <v>       0.81268091       0.51037232       0.65529946 </v>
    <v>       0.04586250       0.20411950       0.75272599 </v>
    <v>       0.04586250       0.70411946       0.75272599 </v>
    <v>       0.54586251       0.20411950       0.75272599 </v>
    <v>       0.54586250       0.70411946       0.75272599 </v>
    <v>       0.20411900       0.45410100       0.75270499 </v>
    <v>       0.20411899       0.95410095       0.75270499 </v>
    <v>       0.70411898       0.45410100       0.75270499 </v>
    <v>       0.70411896       0.95410095       0.75270499 </v>
    <v>       0.45414002       0.29588849       0.75272697 </v>
    <v>       0.45414001       0.79588852       0.75272697 </v>
    <v>       0.95414002       0.29588849       0.75272697 </v>
    <v>       0.95414006       0.79588852       0.75272697 </v>
    <v>       0.29588249       0.04590050       0.75270499 </v>
    <v>       0.29588248       0.54590053       0.75270499 </v>
    <v>       0.79588244       0.04590050       0.75270499 </v>
    <v>       0.79588248       0.54590053       0.75270499 </v>
    <v>       0.77700010       0.51567479       0.54684656 </v>
    <v>       0.51284326       0.98278823       0.55310709 </v>
    <v>       0.47453840       0.51112627       0.55307528 </v>
    <v>       0.00693177       0.01282455       0.55129075 </v>
    <v>       0.03095174       0.48775880       0.55430093 </v>
    <v>       0.25890742       0.23978716       0.55404649 </v>
    <v>       0.23002391       0.76572851       0.55069608 </v>
    <v>       0.73440294       0.23062361       0.55450196 </v>
    <v>       0.73276885       0.79510289       0.55411669 </v>
    <v>       0.99605755       0.98480079       0.65420165 </v>
    <v>       0.01015132       0.50501008       0.65496926 </v>
    <v>       0.49728787       0.00201278       0.65455066 </v>
    <v>       0.49388221       0.50305055       0.65387266 </v>
    <v>       0.26266330       0.24218541       0.65515857 </v>
    <v>       0.24592462       0.75617012       0.65358763 </v>
    <v>       0.74496173       0.26682203       0.65534323 </v>
    <v>       0.74905890       0.73325069       0.65471005 </v>
    <v>       0.13521921       0.11739115       0.60862124 </v>
    <v>       0.14721634       0.60857515       0.60641786 </v>
    <v>       0.63758375       0.11320156       0.60854445 </v>
    <v>       0.61906995       0.63076893       0.60703328 </v>
    <v>       0.36747646       0.38430907       0.60798971 </v>
    <v>       0.36418814       0.88518839       0.60544727 </v>
    <v>       0.88734228       0.36651141       0.61130818 </v>
    <v>       0.86166694       0.89028310       0.60652561 </v>
    <v>       0.12696093       0.36873116       0.61162514 </v>
    <v>       0.11553912       0.87301387       0.60590048 </v>
    <v>       0.61333716       0.36546844       0.60210102 </v>
    <v>       0.61594969       0.86364766       0.61249787 </v>
    <v>       0.39559641       0.13846142       0.60374600 </v>
    <v>       0.37925338       0.63395865       0.60717796 </v>
    <v>       0.88215941       0.13523815       0.61200296 </v>
    <v>       0.90193139       0.64694514       0.60987076 </v>
    <v>       0.00000000       0.00000000       0.75492797 </v>
    <v>       0.00000000       0.50000000       0.75492797 </v>
    <v>       0.50000000       0.00000000       0.75492797 </v>
    <v>       0.49999999       0.50000000       0.75492797 </v>
    <v>       0.25000050       0.25000000       0.75493902 </v>
    <v>       0.25000051       0.74999997       0.75493902 </v>
    <v>       0.75000047       0.25000000       0.75493902 </v>
    <v>       0.75000046       0.74999997       0.75493902 </v>
    <v>       0.13579050       0.11421000       0.70478299 </v>
    <v>       0.13579050       0.61420998       0.70478299 </v>
    <v>       0.63579045       0.11421000       0.70478299 </v>
    <v>       0.63579049       0.61420998       0.70478299 </v>
    <v>       0.36420952       0.38578999       0.70478299 </v>
    <v>       0.36420950       0.88578996       0.70478299 </v>
    <v>       0.86420954       0.38578999       0.70478299 </v>
    <v>       0.86420953       0.88578996       0.70478299 </v>
    <v>       0.11421799       0.36421899       0.70478098 </v>
    <v>       0.11421799       0.86421899       0.70478098 </v>
    <v>       0.61421800       0.36421899       0.70478098 </v>
    <v>       0.61421799       0.86421899       0.70478098 </v>
    <v>       0.38578201       0.13578149       0.70478202 </v>
    <v>       0.38578200       0.63578149       0.70478202 </v>
    <v>       0.88578199       0.13578149       0.70478202 </v>
    <v>       0.88578203       0.63578149       0.70478202 </v>
    <v>       0.13466700       0.11533200       0.80125603 </v>
    <v>       0.13466699       0.61533199       0.80125603 </v>
    <v>       0.63466699       0.11533200       0.80125603 </v>
    <v>       0.63466698       0.61533199       0.80125603 </v>
    <v>       0.36533300       0.38466799       0.80125603 </v>
    <v>       0.36533299       0.88466796       0.80125603 </v>
    <v>       0.86533295       0.38466799       0.80125603 </v>
    <v>       0.86533294       0.88466796       0.80125603 </v>
    <v>       0.11532850       0.36533700       0.80126500 </v>
    <v>       0.11532850       0.86533698       0.80126500 </v>
    <v>       0.61532850       0.36533700       0.80126500 </v>
    <v>       0.61532849       0.86533698       0.80126500 </v>
    <v>       0.38467151       0.13466300       0.80126500 </v>
    <v>       0.38467150       0.63466297       0.80126500 </v>
    <v>       0.88467149       0.13466300       0.80126500 </v>
    <v>       0.88467153       0.63466297       0.80126500 </v>
    <v>       0.99692343       0.00659671       0.60404190 </v>
    <v>       0.01042353       0.50102137       0.60372061 </v>
    <v>       0.50192973       0.99388138       0.60354693 </v>
    <v>       0.50016288       0.49996737       0.60264220 </v>
    <v>       0.25555156       0.24791824       0.60560111 </v>
    <v>       0.24353454       0.75585260       0.60289824 </v>
    <v>       0.74747191       0.25134117       0.60576856 </v>
    <v>       0.75153347       0.75742924       0.60450000 </v>
    <v>       0.00000050       0.00000050       0.70482896 </v>
    <v>       0.00000050       0.50000048       0.70482896 </v>
    <v>       0.50000048       0.00000050       0.70482896 </v>
    <v>       0.50000046       0.50000048       0.70482896 </v>
    <v>       0.24999999       0.24999947       0.70482499 </v>
    <v>       0.25000001       0.74999950       0.70482499 </v>
    <v>       0.74999999       0.24999947       0.70482499 </v>
    <v>       0.74999998       0.74999950       0.70482499 </v>
    <v>       0.00000000       0.00000000       0.80731797 </v>
    <v>       0.00000000       0.50000000       0.80731797 </v>
    <v>       0.50000000       0.00000000       0.80731797 </v>
    <v>       0.49999999       0.50000000       0.80731797 </v>
    <v>       0.24999999       0.25000000       0.80731797 </v>
    <v>       0.25000001       0.74999997       0.80731797 </v>
    <v>       0.74999999       0.25000000       0.80731797 </v>
    <v>       0.74999998       0.74999997       0.80731797 </v>
   </varray>
  </structure>
  <varray name="primitive_index" >
   <v type="int" >        1 </v>
   <v type="int" >        2 </v>
   <v type="int" >        3 </v>
   <v type="int" >        4 </v>
   <v type="int" >        5 </v>
   <v type="int" >        6 </v>
   <v type="int" >        7 </v>
   <v type="int" >        8 </v>
   <v type="int" >        9 </v>
   <v type="int" >       10 </v>
   <v type="int" >       11 </v>
   <v type="int" >       12 </v>
   <v type="int" >       13 </v>
   <v type="int" >       14 </v>
   <v type="int" >       15 </v>
   <v type="int" >       16 </v>
   <v type="int" >       17 </v>
   <v type="int" >       18 </v>
   <v type="int" >       19 </v>
   <v type="int" >       20 </v>
   <v type="int" >       21 </v>
   <v type="int" >       22 </v>
   <v type="int" >       23 </v>
   <v type="int" >       24 </v>
   <v type="int" >       25 </v>
   <v type="int" >       26 </v>
   <v type="int" >       27 </v>
   <v type="int" >       28 </v>
   <v type="int" >       29 </v>
   <v type="int" >       30 </v>
   <v type="int" >       31 </v>
   <v type="int" >       32 </v>
   <v type="int" >       33 </v>
   <v type="int" >       34 </v>
   <v type="int" >       35 </v>
   <v type="int" >       36 </v>
   <v type="int" >       37 </v>
   <v type="int" >       38 </v>
   <v type="int" >       39 </v>
   <v type="int" >       40 </v>
   <v type="int" >       41 </v>
   <v type="int" >       42 </v>
   <v type="int" >       43 </v>
   <v type="int" >       44 </v>
   <v type="int" >       45 </v>
   <v type="int" >       46 </v>
   <v type="int" >       47 </v>
   <v type="int" >       48 </v>
   <v type="int" >       49 </v>
   <v type="int" >       50 </v>
   <v type="int" >       51 </v>
   <v type="int" >       52 </v>
   <v type="int" >       53 </v>
   <v type="int" >       54 </v>
   <v type="int" >       55 </v>
   <v type="int" >       56 </v>
   <v type="int" >       57 </v>
   <v type="int" >       58 </v>
   <v type="int" >       59 </v>
   <v type="int" >       60 </v>
   <v type="int" >       61 </v>
   <v type="int" >       62 </v>
   <v type="int" >       63 </v>
   <v type="int" >       64 </v>
   <v type="int" >       65 </v>
   <v type="int" >       66 </v>
   <v type="int" >       67 </v>
   <v type="int" >       68 </v>
   <v type="int" >       69 </v>
   <v type="int" >       70 </v>
   <v type="int" >       71 </v>
   <v type="int" >       72 </v>
   <v type="int" >       73 </v>
   <v type="int" >       74 </v>
   <v type="int" >       75 </v>
   <v type="int" >       76 </v>
   <v type="int" >       77 </v>
   <v type="int" >       78 </v>
   <v type="int" >       79 </v>
   <v type="int" >       80 </v>
   <v type="int" >       81 </v>
   <v type="int" >       82 </v>
   <v type="int" >       83 </v>
   <v type="int" >       84 </v>
   <v type="int" >       85 </v>
   <v type="int" >       86 </v>
   <v type="int" >       87 </v>
   <v type="int" >       88 </v>
   <v type="int" >       89 </v>
   <v type="int" >       90 </v>
   <v type="int" >       91 </v>
   <v type="int" >       92 </v>
   <v type="int" >       93 </v>
   <v type="int" >       94 </v>
   <v type="int" >       95 </v>
   <v type="int" >       96 </v>
   <v type="int" >       97 </v>
   <v type="int" >       98 </v>
   <v type="int" >       99 </v>
   <v type="int" >      100 </v>
   <v type="int" >      101 </v>
   <v type="int" >      102 </v>
   <v type="int" >      103 </v>
   <v type="int" >      104 </v>
   <v type="int" >      105 </v>
   <v type="int" >      106 </v>
   <v type="int" >      107 </v>
   <v type="int" >      108 </v>
   <v type="int" >      109 </v>
   <v type="int" >      110 </v>
   <v type="int" >      111 </v>
   <v type="int" >      112 </v>
   <v type="int" >      113 </v>
   <v type="int" >      114 </v>
   <v type="int" >      115 </v>
   <v type="int" >      116 </v>
   <v type="int" >      117 </v>
   <v type="int" >      118 </v>
   <v type="int" >      119 </v>
   <v type="int" >      120 </v>
   <v type="int" >      121 </v>
   <v type="int" >      122 </v>
   <v type="int" >      123 </v>
   <v type="int" >      124 </v>
   <v type="int" >      125 </v>
   <v type="int" >      126 </v>
   <v type="int" >      127 </v>
   <v type="int" >      128 </v>
   <v type="int" >      129 </v>
   <v type="int" >      130 </v>
   <v type="int" >      131 </v>
   <v type="int" >      132 </v>
   <v type="int" >      133 </v>
   <v type="int" >      134 </v>
   <v type="int" >      135 </v>
   <v type="int" >      136 </v>
   <v type="int" >      137 </v>
   <v type="int" >      138 </v>
   <v type="int" >      139 </v>
   <v type="int" >      140 </v>
   <v type="int" >      141 </v>
   <v type="int" >      142 </v>
   <v type="int" >      143 </v>
   <v type="int" >      144 </v>
   <v type="int" >      145 </v>
   <v type="int" >      146 </v>
   <v type="int" >      147 </v>
   <v type="int" >      148 </v>
   <v type="int" >      149 </v>
   <v type="int" >      150 </v>
   <v type="int" >      151 </v>
   <v type="int" >      152 </v>
   <v type="int" >      153 </v>
   <v type="int" >      154 </v>
   <v type="int" >      155 </v>
   <v type="int" >      156 </v>
   <v type="int" >      157 </v>
   <v type="int" >      158 </v>
   <v type="int" >      159 </v>
   <v type="int" >      160 </v>
   <v type="int" >      161 </v>
   <v type="int" >      162 </v>
   <v type="int" >      163 </v>
   <v type="int" >      164 </v>
   <v type="int" >      165 </v>
   <v type="int" >      166 </v>
   <v type="int" >      167 </v>
   <v type="int" >      168 </v>
   <v type="int" >      169 </v>
   <v type="int" >      170 </v>
   <v type="int" >      171 </v>
   <v type="int" >      172 </v>
   <v type="int" >      173 </v>
   <v type="int" >      174 </v>
   <v type="int" >      175 </v>
   <v type="int" >      176 </v>
   <v type="int" >      177 </v>
   <v type="int" >      178 </v>
   <v type="int" >      179 </v>
   <v type="int" >      180 </v>
   <v type="int" >      181 </v>
   <v type="int" >      182 </v>
   <v type="int" >      183 </v>
   <v type="int" >      184 </v>
   <v type="int" >      185 </v>
   <v type="int" >      186 </v>
   <v type="int" >      187 </v>
   <v type="int" >      188 </v>
   <v type="int" >      189 </v>
   <v type="int" >      190 </v>
   <v type="int" >      191 </v>
   <v type="int" >      192 </v>
   <v type="int" >      193 </v>
   <v type="int" >      194 </v>
   <v type="int" >      195 </v>
   <v type="int" >      196 </v>
   <v type="int" >      197 </v>
   <v type="int" >      198 </v>
   <v type="int" >      199 </v>
   <v type="int" >      200 </v>
   <v type="int" >      201 </v>
   <v type="int" >      202 </v>
   <v type="int" >      203 </v>
   <v type="int" >      204 </v>
   <v type="int" >      205 </v>
   <v type="int" >      206 </v>
   <v type="int" >      207 </v>
   <v type="int" >      208 </v>
   <v type="int" >      209 </v>
   <v type="int" >      210 </v>
   <v type="int" >      211 </v>
   <v type="int" >      212 </v>
   <v type="int" >      213 </v>
   <v type="int" >      214 </v>
   <v type="int" >      215 </v>
   <v type="int" >      216 </v>
   <v type="int" >      217 </v>
   <v type="int" >      218 </v>
   <v type="int" >      219 </v>
   <v type="int" >      220 </v>
   <v type="int" >      221 </v>
   <v type="int" >      222 </v>
   <v type="int" >      223 </v>
   <v type="int" >      224 </v>
   <v type="int" >      225 </v>
   <v type="int" >      226 </v>
   <v type="int" >      227 </v>
   <v type="int" >      228 </v>
   <v type="int" >      229 </v>
   <v type="int" >      230 </v>
   <v type="int" >      231 </v>
   <v type="int" >      232 </v>
   <v type="int" >      233 </v>
   <v type="int" >      234 </v>
   <v type="int" >      235 </v>
   <v type="int" >      236 </v>
   <v type="int" >      237 </v>
   <v type="int" >      238 </v>
   <v type="int" >      239 </v>
   <v type="int" >      240 </v>
   <v type="int" >      241 </v>
   <v type="int" >      242 </v>
   <v type="int" >      243 </v>
   <v type="int" >      244 </v>
   <v type="int" >      245 </v>
   <v type="int" >      246 </v>
   <v type="int" >      247 </v>
   <v type="int" >      248 </v>
   <v type="int" >      249 </v>
   <v type="int" >      250 </v>
   <v type="int" >      251 </v>
   <v type="int" >      252 </v>
   <v type="int" >      253 </v>
   <v type="int" >      254 </v>
   <v type="int" >      255 </v>
   <v type="int" >      256 </v>
   <v type="int" >      257 </v>
   <v type="int" >      258 </v>
   <v type="int" >      259 </v>
   <v type="int" >      260 </v>
   <v type="int" >      261 </v>
   <v type="int" >      262 </v>
   <v type="int" >      263 </v>
   <v type="int" >      264 </v>
   <v type="int" >      265 </v>
   <v type="int" >      266 </v>
   <v type="int" >      267 </v>
   <v type="int" >      268 </v>
   <v type="int" >      269 </v>
   <v type="int" >      270 </v>
   <v type="int" >      271 </v>
   <v type="int" >      272 </v>
   <v type="int" >      273 </v>
   <v type="int" >      274 </v>
   <v type="int" >      275 </v>
   <v type="int" >      276 </v>
   <v type="int" >      277 </v>
   <v type="int" >      278 </v>
   <v type="int" >      279 </v>
   <v type="int" >      280 </v>
   <v type="int" >      281 </v>
   <v type="int" >      282 </v>
   <v type="int" >      283 </v>
   <v type="int" >      284 </v>
   <v type="int" >      285 </v>
   <v type="int" >      286 </v>
   <v type="int" >      287 </v>
   <v type="int" >      288 </v>
   <v type="int" >      289 </v>
   <v type="int" >      290 </v>
   <v type="int" >      291 </v>
   <v type="int" >      292 </v>
   <v type="int" >      293 </v>
   <v type="int" >      294 </v>
   <v type="int" >      295 </v>
   <v type="int" >      296 </v>
   <v type="int" >      297 </v>
   <v type="int" >      298 </v>
   <v type="int" >      299 </v>
   <v type="int" >      300 </v>
   <v type="int" >      301 </v>
   <v type="int" >      302 </v>
   <v type="int" >      303 </v>
   <v type="int" >      304 </v>
   <v type="int" >      305 </v>
   <v type="int" >      306 </v>
   <v type="int" >      307 </v>
   <v type="int" >      308 </v>
   <v type="int" >      309 </v>
   <v type="int" >      310 </v>
   <v type="int" >      311 </v>
   <v type="int" >      312 </v>
   <v type="int" >      313 </v>
   <v type="int" >      314 </v>
   <v type="int" >      315 </v>
   <v type="int" >      316 </v>
   <v type="int" >      317 </v>
   <v type="int" >      318 </v>
   <v type="int" >      319 </v>
   <v type="int" >      320 </v>
   <v type="int" >      321 </v>
   <v type="int" >      322 </v>
   <v type="int" >      323 </v>
   <v type="int" >      324 </v>
   <v type="int" >      325 </v>
  </varray>
 </primitive_cell>
 <kpoints>
  <generation param="Gamma">
   <v type="int" name="divisions">       3        3        1 </v>
   <v name="usershift">      0.00000000       0.00000000       0.00000000 </v>
   <v name="genvec1">      0.33333333       0.00000000       0.00000000 </v>
   <v name="genvec2">      0.00000000       0.33333333       0.00000000 </v>
   <v name="genvec3">      0.00000000       0.00000000       1.00000000 </v>
   <v name="shift">      0.00000000       0.00000000       0.00000000 </v>
  </generation>
  <varray name="kpointlist" >
   <v>       0.00000000       0.00000000       0.00000000 </v>
   <v>       0.33333333       0.00000000       0.00000000 </v>
   <v>       0.00000000       0.33333333       0.00000000 </v>
   <v>       0.33333333       0.33333333       0.00000000 </v>
   <v>      -0.33333333       0.33333333       0.00000000 </v>
  </varray>
  <varray name="weights" >
   <v>       0.11111111 </v>
   <v>       0.22222222 </v>
   <v>       0.22222222 </v>
   <v>       0.22222222 </v>
   <v>       0.22222222 </v>
  </varray>
 </kpoints>
 <parameters>
  <separator name="general" >
   <i type="string" name="SYSTEM">PSC</i>
   <i type="logical" name="LCOMPAT"> F  </i>
  </separator>
  <separator name="electronic" >
   <i type="string" name="PREC">normal</i>
   <i name="ENMAX">    500.00000000</i>
   <i name="ENAUG">    644.87300000</i>
   <i name="EDIFF">      0.00010000</i>
   <i type="int" name="IALGO">    38</i>
   <i type="int" name="IWAVPR">    10</i>
   <i type="int" name="NBANDS">   732</i>
   <i type="int" name="NBANDSLOW">    -1</i>
   <i type="int" name="NBANDSHIGH">    -1</i>
   <i name="NELECT">   1134.00000000</i>
   <i type="int" name="TURBO">     0</i>
   <i type="int" name="IRESTART">     0</i>
   <i type="int" name="NREBOOT">     0</i>
   <i type="int" name="NMIN">     0</i>
   <i name="EREF">      0.00000000</i>
   <separator name="electronic smearing" >
    <i type="int" name="ISMEAR">     0</i>
    <i name="SIGMA">      0.05000000</i>
    <i name="KSPACING">      0.50000000</i>
    <i type="logical" name="KGAMMA"> T  </i>
    <i type="logical" name="KBLOWUP"> T  </i>
   </separator>
   <separator name="electronic projectors" >
    <i type="logical" name="LREAL"> T  </i>
    <v name="ROPT">     -0.00050000     -0.00050000     -0.00050000     -0.00050000     -0.00050000</v>
    <i type="int" name="LMAXPAW">  -100</i>
    <i type="int" name="LMAXMIX">     2</i>
    <i type="logical" name="NLSPLINE"> F  </i>
   </separator>
   <separator name="electronic startup" >
    <i type="int" name="ISTART">     0</i>
    <i type="int" name="ICHARG">     1</i>
    <i type="int" name="INIWAV">     1</i>
   </separator>
   <separator name="electronic spin" >
    <i type="int" name="ISPIN">     1</i>
    <i type="logical" name="LNONCOLLINEAR"> F  </i>
    <v name="MAGMOM">      1.00000000      1.00000000      1.00000000      1.00000000      1.00000000      1.00000000      1.00000000      1.00000000      1.00000000      1.00000000      1.00000000      1.00000000      1.00000000      1.00000000      1.00000000      1.00000000      1.00000000      1.00000000      1.00000000      1.00000000
      1.00000000      1.00000000      1.00000000      1.00000000      1.00000000      1.00000000      1.00000000      1.00000000      1.00000000      1.00000000      1.00000000      1.00000000      1.00000000      1.00000000      1.00000000      1.00000000      1.00000000      1.00000000      1.00000000      1.00000000
      1.00000000      1.00000000      1.00000000      1.00000000      1.00000000      1.00000000      1.00000000      1.00000000      1.00000000      1.00000000      1.00000000      1.00000000      1.00000000      1.00000000      1.00000000      1.00000000      1.00000000      1.00000000      1.00000000      1.00000000
      1.00000000      1.00000000      1.00000000      1.00000000      1.00000000      1.00000000      1.00000000      1.00000000      1.00000000      1.00000000      1.00000000      1.00000000      1.00000000      1.00000000      1.00000000      1.00000000      1.00000000      1.00000000      1.00000000      1.00000000
      1.00000000      1.00000000      1.00000000      1.00000000      1.00000000      1.00000000      1.00000000      1.00000000      1.00000000      1.00000000      1.00000000      1.00000000      1.00000000      1.00000000      1.00000000      1.00000000      1.00000000      1.00000000      1.00000000      1.00000000
      1.00000000      1.00000000      1.00000000      1.00000000      1.00000000      1.00000000      1.00000000      1.00000000      1.00000000      1.00000000      1.00000000      1.00000000      1.00000000      1.00000000      1.00000000      1.00000000      1.00000000      1.00000000      1.00000000      1.00000000
      1.00000000      1.00000000      1.00000000      1.00000000      1.00000000      1.00000000      1.00000000      1.00000000      1.00000000      1.00000000      1.00000000      1.00000000      1.00000000      1.00000000      1.00000000      1.00000000      1.00000000      1.00000000      1.00000000      1.00000000
      1.00000000      1.00000000      1.00000000      1.00000000      1.00000000      1.00000000      1.00000000      1.00000000      1.00000000      1.00000000      1.00000000      1.00000000      1.00000000      1.00000000      1.00000000      1.00000000      1.00000000      1.00000000      1.00000000      1.00000000
      1.00000000      1.00000000      1.00000000      1.00000000      1.00000000      1.00000000      1.00000000      1.00000000      1.00000000      1.00000000      1.00000000      1.00000000      1.00000000      1.00000000      1.00000000      1.00000000      1.00000000      1.00000000      1.00000000      1.00000000
      1.00000000      1.00000000      1.00000000      1.00000000      1.00000000      1.00000000      1.00000000      1.00000000      1.00000000      1.00000000      1.00000000      1.00000000      1.00000000      1.00000000      1.00000000      1.00000000      1.00000000      1.00000000      1.00000000      1.00000000
      1.00000000      1.00000000      1.00000000      1.00000000      1.00000000      1.00000000      1.00000000      1.00000000      1.00000000      1.00000000      1.00000000      1.00000000      1.00000000      1.00000000      1.00000000      1.00000000      1.00000000      1.00000000      1.00000000      1.00000000
      1.00000000      1.00000000      1.00000000      1.00000000      1.00000000      1.00000000      1.00000000      1.00000000      1.00000000      1.00000000      1.00000000      1.00000000      1.00000000      1.00000000      1.00000000      1.00000000      1.00000000      1.00000000      1.00000000      1.00000000
      1.00000000      1.00000000      1.00000000      1.00000000      1.00000000      1.00000000      1.00000000      1.00000000      1.00000000      1.00000000      1.00000000      1.00000000      1.00000000      1.00000000      1.00000000      1.00000000      1.00000000      1.00000000      1.00000000      1.00000000
      1.00000000      1.00000000      1.00000000      1.00000000      1.00000000      1.00000000      1.00000000      1.00000000      1.00000000      1.00000000      1.00000000      1.00000000      1.00000000      1.00000000      1.00000000      1.00000000      1.00000000      1.00000000      1.00000000      1.00000000
      1.00000000      1.00000000      1.00000000      1.00000000      1.00000000      1.00000000      1.00000000      1.00000000      1.00000000      1.00000000      1.00000000      1.00000000      1.00000000      1.00000000      1.00000000      1.00000000      1.00000000      1.00000000      1.00000000      1.00000000
      1.00000000      1.00000000      1.00000000      1.00000000      1.00000000      1.00000000      1.00000000      1.00000000      1.00000000      1.00000000      1.00000000      1.00000000      1.00000000      1.00000000      1.00000000      1.00000000      1.00000000      1.00000000      1.00000000      1.00000000
      1.00000000      1.00000000      1.00000000      1.00000000      1.00000000</v>
    <i name="NUPDOWN">     -1.00000000</i>
    <i type="logical" name="LSORBIT"> F  </i>
    <v name="SAXIS">      0.00000000      0.00000000      1.00000000</v>
    <i type="logical" name="LSPIRAL"> F  </i>
    <v name="QSPIRAL">      0.00000000      0.00000000      0.00000000</v>
    <i type="logical" name="LZEROZ"> F  </i>
   </separator>
   <separator name="electronic exchange-correlation" >
    <i type="logical" name="LASPH"> F  </i>
    <i type="logical" name="LMETAGGA"> F  </i>
   </separator>
   <separator name="electronic convergence" >
    <i type="int" name="NELM">   600</i>
    <i type="int" name="NELMDL">     0</i>
    <i type="int" name="NELMIN">     2</i>
    <i name="ENINI">    500.00000000</i>
    <separator name="electronic convergence detail" >
     <i type="logical" name="LDIAG"> T  </i>
     <i type="logical" name="LSUBROT"> F  </i>
     <i name="WEIMIN">      0.00000000</i>
     <i name="EBREAK">      0.00000003</i>
     <i name="DEPER">      0.30000000</i>
     <i type="int" name="NRMM">     4</i>
     <i name="TIME">      0.40000000</i>
    </separator>
   </separator>
   <separator name="electronic mixer" >
    <i name="AMIX">      0.40000000</i>
    <i name="BMIX">      0.01000000</i>
    <i name="AMIN">      0.01000000</i>
    <i name="AMIX_MAG">      1.60000000</i>
    <i name="BMIX_MAG">      0.01000000</i>
    <separator name="electronic mixer details" >
     <i type="int" name="IMIX">     4</i>
     <i type="logical" name="MIXFIRST"> F  </i>
     <i type="int" name="MAXMIX">   -45</i>
     <i name="WC">    100.00000000</i>
     <i type="int" name="INIMIX">     1</i>
     <i type="int" name="MIXPRE">     1</i>
     <i type="int" name="MREMOVE">     5</i>
    </separator>
   </separator>
   <separator name="electronic dipolcorrection" >
    <i type="logical" name="LDIPOL"> T  </i>
    <i type="logical" name="LMONO"> F  </i>
    <i type="int" name="IDIPOL">     3</i>
    <i name="EPSILON">      1.00000000</i>
    <v name="DIPOL">   -100.00000000   -100.00000000   -100.00000000</v>
    <i name="EFIELD">      0.00000000</i>
   </separator>
  </separator>
  <separator name="grids" >
   <i type="int" name="NGX">   100</i>
   <i type="int" name="NGY">   100</i>
   <i type="int" name="NGZ">   350</i>
   <i type="int" name="NGXF">   200</i>
   <i type="int" name="NGYF">   200</i>
   <i type="int" name="NGZF">   700</i>
   <i type="logical" name="ADDGRID"> F  </i>
  </separator>
  <separator name="ionic" >
   <i type="int" name="NSW">     0</i>
   <i type="int" name="IBRION">    -1</i>
   <i type="int" name="MDALGO">     0</i>
   <i type="int" name="ISIF">     2</i>
   <i name="PSTRESS">      0.00000000</i>
   <i name="EDIFFG">      0.00100000</i>
   <i type="int" name="NFREE">     0</i>
   <i name="POTIM">      0.50000000</i>
   <i name="SMASS">     -3.00000000</i>
   <i name="SCALEE">      1.00000000</i>
  </separator>
  <separator name="ionic md" >
   <i name="TEBEG">      0.00010000</i>
   <i name="TEEND">      0.00010000</i>
   <i type="int" name="NBLOCK">     1</i>
   <i type="int" name="KBLOCK">     1</i>
   <i type="int" name="NPACO">   256</i>
   <i name="APACO">     16.00000000</i>
  </separator>
  <separator name="symmetry" >
   <i type="int" name="ISYM">     0</i>
   <i name="SYMPREC">      0.00001000</i>
  </separator>
  <separator name="dos" >
   <i type="int" name="LORBIT">     0</i>
   <v name="RWIGS">     -1.00000000     -1.00000000     -1.00000000     -1.00000000     -1.00000000</v>
   <i type="int" name="NEDOS">   301</i>
   <i name="EMIN">     10.00000000</i>
   <i name="EMAX">    -10.00000000</i>
   <i name="EFERMI">      0.00000000</i>
  </separator>
  <separator name="writing" >
   <i type="int" name="NWRITE">     2</i>
   <i type="logical" name="LWAVE"> F  </i>
   <i type="logical" name="LDOWNSAMPLE"> F  </i>
   <i type="logical" name="LCHARG"> T  </i>
   <i type="logical" name="LPARD"> F  </i>
   <i type="logical" name="LVTOT"> T  </i>
   <i type="logical" name="LVHAR"> F  </i>
   <i type="logical" name="LELF"> F  </i>
   <i type="logical" name="LOPTICS"> F  </i>
   <v name="STM">      0.00000000      0.00000000      0.00000000      0.00000000      0.00000000      0.00000000      0.00000000</v>
  </separator>
  <separator name="performance" >
   <i type="int" name="NPAR">     4</i>
   <i type="int" name="NSIM">     4</i>
   <i type="int" name="NBLK">    -1</i>
   <i type="logical" name="LPLANE"> T  </i>
   <i type="logical" name="LSCALAPACK"> T  </i>
   <i type="logical" name="LSCAAWARE"> F  </i>
   <i type="logical" name="LSCALU"> F  </i>
   <i type="logical" name="LASYNC"> F  </i>
   <i type="logical" name="LORBITALREAL"> F  </i>
  </separator>
  <separator name="miscellaneous" >
   <i type="int" name="IDIOT">     3</i>
   <i type="int" name="PHON_NSTRUCT">    -1</i>
   <i type="logical" name="LMUSIC"> F  </i>
   <v name="POMASS">      1.00000000     12.01100000     14.00100000    126.90400000    207.20000000</v>
   <v name="DARWINR">      0.00000000      0.00000000      0.00000000      0.00000000      0.00000000</v>
   <v name="DARWINV">      1.00000000      1.00000000      1.00000000      1.00000000      1.00000000</v>
   <i type="logical" name="LCORR"> T  </i>
  </separator>
  <i type="logical" name="GGA_COMPAT"> F  </i>
  <i type="logical" name="LBERRY"> F  </i>
  <i type="int" name="ICORELEVEL">     0</i>
  <i type="logical" name="LDAU"> F  </i>
  <i type="int" name="I_CONSTRAINED_M">     0</i>
  <separator name="electronic exchange-correlation" >
   <i type="string" name="GGA">--</i>
   <i type="int" name="VOSKOWN">     0</i>
   <i type="logical" name="LHFCALC"> F  </i>
   <i type="string" name="PRECFOCK"></i>
   <i type="logical" name="LSYMGRAD"> F  </i>
   <i type="logical" name="LHFONE"> F  </i>
   <i type="logical" name="LRHFCALC"> F  </i>
   <i type="logical" name="LTHOMAS"> F  </i>
   <i type="logical" name="LMODELHF"> F  </i>
   <i type="logical" name="LFOCKACE"> F  </i>
   <i name="ENCUT4O">     -1.00000000</i>
   <i type="int" name="EXXOEP">     0</i>
   <i type="int" name="FOURORBIT">     0</i>
   <i name="AEXX">      0.00000000</i>
   <i name="HFALPHA">      0.00000000</i>
   <i name="MCALPHA">      0.00000000</i>
   <i name="ALDAX">      1.00000000</i>
   <i name="AGGAX">      1.00000000</i>
   <i name="ALDAC">      1.00000000</i>
   <i name="AGGAC">      1.00000000</i>
   <i type="int" name="NKREDX">     1</i>
   <i type="int" name="NKREDY">     1</i>
   <i type="int" name="NKREDZ">     1</i>
   <i type="logical" name="SHIFTRED"> F  </i>
   <i type="logical" name="ODDONLY"> F  </i>
   <i type="logical" name="EVENONLY"> F  </i>
   <i type="int" name="LMAXFOCK">     0</i>
   <i type="int" name="NMAXFOCKAE">     0</i>
   <i type="logical" name="LFOCKAEDFT"> F  </i>
   <i name="HFSCREEN">      0.00000000</i>
   <i name="HFSCREENC">      0.00000000</i>
   <i type="int" name="NBANDSGWLOW">     0</i>
  </separator>
  <separator name="vdW DFT" >
   <i type="logical" name="LUSE_VDW"> F  </i>
   <i name="Zab_VDW">     -0.84910000</i>
   <i name="PARAM1">      0.12340000</i>
   <i name="PARAM2">      1.00000000</i>
   <i name="PARAM3">      0.00000000</i>
  </separator>
  <separator name="model GW" >
   <i type="int" name="MODEL_GW">     0</i>
   <i name="MODEL_EPS0">     37.63423484</i>
   <i name="MODEL_ALPHA">      1.00000000</i>
  </separator>
  <separator name="linear response parameters" >
   <i type="logical" name="LEPSILON"> F  </i>
   <i type="logical" name="LRPA"> F  </i>
   <i type="logical" name="LNABLA"> F  </i>
   <i type="logical" name="LVEL"> F  </i>
   <i type="int" name="KINTER">     0</i>
   <i name="CSHIFT">      0.10000000</i>
   <i name="OMEGAMAX">     -1.00000000</i>
   <i name="DEG_THRESHOLD">      0.00200000</i>
   <i name="RTIME">     -0.10000000</i>
   <i name="WPLASMAI">      0.00000000</i>
   <v name="DFIELD">      0.00000000      0.00000000      0.00000000</v>
   <v name="WPLASMA">      0.00000000      0.00000000      0.00000000      0.00000000      0.00000000      0.00000000      0.00000000      0.00000000      0.00000000</v>
  </separator>
  <separator name="orbital magnetization" >
   <i type="logical" name="NUCIND"> F  </i>
   <v name="MAGPOS">      0.00000000      0.00000000      0.00000000</v>
   <i type="logical" name="LNICSALL"> T  </i>
   <i type="logical" name="ORBITALMAG"> F  </i>
   <i type="logical" name="LMAGBLOCH"> F  </i>
   <i type="logical" name="LCHIMAG"> F  </i>
   <i type="logical" name="LGAUGE"> T  </i>
   <i type="int" name="MAGATOM">     0</i>
   <v name="MAGDIPOL">      0.00000000      0.00000000      0.00000000</v>
   <v name="AVECCONST">      0.00000000      0.00000000      0.00000000</v>
  </separator>
  <separator name="response functions" >
   <i type="logical" name="LFINITE_TEMPERATURE"> F  </i>
   <i type="logical" name="LADDER"> F  </i>
   <i type="logical" name="LRPAFORCE"> F  </i>
   <i type="logical" name="LFXC"> F  </i>
   <i type="logical" name="LHARTREE"> T  </i>
   <i type="int" name="IBSE">     0</i>
   <v type="int" name="KPOINT">    -1     0     0     0</v>
   <i type="logical" name="LTCTC"> F  </i>
   <i type="logical" name="LTCTE"> F  </i>
   <i type="logical" name="LTETE"> F  </i>
   <i type="logical" name="LTRIPLET"> F  </i>
   <i type="logical" name="LFXCEPS"> F  </i>
   <i type="logical" name="LFXHEG"> F  </i>
   <i type="int" name="NATURALO">     2</i>
   <i type="logical" name="LHOLEGF"> F  </i>
   <i type="logical" name="L2ORDER"> F  </i>
   <i type="logical" name="LDMP1"> F  </i>
   <i type="logical" name="LMP2LT"> F  </i>
   <i type="logical" name="LSMP2LT"> F  </i>
   <i type="logical" name="LGWLF"> F  </i>
   <i name="ENCUTGW">     -2.00000000</i>
   <i name="ENCUTGWSOFT">     -2.00000000</i>
   <i name="ENCUTLF">     -1.00000000</i>
   <i type="logical" name="LESF_SPLINES"> F  </i>
   <i type="int" name="LMAXMP2">    -1</i>
   <i name="SCISSOR">      0.00000000</i>
   <i type="int" name="NOMEGA">     0</i>
   <i type="int" name="NOMEGAR">     0</i>
   <i type="int" name="NBANDSGW">    -1</i>
   <i type="int" name="NBANDSO">    -1</i>
   <i type="int" name="NBANDSV">    -1</i>
   <i type="int" name="NELM">   600</i>
   <i type="int" name="NELMHF">     1</i>
   <i type="int" name="DIM">     3</i>
   <i type="int" name="IESPILON">     4</i>
   <i type="int" name="ANTIRES">     0</i>
   <i name="OMEGAMAX">    -30.00000000</i>
   <i name="OMEGAMIN">    -30.00000000</i>
   <i name="OMEGATL">   -200.00000000</i>
   <i type="int" name="OMEGAGRID">     0</i>
   <i name="CSHIFT">     -0.10000000</i>
   <i type="logical" name="LSELFENERGY"> F  </i>
   <i type="logical" name="LSPECTRAL"> F  </i>
   <i type="logical" name="LSPECTRALGW"> F  </i>
   <i type="logical" name="LSINGLES"> F  </i>
   <i type="logical" name="LFERMIGW"> F  </i>
   <i type="logical" name="ODDONLYGW"> F  </i>
   <i type="logical" name="EVENONLYGW"> F  </i>
   <i type="int" name="NKREDLFX">     1</i>
   <i type="int" name="NKREDLFY">     1</i>
   <i type="int" name="NKREDLFZ">     1</i>
   <i type="int" name="MAXMEM">  2800</i>
   <i type="int" name="TELESCOPE">     0</i>
   <i type="int" name="NTAUPAR">    -1</i>
   <i type="int" name="NOMEGAPAR">    -1</i>
   <i name="DAMP_NEWTON">      0.80000001</i>
   <i name="LAMBDA">      1.00000000</i>
  </separator>
  <separator name="External order field" >
   <i name="OFIELD_KAPPA">      0.00000000</i>
   <v name="OFIELD_K">      0.00000000      0.00000000      0.00000000</v>
   <i name="OFIELD_Q6_NEAR">      0.00000000</i>
   <i name="OFIELD_Q6_FAR">      0.00000000</i>
   <i name="OFIELD_A">      0.00000000</i>
  </separator>
 </parameters>
 <atominfo>
  <atoms>     325 </atoms>
  <types>       5 </types>
  <array name="atoms" >
   <dimension dim="1">ion</dimension>
   <field type="string">element</field>
   <field type="int">atomtype</field>
   <set>
    <rc><c>H </c><c>   1</c></rc>
    <rc><c>H </c><c>   1</c></rc>
    <rc><c>H </c><c>   1</c></rc>
    <rc><c>H </c><c>   1</c></rc>
    <rc><c>H </c><c>   1</c></rc>
    <rc><c>H </c><c>   1</c></rc>
    <rc><c>H </c><c>   1</c></rc>
    <rc><c>H </c><c>   1</c></rc>
    <rc><c>H </c><c>   1</c></rc>
    <rc><c>H </c><c>   1</c></rc>
    <rc><c>H </c><c>   1</c></rc>
    <rc><c>H </c><c>   1</c></rc>
    <rc><c>H </c><c>   1</c></rc>
    <rc><c>H </c><c>   1</c></rc>
    <rc><c>H </c><c>   1</c></rc>
    <rc><c>H </c><c>   1</c></rc>
    <rc><c>H </c><c>   1</c></rc>
    <rc><c>H </c><c>   1</c></rc>
    <rc><c>H </c><c>   1</c></rc>
    <rc><c>H </c><c>   1</c></rc>
    <rc><c>H </c><c>   1</c></rc>
    <rc><c>H </c><c>   1</c></rc>
    <rc><c>H </c><c>   1</c></rc>
    <rc><c>H </c><c>   1</c></rc>
    <rc><c>H </c><c>   1</c></rc>
    <rc><c>H </c><c>   1</c></rc>
    <rc><c>H </c><c>   1</c></rc>
    <rc><c>H </c><c>   1</c></rc>
    <rc><c>H </c><c>   1</c></rc>
    <rc><c>H </c><c>   1</c></rc>
    <rc><c>H </c><c>   1</c></rc>
    <rc><c>H </c><c>   1</c></rc>
    <rc><c>H </c><c>   1</c></rc>
    <rc><c>H </c><c>   1</c></rc>
    <rc><c>H </c><c>   1</c></rc>
    <rc><c>H </c><c>   1</c></rc>
    <rc><c>H </c><c>   1</c></rc>
    <rc><c>H </c><c>   1</c></rc>
    <rc><c>H </c><c>   1</c></rc>
    <rc><c>H </c><c>   1</c></rc>
    <rc><c>H </c><c>   1</c></rc>
    <rc><c>H </c><c>   1</c></rc>
    <rc><c>H </c><c>   1</c></rc>
    <rc><c>H </c><c>   1</c></rc>
    <rc><c>H </c><c>   1</c></rc>
    <rc><c>H </c><c>   1</c></rc>
    <rc><c>H </c><c>   1</c></rc>
    <rc><c>H </c><c>   1</c></rc>
    <rc><c>H </c><c>   1</c></rc>
    <rc><c>H </c><c>   1</c></rc>
    <rc><c>H </c><c>   1</c></rc>
    <rc><c>H </c><c>   1</c></rc>
    <rc><c>H </c><c>   1</c></rc>
    <rc><c>H </c><c>   1</c></rc>
    <rc><c>H </c><c>   1</c></rc>
    <rc><c>H </c><c>   1</c></rc>
    <rc><c>H </c><c>   1</c></rc>
    <rc><c>H </c><c>   1</c></rc>
    <rc><c>H </c><c>   1</c></rc>
    <rc><c>H </c><c>   1</c></rc>
    <rc><c>H </c><c>   1</c></rc>
    <rc><c>H </c><c>   1</c></rc>
    <rc><c>H </c><c>   1</c></rc>
    <rc><c>H </c><c>   1</c></rc>
    <rc><c>H </c><c>   1</c></rc>
    <rc><c>H </c><c>   1</c></rc>
    <rc><c>H </c><c>   1</c></rc>
    <rc><c>H </c><c>   1</c></rc>
    <rc><c>H </c><c>   1</c></rc>
    <rc><c>H </c><c>   1</c></rc>
    <rc><c>H </c><c>   1</c></rc>
    <rc><c>H </c><c>   1</c></rc>
    <rc><c>H </c><c>   1</c></rc>
    <rc><c>H </c><c>   1</c></rc>
    <rc><c>H </c><c>   1</c></rc>
    <rc><c>H </c><c>   1</c></rc>
    <rc><c>H </c><c>   1</c></rc>
    <rc><c>H </c><c>   1</c></rc>
    <rc><c>H </c><c>   1</c></rc>
    <rc><c>H </c><c>   1</c></rc>
    <rc><c>H </c><c>   1</c></rc>
    <rc><c>H </c><c>   1</c></rc>
    <rc><c>H </c><c>   1</c></rc>
    <rc><c>H </c><c>   1</c></rc>
    <rc><c>H </c><c>   1</c></rc>
    <rc><c>H </c><c>   1</c></rc>
    <rc><c>H </c><c>   1</c></rc>
    <rc><c>H </c><c>   1</c></rc>
    <rc><c>H </c><c>   1</c></rc>
    <rc><c>H </c><c>   1</c></rc>
    <rc><c>H </c><c>   1</c></rc>
    <rc><c>H </c><c>   1</c></rc>
    <rc><c>H </c><c>   1</c></rc>
    <rc><c>H </c><c>   1</c></rc>
    <rc><c>H </c><c>   1</c></rc>
    <rc><c>H </c><c>   1</c></rc>
    <rc><c>H </c><c>   1</c></rc>
    <rc><c>H </c><c>   1</c></rc>
    <rc><c>H </c><c>   1</c></rc>
    <rc><c>H </c><c>   1</c></rc>
    <rc><c>H </c><c>   1</c></rc>
    <rc><c>H </c><c>   1</c></rc>
    <rc><c>H </c><c>   1</c></rc>
    <rc><c>H </c><c>   1</c></rc>
    <rc><c>H </c><c>   1</c></rc>
    <rc><c>H </c><c>   1</c></rc>
    <rc><c>H </c><c>   1</c></rc>
    <rc><c>H </c><c>   1</c></rc>
    <rc><c>H </c><c>   1</c></rc>
    <rc><c>H </c><c>   1</c></rc>
    <rc><c>H </c><c>   1</c></rc>
    <rc><c>H </c><c>   1</c></rc>
    <rc><c>H </c><c>   1</c></rc>
    <rc><c>H </c><c>   1</c></rc>
    <rc><c>H </c><c>   1</c></rc>
    <rc><c>H </c><c>   1</c></rc>
    <rc><c>H </c><c>   1</c></rc>
    <rc><c>H </c><c>   1</c></rc>
    <rc><c>H </c><c>   1</c></rc>
    <rc><c>H </c><c>   1</c></rc>
    <rc><c>H </c><c>   1</c></rc>
    <rc><c>H </c><c>   1</c></rc>
    <rc><c>H </c><c>   1</c></rc>
    <rc><c>H </c><c>   1</c></rc>
    <rc><c>H </c><c>   1</c></rc>
    <rc><c>H </c><c>   1</c></rc>
    <rc><c>H </c><c>   1</c></rc>
    <rc><c>H </c><c>   1</c></rc>
    <rc><c>H </c><c>   1</c></rc>
    <rc><c>H </c><c>   1</c></rc>
    <rc><c>H </c><c>   1</c></rc>
    <rc><c>H </c><c>   1</c></rc>
    <rc><c>H </c><c>   1</c></rc>
    <rc><c>H </c><c>   1</c></rc>
    <rc><c>H </c><c>   1</c></rc>
    <rc><c>H </c><c>   1</c></rc>
    <rc><c>H </c><c>   1</c></rc>
    <rc><c>H </c><c>   1</c></rc>
    <rc><c>H </c><c>   1</c></rc>
    <rc><c>H </c><c>   1</c></rc>
    <rc><c>H </c><c>   1</c></rc>
    <rc><c>H </c><c>   1</c></rc>
    <rc><c>H </c><c>   1</c></rc>
    <rc><c>C </c><c>   2</c></rc>
    <rc><c>C </c><c>   2</c></rc>
    <rc><c>C </c><c>   2</c></rc>
    <rc><c>C </c><c>   2</c></rc>
    <rc><c>C </c><c>   2</c></rc>
    <rc><c>C </c><c>   2</c></rc>
    <rc><c>C </c><c>   2</c></rc>
    <rc><c>C </c><c>   2</c></rc>
    <rc><c>C </c><c>   2</c></rc>
    <rc><c>C </c><c>   2</c></rc>
    <rc><c>C </c><c>   2</c></rc>
    <rc><c>C </c><c>   2</c></rc>
    <rc><c>C </c><c>   2</c></rc>
    <rc><c>C </c><c>   2</c></rc>
    <rc><c>C </c><c>   2</c></rc>
    <rc><c>C </c><c>   2</c></rc>
    <rc><c>C </c><c>   2</c></rc>
    <rc><c>C </c><c>   2</c></rc>
    <rc><c>C </c><c>   2</c></rc>
    <rc><c>C </c><c>   2</c></rc>
    <rc><c>C </c><c>   2</c></rc>
    <rc><c>C </c><c>   2</c></rc>
    <rc><c>C </c><c>   2</c></rc>
    <rc><c>C </c><c>   2</c></rc>
    <rc><c>C </c><c>   2</c></rc>
    <rc><c>C </c><c>   2</c></rc>
    <rc><c>C </c><c>   2</c></rc>
    <rc><c>C </c><c>   2</c></rc>
    <rc><c>C </c><c>   2</c></rc>
    <rc><c>C </c><c>   2</c></rc>
    <rc><c>C </c><c>   2</c></rc>
    <rc><c>C </c><c>   2</c></rc>
    <rc><c>C </c><c>   2</c></rc>
    <rc><c>C </c><c>   2</c></rc>
    <rc><c>C </c><c>   2</c></rc>
    <rc><c>C </c><c>   2</c></rc>
    <rc><c>C </c><c>   2</c></rc>
    <rc><c>C </c><c>   2</c></rc>
    <rc><c>C </c><c>   2</c></rc>
    <rc><c>N </c><c>   3</c></rc>
    <rc><c>N </c><c>   3</c></rc>
    <rc><c>N </c><c>   3</c></rc>
    <rc><c>N </c><c>   3</c></rc>
    <rc><c>N </c><c>   3</c></rc>
    <rc><c>N </c><c>   3</c></rc>
    <rc><c>N </c><c>   3</c></rc>
    <rc><c>N </c><c>   3</c></rc>
    <rc><c>N </c><c>   3</c></rc>
    <rc><c>N </c><c>   3</c></rc>
    <rc><c>N </c><c>   3</c></rc>
    <rc><c>N </c><c>   3</c></rc>
    <rc><c>N </c><c>   3</c></rc>
    <rc><c>N </c><c>   3</c></rc>
    <rc><c>N </c><c>   3</c></rc>
    <rc><c>N </c><c>   3</c></rc>
    <rc><c>N </c><c>   3</c></rc>
    <rc><c>N </c><c>   3</c></rc>
    <rc><c>N </c><c>   3</c></rc>
    <rc><c>N </c><c>   3</c></rc>
    <rc><c>N </c><c>   3</c></rc>
    <rc><c>N </c><c>   3</c></rc>
    <rc><c>N </c><c>   3</c></rc>
    <rc><c>N </c><c>   3</c></rc>
    <rc><c>N </c><c>   3</c></rc>
    <rc><c>N </c><c>   3</c></rc>
    <rc><c>N </c><c>   3</c></rc>
    <rc><c>N </c><c>   3</c></rc>
    <rc><c>N </c><c>   3</c></rc>
    <rc><c>N </c><c>   3</c></rc>
    <rc><c>N </c><c>   3</c></rc>
    <rc><c>N </c><c>   3</c></rc>
    <rc><c>N </c><c>   3</c></rc>
    <rc><c>N </c><c>   3</c></rc>
    <rc><c>N </c><c>   3</c></rc>
    <rc><c>N </c><c>   3</c></rc>
    <rc><c>N </c><c>   3</c></rc>
    <rc><c>N </c><c>   3</c></rc>
    <rc><c>N </c><c>   3</c></rc>
    <rc><c>N </c><c>   3</c></rc>
    <rc><c>N </c><c>   3</c></rc>
    <rc><c>N </c><c>   3</c></rc>
    <rc><c>N </c><c>   3</c></rc>
    <rc><c>N </c><c>   3</c></rc>
    <rc><c>N </c><c>   3</c></rc>
    <rc><c>N </c><c>   3</c></rc>
    <rc><c>N </c><c>   3</c></rc>
    <rc><c>I </c><c>   4</c></rc>
    <rc><c>I </c><c>   4</c></rc>
    <rc><c>I </c><c>   4</c></rc>
    <rc><c>I </c><c>   4</c></rc>
    <rc><c>I </c><c>   4</c></rc>
    <rc><c>I </c><c>   4</c></rc>
    <rc><c>I </c><c>   4</c></rc>
    <rc><c>I </c><c>   4</c></rc>
    <rc><c>I </c><c>   4</c></rc>
    <rc><c>I </c><c>   4</c></rc>
    <rc><c>I </c><c>   4</c></rc>
    <rc><c>I </c><c>   4</c></rc>
    <rc><c>I </c><c>   4</c></rc>
    <rc><c>I </c><c>   4</c></rc>
    <rc><c>I </c><c>   4</c></rc>
    <rc><c>I </c><c>   4</c></rc>
    <rc><c>I </c><c>   4</c></rc>
    <rc><c>I </c><c>   4</c></rc>
    <rc><c>I </c><c>   4</c></rc>
    <rc><c>I </c><c>   4</c></rc>
    <rc><c>I </c><c>   4</c></rc>
    <rc><c>I </c><c>   4</c></rc>
    <rc><c>I </c><c>   4</c></rc>
    <rc><c>I </c><c>   4</c></rc>
    <rc><c>I </c><c>   4</c></rc>
    <rc><c>I </c><c>   4</c></rc>
    <rc><c>I </c><c>   4</c></rc>
    <rc><c>I </c><c>   4</c></rc>
    <rc><c>I </c><c>   4</c></rc>
    <rc><c>I </c><c>   4</c></rc>
    <rc><c>I </c><c>   4</c></rc>
    <rc><c>I </c><c>   4</c></rc>
    <rc><c>I </c><c>   4</c></rc>
    <rc><c>I </c><c>   4</c></rc>
    <rc><c>I </c><c>   4</c></rc>
    <rc><c>I </c><c>   4</c></rc>
    <rc><c>I </c><c>   4</c></rc>
    <rc><c>I </c><c>   4</c></rc>
    <rc><c>I </c><c>   4</c></rc>
    <rc><c>I </c><c>   4</c></rc>
    <rc><c>I </c><c>   4</c></rc>
    <rc><c>I </c><c>   4</c></rc>
    <rc><c>I </c><c>   4</c></rc>
    <rc><c>I </c><c>   4</c></rc>
    <rc><c>I </c><c>   4</c></rc>
    <rc><c>I </c><c>   4</c></rc>
    <rc><c>I </c><c>   4</c></rc>
    <rc><c>I </c><c>   4</c></rc>
    <rc><c>I </c><c>   4</c></rc>
    <rc><c>I </c><c>   4</c></rc>
    <rc><c>I </c><c>   4</c></rc>
    <rc><c>I </c><c>   4</c></rc>
    <rc><c>I </c><c>   4</c></rc>
    <rc><c>I </c><c>   4</c></rc>
    <rc><c>I </c><c>   4</c></rc>
    <rc><c>I </c><c>   4</c></rc>
    <rc><c>I </c><c>   4</c></rc>
    <rc><c>I </c><c>   4</c></rc>
    <rc><c>I </c><c>   4</c></rc>
    <rc><c>I </c><c>   4</c></rc>
    <rc><c>I </c><c>   4</c></rc>
    <rc><c>I </c><c>   4</c></rc>
    <rc><c>I </c><c>   4</c></rc>
    <rc><c>I </c><c>   4</c></rc>
    <rc><c>I </c><c>   4</c></rc>
    <rc><c>I </c><c>   4</c></rc>
    <rc><c>I </c><c>   4</c></rc>
    <rc><c>I </c><c>   4</c></rc>
    <rc><c>I </c><c>   4</c></rc>
    <rc><c>I </c><c>   4</c></rc>
    <rc><c>I </c><c>   4</c></rc>
    <rc><c>I </c><c>   4</c></rc>
    <rc><c>Pb</c><c>   5</c></rc>
    <rc><c>Pb</c><c>   5</c></rc>
    <rc><c>Pb</c><c>   5</c></rc>
    <rc><c>Pb</c><c>   5</c></rc>
    <rc><c>Pb</c><c>   5</c></rc>
    <rc><c>Pb</c><c>   5</c></rc>
    <rc><c>Pb</c><c>   5</c></rc>
    <rc><c>Pb</c><c>   5</c></rc>
    <rc><c>Pb</c><c>   5</c></rc>
    <rc><c>Pb</c><c>   5</c></rc>
    <rc><c>Pb</c><c>   5</c></rc>
    <rc><c>Pb</c><c>   5</c></rc>
    <rc><c>Pb</c><c>   5</c></rc>
    <rc><c>Pb</c><c>   5</c></rc>
    <rc><c>Pb</c><c>   5</c></rc>
    <rc><c>Pb</c><c>   5</c></rc>
    <rc><c>Pb</c><c>   5</c></rc>
    <rc><c>Pb</c><c>   5</c></rc>
    <rc><c>Pb</c><c>   5</c></rc>
    <rc><c>Pb</c><c>   5</c></rc>
    <rc><c>Pb</c><c>   5</c></rc>
    <rc><c>Pb</c><c>   5</c></rc>
    <rc><c>Pb</c><c>   5</c></rc>
    <rc><c>Pb</c><c>   5</c></rc>
   </set>
  </array>
  <array name="atomtypes" >
   <dimension dim="1">type</dimension>
   <field type="int">atomspertype</field>
   <field type="string">element</field>
   <field>mass</field>
   <field>valence</field>
   <field type="string">pseudopotential</field>
   <set>
    <rc><c> 143</c><c>H </c><c>      1.00000000</c><c>      1.00000000</c><c>  PAW_PBE H 15Jun2001                   </c></rc>
    <rc><c>  39</c><c>C </c><c>     12.01100000</c><c>      4.00000000</c><c>  PAW_PBE C 08Apr2002                   </c></rc>
    <rc><c>  47</c><c>N </c><c>     14.00100000</c><c>      5.00000000</c><c>  PAW_PBE N 08Apr2002                   </c></rc>
    <rc><c>  72</c><c>I </c><c>    126.90400000</c><c>      7.00000000</c><c>  PAW_PBE I 08Apr2002                   </c></rc>
    <rc><c>  24</c><c>Pb</c><c>    207.20000000</c><c>      4.00000000</c><c>  PAW_PBE Pb 08Apr2002                  </c></rc>
   </set>
  </array>
 </atominfo>
 <structure name="initialpos" >
  <crystal>
   <varray name="basis" >
    <v>      18.06080055       0.00000000       0.00000000 </v>
    <v>      -0.00491865      18.06279945       0.00000000 </v>
    <v>       0.00000000       0.00000000      62.48749924 </v>
   </varray>
   <i name="volume">  20385.21054034 </i>
   <varray name="rec_basis" >
    <v>       0.05536853       0.00001508      -0.00000000 </v>
    <v>       0.00000000       0.05536240       0.00000000 </v>
    <v>       0.00000000      -0.00000000       0.01600320 </v>
   </varray>
  </crystal>
  <varray name="positions" >
   <v>       0.40779773       0.28417358       0.56099654 </v>
   <v>       0.41601196       0.69524247       0.57115763 </v>
   <v>       0.92513421       0.29286619       0.57946136 </v>
   <v>       0.92666965       0.81488687       0.57281702 </v>
   <v>       0.32263876       0.09115356       0.56305750 </v>
   <v>       0.32457212       0.57234114       0.56832449 </v>
   <v>       0.79835847       0.10337734       0.56489460 </v>
   <v>       0.10950881       0.24142832       0.56196036 </v>
   <v>       0.07867947       0.68275186       0.56912091 </v>
   <v>       0.58381581       0.18574718       0.56503355 </v>
   <v>       0.59909853       0.76354079       0.55901513 </v>
   <v>       0.37816715       0.01697281       0.55414428 </v>
   <v>       0.25527237       0.62206095       0.55484889 </v>
   <v>       0.87441921       0.04916873       0.55599890 </v>
   <v>       0.06339158       0.28919261       0.58185515 </v>
   <v>       0.99251729       0.69402617       0.58128405 </v>
   <v>       0.48939743       0.17337139       0.57011281 </v>
   <v>       0.55244969       0.69521211       0.57352456 </v>
   <v>       0.30756901       0.43682422       0.57177647 </v>
   <v>       0.19052200       0.06782743       0.56876696 </v>
   <v>       0.68297560       0.03280558       0.57342725 </v>
   <v>       0.45687029       0.36534154       0.55449720 </v>
   <v>       0.37429186       0.76014088       0.55427004 </v>
   <v>       0.88439112       0.24407795       0.55844910 </v>
   <v>       0.97298808       0.87345299       0.55522226 </v>
   <v>       0.23246909       0.39757887       0.55854323 </v>
   <v>       0.15592391       0.98284139       0.56068215 </v>
   <v>       0.68289240       0.93902230       0.56566123 </v>
   <v>       0.57127065       0.30619257       0.55489590 </v>
   <v>       0.49014388       0.81270041       0.54482137 </v>
   <v>       0.99967049       0.20391813       0.54477907 </v>
   <v>       0.07054521       0.79180699       0.54963801 </v>
   <v>       0.18823830       0.51323802       0.54681433 </v>
   <v>       0.27357552       0.93855691       0.55091329 </v>
   <v>       0.80355322       0.94121863       0.55440257 </v>
   <v>       0.45494219       0.29699798       0.67293898 </v>
   <v>       0.44213051       0.81521849       0.67061100 </v>
   <v>       0.95712275       0.28427120       0.67663051 </v>
   <v>       0.91310645       0.73922702       0.66385073 </v>
   <v>       0.29694814       0.04130467       0.67502063 </v>
   <v>       0.30099131       0.56094434       0.67318885 </v>
   <v>       0.79745928       0.05139142       0.67553581 </v>
   <v>       0.83264160       0.47197171       0.66590699 </v>
   <v>       0.09100867       0.17063624       0.64718023 </v>
   <v>       0.10825601       0.70019954       0.65464656 </v>
   <v>       0.57715296       0.16427537       0.64627556 </v>
   <v>       0.57325350       0.67350914       0.65194967 </v>
   <v>       0.18512902       0.41153420       0.65125703 </v>
   <v>       0.16415576       0.92947393       0.64424586 </v>
   <v>       0.63473572       0.48404385       0.65401527 </v>
   <v>       0.67253684       0.91832505       0.64942182 </v>
   <v>       0.06328652       0.18837533       0.67338652 </v>
   <v>       0.02486998       0.65528559       0.66070429 </v>
   <v>       0.54754526       0.18824317       0.67177603 </v>
   <v>       0.54348108       0.71369289       0.67572933 </v>
   <v>       0.21253067       0.44699971       0.67584215 </v>
   <v>       0.18380583       0.95236253       0.67073328 </v>
   <v>       0.69778317       0.43485685       0.66978057 </v>
   <v>       0.69681516       0.94679667       0.67497918 </v>
   <v>       0.43649832       0.33727510       0.64829831 </v>
   <v>       0.41718819       0.82971680       0.64390174 </v>
   <v>       0.92640866       0.31894612       0.65228592 </v>
   <v>       0.92843065       0.83161371       0.65788525 </v>
   <v>       0.34238440       0.06204602       0.65148681 </v>
   <v>       0.32029151       0.58791377       0.64698213 </v>
   <v>       0.82601099       0.07966327       0.65007253 </v>
   <v>       0.84971492       0.54481147       0.64809624 </v>
   <v>       0.00677663       0.25155220       0.63190904 </v>
   <v>       0.05295465       0.81528143       0.65056439 </v>
   <v>       0.51117728       0.25607554       0.62927003 </v>
   <v>       0.49658515       0.74183755       0.63043237 </v>
   <v>       0.26180175       0.99486754       0.63018207 </v>
   <v>       0.24986143       0.49640580       0.63131981 </v>
   <v>       0.75121076       0.99826444       0.63205299 </v>
   <v>       0.72620900       0.55716196       0.63849789 </v>
   <v>       0.44874502       0.30128397       0.76888902 </v>
   <v>       0.44874501       0.80128391       0.76888902 </v>
   <v>       0.94874497       0.30128397       0.76888902 </v>
   <v>       0.94874501       0.80128391       0.76888902 </v>
   <v>       0.30127600       0.05129450       0.76887296 </v>
   <v>       0.30127601       0.55129450       0.76887296 </v>
   <v>       0.80127594       0.05129450       0.76887296 </v>
   <v>       0.80127598       0.55129450       0.76887296 </v>
   <v>       0.07877100       0.17118050       0.74344197 </v>
   <v>       0.07877101       0.67118045       0.74344197 </v>
   <v>       0.57877100       0.17118050       0.74344197 </v>
   <v>       0.57877099       0.67118045       0.74344197 </v>
   <v>       0.17119950       0.42117448       0.74342103 </v>
   <v>       0.17119950       0.92117451       0.74342103 </v>
   <v>       0.67119951       0.42117448       0.74342103 </v>
   <v>       0.67119950       0.92117451       0.74342103 </v>
   <v>       0.05125600       0.19871499       0.76888902 </v>
   <v>       0.05125600       0.69871493       0.76888902 </v>
   <v>       0.55125603       0.19871499       0.76888902 </v>
   <v>       0.55125602       0.69871493       0.76888902 </v>
   <v>       0.19872349       0.44870397       0.76887205 </v>
   <v>       0.19872349       0.94870397       0.76887205 </v>
   <v>       0.69872352       0.44870397       0.76887205 </v>
   <v>       0.69872351       0.94870397       0.76887205 </v>
   <v>       0.42123152       0.32881747       0.74344197 </v>
   <v>       0.42123151       0.82881744       0.74344197 </v>
   <v>       0.92123147       0.32881747       0.74344197 </v>
   <v>       0.92123151       0.82881744       0.74344197 </v>
   <v>       0.32880050       0.07882500       0.74342103 </v>
   <v>       0.32880049       0.57882496       0.74342103 </v>
   <v>       0.82880048       0.07882500       0.74342103 </v>
   <v>       0.82880052       0.57882496       0.74342103 </v>
   <v>       0.00000350       0.25000148       0.72582199 </v>
   <v>       0.00000350       0.75000145       0.72582199 </v>
   <v>       0.50000351       0.25000148       0.72582199 </v>
   <v>       0.50000350       0.75000145       0.72582199 </v>
   <v>       0.25000050       0.00000000       0.72580398 </v>
   <v>       0.25000052       0.50000000       0.72580398 </v>
   <v>       0.75000050       0.00000000       0.72580398 </v>
   <v>       0.75000049       0.50000000       0.72580398 </v>
   <v>       0.79914025       0.50791459       0.51392841 </v>
   <v>       0.87818331       0.50015459       0.53080398 </v>
   <v>       0.75778268       0.61828576       0.53213201 </v>
   <v>       0.75572223       0.62021440       0.56039108 </v>
   <v>       0.68730448       0.44207986       0.54927478 </v>
   <v>       0.66813822       0.53398831       0.55716405 </v>
   <v>       0.79616214       0.42205839       0.56623270 </v>
   <v>       0.86384079       0.49176599       0.56833413 </v>
   <v>       0.85775818       0.37323179       0.53854308 </v>
   <v>       0.76337664       0.37592553       0.53185558 </v>
   <v>       0.78551423       0.38317257       0.49441572 </v>
   <v>       0.87895200       0.40974058       0.49721157 </v>
   <v>       0.89606124       0.61640890       0.53209440 </v>
   <v>       0.89722244       0.60531125       0.56044626 </v>
   <v>       0.86226982       0.68811990       0.54899127 </v>
   <v>       0.60092283       0.50582327       0.52479991 </v>
   <v>       0.68098409       0.48041754       0.51034713 </v>
   <v>       0.66668506       0.57409455       0.51861813 </v>
   <v>       0.70424802       0.49944198       0.58719679 </v>
   <v>       0.77503443       0.56839457       0.59058175 </v>
   <v>       0.78571007       0.47913915       0.60127212 </v>
   <v>       0.82169183       0.25827762       0.51189444 </v>
   <v>       0.84830272       0.27463459       0.48534824 </v>
   <v>       0.92460517       0.15888716       0.49869154 </v>
   <v>       0.97374414       0.38455067       0.51653721 </v>
   <v>       0.05616115       0.12579449       0.50378030 </v>
   <v>       0.10381786       0.35119955       0.52154584 </v>
   <v>       0.14774651       0.22246328       0.51496976 </v>
   <v>       0.99698275       0.23866130       0.55917117 </v>
   <v>       0.02462350       0.77573743       0.56007479 </v>
   <v>       0.52114628       0.27490832       0.55859177 </v>
   <v>       0.48670672       0.76396333       0.55519442 </v>
   <v>       0.24083510       0.50985036       0.55556498 </v>
   <v>       0.26732213       0.99575549       0.55660980 </v>
   <v>       0.77863385       0.99299607       0.56024627 </v>
   <v>       0.00845243       0.24489029       0.64927500 </v>
   <v>       0.01926613       0.76789111       0.65548694 </v>
   <v>       0.50667843       0.25105408       0.64663062 </v>
   <v>       0.49490663       0.75115735       0.64770676 </v>
   <v>       0.25292746       0.49965386       0.64874792 </v>
   <v>       0.25262233       0.99623091       0.64742405 </v>
   <v>       0.74158617       0.51521920       0.65036287 </v>
   <v>       0.74971603       0.99875715       0.64952017 </v>
   <v>       0.49998898       0.24999498       0.74327702 </v>
   <v>       0.49998903       0.74999496       0.74327702 </v>
   <v>       0.99998898       0.24999498       0.74327702 </v>
   <v>       0.99998903       0.74999496       0.74327702 </v>
   <v>       0.25000050       0.00000100       0.74325596 </v>
   <v>       0.25000052       0.50000100       0.74325596 </v>
   <v>       0.75000050       0.00000100       0.74325596 </v>
   <v>       0.75000049       0.50000100       0.74325596 </v>
   <v>       0.93869265       0.27452894       0.50676622 </v>
   <v>       0.96421067       0.20150270       0.50347192 </v>
   <v>       0.99061089       0.32764554       0.51323687 </v>
   <v>       0.03827500       0.18277335       0.50624682 </v>
   <v>       0.06529319       0.30876667       0.51606147 </v>
   <v>       0.08977813       0.23678389       0.51236981 </v>
   <v>       0.82065634       0.48179762       0.52866635 </v>
   <v>       0.78682747       0.59942267       0.54654663 </v>
   <v>       0.69464650       0.50007434       0.54480831 </v>
   <v>       0.80394975       0.48190158       0.56780760 </v>
   <v>       0.81796320       0.39764643       0.52725475 </v>
   <v>       0.83553157       0.37359881       0.50420873 </v>
   <v>       0.86567683       0.62768681       0.54695016 </v>
   <v>       0.66051555       0.51613456       0.52322227 </v>
   <v>       0.76427678       0.50990242       0.58746949 </v>
   <v>       0.85842777       0.29272889       0.50189543 </v>
   <v>       0.05971397       0.25681460       0.56846740 </v>
   <v>       0.03041225       0.71212486       0.57003858 </v>
   <v>       0.53080589       0.20507275       0.56363751 </v>
   <v>       0.54959969       0.73736348       0.56250643 </v>
   <v>       0.45744426       0.30928419       0.55725727 </v>
   <v>       0.42179174       0.73629369       0.55992156 </v>
   <v>       0.93174893       0.26000073       0.56611219 </v>
   <v>       0.96762867       0.82088163       0.56148224 </v>
   <v>       0.26255894       0.44396606       0.56203234 </v>
   <v>       0.20026464       0.01749654       0.56197190 </v>
   <v>       0.70869757       0.98933081       0.56611836 </v>
   <v>       0.32629132       0.03827154       0.55737045 </v>
   <v>       0.27727624       0.57135509       0.55931988 </v>
   <v>       0.81965738       0.05322398       0.56055200 </v>
   <v>       0.05674104       0.19829195       0.65732959 </v>
   <v>       0.05248967       0.70331192       0.65717075 </v>
   <v>       0.54598464       0.19809600       0.65569041 </v>
   <v>       0.53933171       0.71016083       0.65946070 </v>
   <v>       0.21503653       0.44992766       0.65957327 </v>
   <v>       0.19697063       0.95764796       0.65490742 </v>
   <v>       0.68888132       0.47455652       0.65847759 </v>
   <v>       0.70445035       0.95166982       0.65888410 </v>
   <v>       0.46368110       0.29766207       0.65676851 </v>
   <v>       0.44831137       0.80124474       0.65483221 </v>
   <v>       0.96127411       0.28498439       0.66037873 </v>
   <v>       0.94871814       0.77925898       0.65898758 </v>
   <v>       0.29884842       0.03554506       0.65884711 </v>
   <v>       0.29355372       0.55241561       0.65702607 </v>
   <v>       0.79302921       0.04633247       0.65921889 </v>
   <v>       0.81268091       0.51037232       0.65529946 </v>
   <v>       0.04586250       0.20411950       0.75272599 </v>
   <v>       0.04586250       0.70411946       0.75272599 </v>
   <v>       0.54586251       0.20411950       0.75272599 </v>
   <v>       0.54586250       0.70411946       0.75272599 </v>
   <v>       0.20411900       0.45410100       0.75270499 </v>
   <v>       0.20411899       0.95410095       0.75270499 </v>
   <v>       0.70411898       0.45410100       0.75270499 </v>
   <v>       0.70411896       0.95410095       0.75270499 </v>
   <v>       0.45414002       0.29588849       0.75272697 </v>
   <v>       0.45414001       0.79588852       0.75272697 </v>
   <v>       0.95414002       0.29588849       0.75272697 </v>
[...]
   <v>       0.58381581       0.18574718       0.56503355 </v>
   <v>       0.59909853       0.76354079       0.55901513 </v>
   <v>       0.37816715       0.01697281       0.55414428 </v>
   <v>       0.25527237       0.62206095       0.55484889 </v>
   <v>       0.87441921       0.04916873       0.55599890 </v>
   <v>       0.06339158       0.28919261       0.58185515 </v>
   <v>       0.99251729       0.69402617       0.58128405 </v>
   <v>       0.48939743       0.17337139       0.57011281 </v>
   <v>       0.55244969       0.69521211       0.57352456 </v>
   <v>       0.30756901       0.43682422       0.57177647 </v>
   <v>       0.19052200       0.06782743       0.56876696 </v>
   <v>       0.68297560       0.03280558       0.57342725 </v>
   <v>       0.45687029       0.36534154       0.55449720 </v>
   <v>       0.37429186       0.76014088       0.55427004 </v>
   <v>       0.88439112       0.24407795       0.55844910 </v>
   <v>       0.97298808       0.87345299       0.55522226 </v>
   <v>       0.23246909       0.39757887       0.55854323 </v>
   <v>       0.15592391       0.98284139       0.56068215 </v>
   <v>       0.68289240       0.93902230       0.56566123 </v>
   <v>       0.57127065       0.30619257       0.55489590 </v>
   <v>       0.49014388       0.81270041       0.54482137 </v>
   <v>       0.99967049       0.20391813       0.54477907 </v>
   <v>       0.07054521       0.79180699       0.54963801 </v>
   <v>       0.18823830       0.51323802       0.54681433 </v>
   <v>       0.27357552       0.93855691       0.55091329 </v>
   <v>       0.80355322       0.94121863       0.55440257 </v>
   <v>       0.45494219       0.29699798       0.67293898 </v>
   <v>       0.44213051       0.81521849       0.67061100 </v>
   <v>       0.95712275       0.28427120       0.67663051 </v>
   <v>       0.91310645       0.73922702       0.66385073 </v>
   <v>       0.29694814       0.04130467       0.67502063 </v>
   <v>       0.30099131       0.56094434       0.67318885 </v>
   <v>       0.79745928       0.05139142       0.67553581 </v>
   <v>       0.83264160       0.47197171       0.66590699 </v>
   <v>       0.09100867       0.17063624       0.64718023 </v>
   <v>       0.10825601       0.70019954       0.65464656 </v>
   <v>       0.57715296       0.16427537       0.64627556 </v>
   <v>       0.57325350       0.67350914       0.65194967 </v>
   <v>       0.18512902       0.41153420       0.65125703 </v>
   <v>       0.16415576       0.92947393       0.64424586 </v>
   <v>       0.63473572       0.48404385       0.65401527 </v>
   <v>       0.67253684       0.91832505       0.64942182 </v>
   <v>       0.06328652       0.18837533       0.67338652 </v>
   <v>       0.02486998       0.65528559       0.66070429 </v>
   <v>       0.54754526       0.18824317       0.67177603 </v>
   <v>       0.54348108       0.71369289       0.67572933 </v>
   <v>       0.21253067       0.44699971       0.67584215 </v>
   <v>       0.18380583       0.95236253       0.67073328 </v>
   <v>       0.69778317       0.43485685       0.66978057 </v>
   <v>       0.69681516       0.94679667       0.67497918 </v>
   <v>       0.43649832       0.33727510       0.64829831 </v>
   <v>       0.41718819       0.82971680       0.64390174 </v>
   <v>       0.92640866       0.31894612       0.65228592 </v>
   <v>       0.92843065       0.83161371       0.65788525 </v>
   <v>       0.34238440       0.06204602       0.65148681 </v>
   <v>       0.32029151       0.58791377       0.64698213 </v>
   <v>       0.82601099       0.07966327       0.65007253 </v>
   <v>       0.84971492       0.54481147       0.64809624 </v>
   <v>       0.00677663       0.25155220       0.63190904 </v>
   <v>       0.05295465       0.81528143       0.65056439 </v>
   <v>       0.51117728       0.25607554       0.62927003 </v>
   <v>       0.49658515       0.74183755       0.63043237 </v>
   <v>       0.26180175       0.99486754       0.63018207 </v>
   <v>       0.24986143       0.49640580       0.63131981 </v>
   <v>       0.75121076       0.99826444       0.63205299 </v>
   <v>       0.72620900       0.55716196       0.63849789 </v>
   <v>       0.44874502       0.30128397       0.76888902 </v>
   <v>       0.44874501       0.80128391       0.76888902 </v>
   <v>       0.94874497       0.30128397       0.76888902 </v>
   <v>       0.94874501       0.80128391       0.76888902 </v>
   <v>       0.30127600       0.05129450       0.76887296 </v>
   <v>       0.30127601       0.55129450       0.76887296 </v>
   <v>       0.80127594       0.05129450       0.76887296 </v>
   <v>       0.80127598       0.55129450       0.76887296 </v>
   <v>       0.07877100       0.17118050       0.74344197 </v>
   <v>       0.07877101       0.67118045       0.74344197 </v>
   <v>       0.57877100       0.17118050       0.74344197 </v>
   <v>       0.57877099       0.67118045       0.74344197 </v>
   <v>       0.17119950       0.42117448       0.74342103 </v>
   <v>       0.17119950       0.92117451       0.74342103 </v>
   <v>       0.67119951       0.42117448       0.74342103 </v>
   <v>       0.67119950       0.92117451       0.74342103 </v>
   <v>       0.05125600       0.19871499       0.76888902 </v>
   <v>       0.05125600       0.69871493       0.76888902 </v>
   <v>       0.55125603       0.19871499       0.76888902 </v>
   <v>       0.55125602       0.69871493       0.76888902 </v>
   <v>       0.19872349       0.44870397       0.76887205 </v>
   <v>       0.19872349       0.94870397       0.76887205 </v>
   <v>       0.69872352       0.44870397       0.76887205 </v>
   <v>       0.69872351       0.94870397       0.76887205 </v>
   <v>       0.42123152       0.32881747       0.74344197 </v>
   <v>       0.42123151       0.82881744       0.74344197 </v>
   <v>       0.92123147       0.32881747       0.74344197 </v>
   <v>       0.92123151       0.82881744       0.74344197 </v>
   <v>       0.32880050       0.07882500       0.74342103 </v>
   <v>       0.32880049       0.57882496       0.74342103 </v>
   <v>       0.82880048       0.07882500       0.74342103 </v>
   <v>       0.82880052       0.57882496       0.74342103 </v>
   <v>       0.00000350       0.25000148       0.72582199 </v>
   <v>       0.00000350       0.75000145       0.72582199 </v>
   <v>       0.50000351       0.25000148       0.72582199 </v>
   <v>       0.50000350       0.75000145       0.72582199 </v>
   <v>       0.25000050       0.00000000       0.72580398 </v>
   <v>       0.25000052       0.50000000       0.72580398 </v>
   <v>       0.75000050       0.00000000       0.72580398 </v>
   <v>       0.75000049       0.50000000       0.72580398 </v>
   <v>       0.79914025       0.50791459       0.51392841 </v>
   <v>       0.87818331       0.50015459       0.53080398 </v>
   <v>       0.75778268       0.61828576       0.53213201 </v>
   <v>       0.75572223       0.62021440       0.56039108 </v>
   <v>       0.68730448       0.44207986       0.54927478 </v>
   <v>       0.66813822       0.53398831       0.55716405 </v>
   <v>       0.79616214       0.42205839       0.56623270 </v>
   <v>       0.86384079       0.49176599       0.56833413 </v>
   <v>       0.85775818       0.37323179       0.53854308 </v>
   <v>       0.76337664       0.37592553       0.53185558 </v>
   <v>       0.78551423       0.38317257       0.49441572 </v>
   <v>       0.87895200       0.40974058       0.49721157 </v>
   <v>       0.89606124       0.61640890       0.53209440 </v>
   <v>       0.89722244       0.60531125       0.56044626 </v>
   <v>       0.86226982       0.68811990       0.54899127 </v>
   <v>       0.60092283       0.50582327       0.52479991 </v>
   <v>       0.68098409       0.48041754       0.51034713 </v>
   <v>       0.66668506       0.57409455       0.51861813 </v>
   <v>       0.70424802       0.49944198       0.58719679 </v>
   <v>       0.77503443       0.56839457       0.59058175 </v>
   <v>       0.78571007       0.47913915       0.60127212 </v>
   <v>       0.82169183       0.25827762       0.51189444 </v>
   <v>       0.84830272       0.27463459       0.48534824 </v>
   <v>       0.92460517       0.15888716       0.49869154 </v>
   <v>       0.97374414       0.38455067       0.51653721 </v>
   <v>       0.05616115       0.12579449       0.50378030 </v>
   <v>       0.10381786       0.35119955       0.52154584 </v>
   <v>       0.14774651       0.22246328       0.51496976 </v>
   <v>       0.99698275       0.23866130       0.55917117 </v>
   <v>       0.02462350       0.77573743       0.56007479 </v>
   <v>       0.52114628       0.27490832       0.55859177 </v>
   <v>       0.48670672       0.76396333       0.55519442 </v>
   <v>       0.24083510       0.50985036       0.55556498 </v>
   <v>       0.26732213       0.99575549       0.55660980 </v>
   <v>       0.77863385       0.99299607       0.56024627 </v>
   <v>       0.00845243       0.24489029       0.64927500 </v>
   <v>       0.01926613       0.76789111       0.65548694 </v>
   <v>       0.50667843       0.25105408       0.64663062 </v>
   <v>       0.49490663       0.75115735       0.64770676 </v>
   <v>       0.25292746       0.49965386       0.64874792 </v>
   <v>       0.25262233       0.99623091       0.64742405 </v>
   <v>       0.74158617       0.51521920       0.65036287 </v>
   <v>       0.74971603       0.99875715       0.64952017 </v>
   <v>       0.49998898       0.24999498       0.74327702 </v>
   <v>       0.49998903       0.74999496       0.74327702 </v>
   <v>       0.99998898       0.24999498       0.74327702 </v>
   <v>       0.99998903       0.74999496       0.74327702 </v>
   <v>       0.25000050       0.00000100       0.74325596 </v>
   <v>       0.25000052       0.50000100       0.74325596 </v>
   <v>       0.75000050       0.00000100       0.74325596 </v>
   <v>       0.75000049       0.50000100       0.74325596 </v>
   <v>       0.93869265       0.27452894       0.50676622 </v>
   <v>       0.96421067       0.20150270       0.50347192 </v>
   <v>       0.99061089       0.32764554       0.51323687 </v>
   <v>       0.03827500       0.18277335       0.50624682 </v>
   <v>       0.06529319       0.30876667       0.51606147 </v>
   <v>       0.08977813       0.23678389       0.51236981 </v>
   <v>       0.82065634       0.48179762       0.52866635 </v>
   <v>       0.78682747       0.59942267       0.54654663 </v>
   <v>       0.69464650       0.50007434       0.54480831 </v>
   <v>       0.80394975       0.48190158       0.56780760 </v>
   <v>       0.81796320       0.39764643       0.52725475 </v>
   <v>       0.83553157       0.37359881       0.50420873 </v>
   <v>       0.86567683       0.62768681       0.54695016 </v>
   <v>       0.66051555       0.51613456       0.52322227 </v>
   <v>       0.76427678       0.50990242       0.58746949 </v>
   <v>       0.85842777       0.29272889       0.50189543 </v>
   <v>       0.05971397       0.25681460       0.56846740 </v>
   <v>       0.03041225       0.71212486       0.57003858 </v>
   <v>       0.53080589       0.20507275       0.56363751 </v>
   <v>       0.54959969       0.73736348       0.56250643 </v>
   <v>       0.45744426       0.30928419       0.55725727 </v>
   <v>       0.42179174       0.73629369       0.55992156 </v>
   <v>       0.93174893       0.26000073       0.56611219 </v>
   <v>       0.96762867       0.82088163       0.56148224 </v>
   <v>       0.26255894       0.44396606       0.56203234 </v>
   <v>       0.20026464       0.01749654       0.56197190 </v>
   <v>       0.70869757       0.98933081       0.56611836 </v>
   <v>       0.32629132       0.03827154       0.55737045 </v>
   <v>       0.27727624       0.57135509       0.55931988 </v>
   <v>       0.81965738       0.05322398       0.56055200 </v>
   <v>       0.05674104       0.19829195       0.65732959 </v>
   <v>       0.05248967       0.70331192       0.65717075 </v>
   <v>       0.54598464       0.19809600       0.65569041 </v>
   <v>       0.53933171       0.71016083       0.65946070 </v>
   <v>       0.21503653       0.44992766       0.65957327 </v>
   <v>       0.19697063       0.95764796       0.65490742 </v>
   <v>       0.68888132       0.47455652       0.65847759 </v>
   <v>       0.70445035       0.95166982       0.65888410 </v>
   <v>       0.46368110       0.29766207       0.65676851 </v>
   <v>       0.44831137       0.80124474       0.65483221 </v>
   <v>       0.96127411       0.28498439       0.66037873 </v>
   <v>       0.94871814       0.77925898       0.65898758 </v>
   <v>       0.29884842       0.03554506       0.65884711 </v>
   <v>       0.29355372       0.55241561       0.65702607 </v>
   <v>       0.79302921       0.04633247       0.65921889 </v>
   <v>       0.81268091       0.51037232       0.65529946 </v>
   <v>       0.04586250       0.20411950       0.75272599 </v>
   <v>       0.04586250       0.70411946       0.75272599 </v>
   <v>       0.54586251       0.20411950       0.75272599 </v>
   <v>       0.54586250       0.70411946       0.75272599 </v>
   <v>       0.20411900       0.45410100       0.75270499 </v>
   <v>       0.20411899       0.95410095       0.75270499 </v>
   <v>       0.70411898       0.45410100       0.75270499 </v>
   <v>       0.70411896       0.95410095       0.75270499 </v>
   <v>       0.45414002       0.29588849       0.75272697 </v>
   <v>       0.45414001       0.79588852       0.75272697 </v>
   <v>       0.95414002       0.29588849       0.75272697 </v>
   <v>       0.95414006       0.79588852       0.75272697 </v>
   <v>       0.29588249       0.04590050       0.75270499 </v>
   <v>       0.29588248       0.54590053       0.75270499 </v>
   <v>       0.79588244       0.04590050       0.75270499 </v>
   <v>       0.79588248       0.54590053       0.75270499 </v>
   <v>       0.77700010       0.51567479       0.54684656 </v>
   <v>       0.51284326       0.98278823       0.55310709 </v>
   <v>       0.47453840       0.51112627       0.55307528 </v>
   <v>       0.00693177       0.01282455       0.55129075 </v>
   <v>       0.03095174       0.48775880       0.55430093 </v>
   <v>       0.25890742       0.23978716       0.55404649 </v>
   <v>       0.23002391       0.76572851       0.55069608 </v>
   <v>       0.73440294       0.23062361       0.55450196 </v>
   <v>       0.73276885       0.79510289       0.55411669 </v>
   <v>       0.99605755       0.98480079       0.65420165 </v>
   <v>       0.01015132       0.50501008       0.65496926 </v>
   <v>       0.49728787       0.00201278       0.65455066 </v>
   <v>       0.49388221       0.50305055       0.65387266 </v>
   <v>       0.26266330       0.24218541       0.65515857 </v>
   <v>       0.24592462       0.75617012       0.65358763 </v>
   <v>       0.74496173       0.26682203       0.65534323 </v>
   <v>       0.74905890       0.73325069       0.65471005 </v>
   <v>       0.13521921       0.11739115       0.60862124 </v>
   <v>       0.14721634       0.60857515       0.60641786 </v>
   <v>       0.63758375       0.11320156       0.60854445 </v>
   <v>       0.61906995       0.63076893       0.60703328 </v>
   <v>       0.36747646       0.38430907       0.60798971 </v>
   <v>       0.36418814       0.88518839       0.60544727 </v>
   <v>       0.88734228       0.36651141       0.61130818 </v>
   <v>       0.86166694       0.89028310       0.60652561 </v>
   <v>       0.12696093       0.36873116       0.61162514 </v>
   <v>       0.11553912       0.87301387       0.60590048 </v>
   <v>       0.61333716       0.36546844       0.60210102 </v>
   <v>       0.61594969       0.86364766       0.61249787 </v>
   <v>       0.39559641       0.13846142       0.60374600 </v>
   <v>       0.37925338       0.63395865       0.60717796 </v>
   <v>       0.88215941       0.13523815       0.61200296 </v>
   <v>       0.90193139       0.64694514       0.60987076 </v>
   <v>       0.00000000       0.00000000       0.75492797 </v>
   <v>       0.00000000       0.50000000       0.75492797 </v>
   <v>       0.50000000       0.00000000       0.75492797 </v>
   <v>       0.49999999       0.50000000       0.75492797 </v>
   <v>       0.25000050       0.25000000       0.75493902 </v>
   <v>       0.25000051       0.74999997       0.75493902 </v>
   <v>       0.75000047       0.25000000       0.75493902 </v>
   <v>       0.75000046       0.74999997       0.75493902 </v>
   <v>       0.13579050       0.11421000       0.70478299 </v>
   <v>       0.13579050       0.61420998       0.70478299 </v>
   <v>       0.63579045       0.11421000       0.70478299 </v>
   <v>       0.63579049       0.61420998       0.70478299 </v>
   <v>       0.36420952       0.38578999       0.70478299 </v>
   <v>       0.36420950       0.88578996       0.70478299 </v>
   <v>       0.86420954       0.38578999       0.70478299 </v>
   <v>       0.86420953       0.88578996       0.70478299 </v>
   <v>       0.11421799       0.36421899       0.70478098 </v>
   <v>       0.11421799       0.86421899       0.70478098 </v>
   <v>       0.61421800       0.36421899       0.70478098 </v>
   <v>       0.61421799       0.86421899       0.70478098 </v>
   <v>       0.38578201       0.13578149       0.70478202 </v>
   <v>       0.38578200       0.63578149       0.70478202 </v>
   <v>       0.88578199       0.13578149       0.70478202 </v>
   <v>       0.88578203       0.63578149       0.70478202 </v>
   <v>       0.13466700       0.11533200       0.80125603 </v>
   <v>       0.13466699       0.61533199       0.80125603 </v>
   <v>       0.63466699       0.11533200       0.80125603 </v>
   <v>       0.63466698       0.61533199       0.80125603 </v>
   <v>       0.36533300       0.38466799       0.80125603 </v>
   <v>       0.36533299       0.88466796       0.80125603 </v>
   <v>       0.86533295       0.38466799       0.80125603 </v>
   <v>       0.86533294       0.88466796       0.80125603 </v>
   <v>       0.11532850       0.36533700       0.80126500 </v>
   <v>       0.11532850       0.86533698       0.80126500 </v>
   <v>       0.61532850       0.36533700       0.80126500 </v>
   <v>       0.61532849       0.86533698       0.80126500 </v>
   <v>       0.38467151       0.13466300       0.80126500 </v>
   <v>       0.38467150       0.63466297       0.80126500 </v>
   <v>       0.88467149       0.13466300       0.80126500 </v>
   <v>       0.88467153       0.63466297       0.80126500 </v>
   <v>       0.99692343       0.00659671       0.60404190 </v>
   <v>       0.01042353       0.50102137       0.60372061 </v>
   <v>       0.50192973       0.99388138       0.60354693 </v>
   <v>       0.50016288       0.49996737       0.60264220 </v>
   <v>       0.25555156       0.24791824       0.60560111 </v>
   <v>       0.24353454       0.75585260       0.60289824 </v>
   <v>       0.74747191       0.25134117       0.60576856 </v>
   <v>       0.75153347       0.75742924       0.60450000 </v>
   <v>       0.00000050       0.00000050       0.70482896 </v>
   <v>       0.00000050       0.50000048       0.70482896 </v>
   <v>       0.50000048       0.00000050       0.70482896 </v>
   <v>       0.50000046       0.50000048       0.70482896 </v>
   <v>       0.24999999       0.24999947       0.70482499 </v>
   <v>       0.25000001       0.74999950       0.70482499 </v>
   <v>       0.74999999       0.24999947       0.70482499 </v>
   <v>       0.74999998       0.74999950       0.70482499 </v>
   <v>       0.00000000       0.00000000       0.80731797 </v>
   <v>       0.00000000       0.50000000       0.80731797 </v>
   <v>       0.50000000       0.00000000       0.80731797 </v>
   <v>       0.49999999       0.50000000       0.80731797 </v>
   <v>       0.24999999       0.25000000       0.80731797 </v>
   <v>       0.25000001       0.74999997       0.80731797 </v>
   <v>       0.74999999       0.25000000       0.80731797 </v>
   <v>       0.74999998       0.74999997       0.80731797 </v>
  </varray>
 </structure>
</modeling>
