<?xml version="1.0" encoding="ISO-8859-1"?>
<modeling>
 <generator>
  <i name="program" type="string">vasp </i>
  <i name="version" type="string">6.2.1  </i>
  <i name="subversion" type="string">16May21 (build Nov 15 2021 14:57:28) complex                          parallel </i>
  <i name="platform" type="string">LinuxPGI </i>
  <i name="date" type="string">2023 07 24 </i>
  <i name="time" type="string">21:30:38 </i>
 </generator>
 <incar>
  <i type="string" name="SYSTEM">PSC</i>
  <i type="int" name="ISTART">     1</i>
  <i type="string" name="PREC">Normal</i>
  <i name="BMIX">      0.01000000</i>
  <i name="AMIN">      0.01000000</i>
  <i type="int" name="ICHARG">     1</i>
  <i type="int" name="NELM">   600</i>
  <i type="int" name="ISYM">     0</i>
  <i name="ENCUT">    500.00000000</i>
  <i type="string" name="LREAL">Auto</i>
  <i type="int" name="ISMEAR">     0</i>
  <i name="SIGMA">      0.05000000</i>
  <i type="logical" name="LWAVE"> F  </i>
  <i type="logical" name="LVTOT"> T  </i>
  <i type="logical" name="GGA_COMPAT"> F  </i>
  <i type="logical" name="LDIPOL"> T  </i>
  <i type="int" name="IDIPOL">     3</i>
  <i type="int" name="IVDW">    12</i>
 </incar>
 <primitive_cell>
  <structure name="primitive_cell" >
   <crystal>
    <varray name="basis" >
     <v>      18.06080055       0.00000000       0.00000000 </v>
     <v>      -0.00491865      18.06279945       0.00000000 </v>
     <v>       0.00000000       0.00000000      62.48749924 </v>
    </varray>
    <i name="volume">  20385.21054034 </i>
    <varray name="rec_basis" >
     <v>       0.05536853       0.00001508      -0.00000000 </v>
     <v>       0.00000000       0.05536240       0.00000000 </v>
     <v>       0.00000000      -0.00000000       0.01600320 </v>
    </varray>
   </crystal>
   <varray name="positions" >
    <v>       0.44947180       0.30534546       0.58118961 </v>
    <v>       0.44439189       0.81237745       0.58052236 </v>
    <v>       0.96181815       0.31206320       0.57719229 </v>
    <v>       0.96852639       0.81335115       0.58150327 </v>
    <v>       0.31488748       0.03297463       0.58177731 </v>
    <v>       0.30156862       0.55156884       0.58095934 </v>
    <v>       0.78149856       0.06070347       0.58277708 </v>
    <v>       0.07446523       0.14456427       0.56171202 </v>
    <v>       0.06735609       0.65843524       0.55556931 </v>
    <v>       0.58955539       0.18534069       0.55669051 </v>
    <v>       0.56672052       0.66626139       0.55876893 </v>
    <v>       0.33796526       0.06832796       0.55648862 </v>
    <v>       0.31545390       0.58989854       0.55549984 </v>
    <v>       0.82479339       0.08470305       0.55865031 </v>
    <v>       0.03817777       0.19025281       0.58511819 </v>
    <v>       0.05057763       0.69669219       0.58083096 </v>
    <v>       0.56734893       0.23155623       0.58079854 </v>
    <v>       0.52329282       0.69765982       0.58237307 </v>
    <v>       0.20860824       0.44202126       0.58230043 </v>
    <v>       0.19741885       0.94972413       0.58251623 </v>
    <v>       0.69383527       0.94726346       0.58093498 </v>
    <v>       0.39873568       0.30642007       0.55752905 </v>
    <v>       0.44043855       0.85591523       0.55547414 </v>
    <v>       0.95442035       0.33176857       0.55035709 </v>
    <v>       0.93617917       0.84056102       0.55714409 </v>
    <v>       0.16903167       0.41756879       0.55765322 </v>
    <v>       0.15235964       0.93891838       0.55785926 </v>
    <v>       0.68769396       0.90480478       0.55564654 </v>
    <v>       0.48528472       0.22862588       0.53905569 </v>
    <v>       0.51669589       0.76777210       0.53887585 </v>
    <v>       0.02046939       0.23417450       0.53778115 </v>
    <v>       0.99558709       0.74604009       0.53772150 </v>
    <v>       0.23303244       0.50851162       0.53841225 </v>
    <v>       0.23704635       0.01285209       0.53911857 </v>
    <v>       0.76917025       0.98817039       0.53924238 </v>
    <v>       0.45474799       0.30632675       0.67568727 </v>
    <v>       0.44695335       0.80118159       0.67528900 </v>
    <v>       0.94401175       0.29982950       0.67461766 </v>
    <v>       0.94627080       0.80485478       0.67593274 </v>
    <v>       0.29562908       0.04976718       0.67549100 </v>
    <v>       0.29833024       0.55520274       0.67486154 </v>
    <v>       0.80485357       0.04886929       0.67412763 </v>
    <v>       0.80262571       0.56840977       0.67507148 </v>
    <v>       0.08104095       0.17242886       0.65011038 </v>
    <v>       0.08145645       0.67558441       0.65189430 </v>
    <v>       0.57145725       0.16384609       0.64996368 </v>
    <v>       0.57098066       0.66801000       0.64870720 </v>
    <v>       0.17708011       0.41786618       0.64818885 </v>
    <v>       0.16982425       0.91928234       0.64739969 </v>
    <v>       0.68145047       0.41901888       0.65429377 </v>
    <v>       0.66199432       0.92789756       0.64933324 </v>
    <v>       0.04939334       0.20121305       0.67550248 </v>
    <v>       0.04296483       0.70095239       0.67696780 </v>
    <v>       0.55414326       0.20311606       0.67525762 </v>
    <v>       0.54715222       0.69384851       0.67472565 </v>
    <v>       0.20244524       0.44645700       0.67398441 </v>
    <v>       0.19464080       0.94487539       0.67365091 </v>
    <v>       0.70027510       0.46054180       0.67791977 </v>
    <v>       0.69269803       0.95593047       0.67487284 </v>
    <v>       0.41703998       0.32651736       0.65054100 </v>
    <v>       0.41786898       0.83173483       0.65017368 </v>
    <v>       0.91769196       0.32483979       0.64862546 </v>
    <v>       0.92725334       0.83897947       0.65043069 </v>
    <v>       0.32599615       0.08130660       0.65047404 </v>
    <v>       0.32718367       0.58548634       0.64935510 </v>
    <v>       0.83579425       0.07123448       0.64837932 </v>
    <v>       0.83354707       0.58033044       0.64876288 </v>
    <v>       0.00255344       0.24611784       0.63146517 </v>
    <v>       0.01280654       0.76060371       0.63329280 </v>
    <v>       0.48540454       0.23663709       0.63299324 </v>
    <v>       0.49166539       0.75251842       0.63154111 </v>
    <v>       0.24975982       0.00222403       0.63110511 </v>
    <v>       0.25497327       0.50448928       0.63093821 </v>
    <v>       0.74721019       0.99567692       0.63104138 </v>
    <v>       0.76241092       0.48858973       0.63395279 </v>
    <v>       0.44874502       0.30128397       0.76888902 </v>
    <v>       0.44874501       0.80128391       0.76888902 </v>
    <v>       0.94874497       0.30128397       0.76888902 </v>
    <v>       0.94874501       0.80128391       0.76888902 </v>
    <v>       0.30127600       0.05129450       0.76887296 </v>
    <v>       0.30127601       0.55129450       0.76887296 </v>
    <v>       0.80127594       0.05129450       0.76887296 </v>
    <v>       0.80127598       0.55129450       0.76887296 </v>
    <v>       0.07877100       0.17118050       0.74344197 </v>
    <v>       0.07877101       0.67118045       0.74344197 </v>
    <v>       0.57877100       0.17118050       0.74344197 </v>
    <v>       0.57877099       0.67118045       0.74344197 </v>
    <v>       0.17119950       0.42117448       0.74342103 </v>
    <v>       0.17119950       0.92117451       0.74342103 </v>
    <v>       0.67119951       0.42117448       0.74342103 </v>
    <v>       0.67119950       0.92117451       0.74342103 </v>
    <v>       0.05125600       0.19871499       0.76888902 </v>
    <v>       0.05125600       0.69871493       0.76888902 </v>
    <v>       0.55125603       0.19871499       0.76888902 </v>
    <v>       0.55125602       0.69871493       0.76888902 </v>
    <v>       0.19872349       0.44870397       0.76887205 </v>
    <v>       0.19872349       0.94870397       0.76887205 </v>
    <v>       0.69872352       0.44870397       0.76887205 </v>
    <v>       0.69872351       0.94870397       0.76887205 </v>
    <v>       0.42123152       0.32881747       0.74344197 </v>
    <v>       0.42123151       0.82881744       0.74344197 </v>
    <v>       0.92123147       0.32881747       0.74344197 </v>
    <v>       0.92123151       0.82881744       0.74344197 </v>
    <v>       0.32880050       0.07882500       0.74342103 </v>
    <v>       0.32880049       0.57882496       0.74342103 </v>
    <v>       0.82880048       0.07882500       0.74342103 </v>
    <v>       0.82880052       0.57882496       0.74342103 </v>
    <v>       0.00000350       0.25000148       0.72582199 </v>
    <v>       0.00000350       0.75000145       0.72582199 </v>
    <v>       0.50000351       0.25000148       0.72582199 </v>
    <v>       0.50000350       0.75000145       0.72582199 </v>
    <v>       0.25000050       0.00000000       0.72580398 </v>
    <v>       0.25000052       0.50000000       0.72580398 </v>
    <v>       0.75000050       0.00000000       0.72580398 </v>
    <v>       0.75000049       0.50000000       0.72580398 </v>
    <v>       0.78473761       0.56706148       0.52829597 </v>
    <v>       0.73384205       0.48107825       0.53026213 </v>
    <v>       0.87386710       0.50579397       0.54997933 </v>
    <v>       0.85002296       0.47899058       0.57691226 </v>
    <v>       0.74058884       0.64019337       0.56832052 </v>
    <v>       0.80185501       0.59175739       0.58605917 </v>
    <v>       0.64890532       0.53787924       0.57283033 </v>
    <v>       0.67563757       0.44995216       0.56189901 </v>
    <v>       0.62381474       0.54710363       0.54192840 </v>
    <v>       0.67145985       0.63296220       0.54416713 </v>
    <v>       0.62626411       0.65965186       0.51193723 </v>
    <v>       0.70142188       0.60786550       0.50325627 </v>
    <v>       0.82607465       0.39429311       0.53627853 </v>
    <v>       0.75734389       0.38972017       0.55663972 </v>
    <v>       0.84734039       0.36463564       0.56232268 </v>
    <v>       0.86285928       0.69108038       0.56089319 </v>
    <v>       0.84923334       0.62599718       0.54131896 </v>
    <v>       0.90645195       0.60332716       0.56307264 </v>
    <v>       0.76835920       0.50262325       0.59979807 </v>
    <v>       0.73981934       0.40968882       0.59359572 </v>
    <v>       0.67585015       0.47106353       0.60656267 </v>
    <v>       0.54629975       0.54586457       0.51152492 </v>
    <v>       0.58053009       0.56433543       0.48490674 </v>
    <v>       0.72127886       0.50064218       0.47884944 </v>
    <v>       0.55521281       0.42343953       0.52337812 </v>
    <v>       0.78155834       0.37635977       0.47991319 </v>
    <v>       0.61677893       0.30141488       0.52495320 </v>
    <v>       0.73234718       0.27673662       0.50364080 </v>
    <v>       0.01385294       0.23861386       0.55509461 </v>
    <v>       0.00256979       0.74899444       0.55505285 </v>
    <v>       0.49405951       0.24553503       0.55579745 </v>
    <v>       0.50363697       0.76148173       0.55587528 </v>
    <v>       0.24187191       0.50358723       0.55591136 </v>
    <v>       0.24474402       0.00379276       0.55655541 </v>
    <v>       0.75656496       0.99484737       0.55653239 </v>
    <v>       0.99997279       0.24802779       0.64909620 </v>
    <v>       0.00410727       0.75806979       0.65069240 </v>
    <v>       0.49393542       0.24494789       0.64994140 </v>
    <v>       0.49466073       0.74980193       0.64914687 </v>
    <v>       0.25207948       0.50089228       0.64842529 </v>
    <v>       0.24824744       0.00065653       0.64854604 </v>
    <v>       0.75722541       0.49911638       0.65138187 </v>
    <v>       0.74929937       0.99997688       0.64844232 </v>
    <v>       0.49998898       0.24999498       0.74327702 </v>
    <v>       0.49998903       0.74999496       0.74327702 </v>
    <v>       0.99998898       0.24999498       0.74327702 </v>
    <v>       0.99998903       0.74999496       0.74327702 </v>
    <v>       0.25000050       0.00000100       0.74325596 </v>
    <v>       0.25000052       0.50000100       0.74325596 </v>
    <v>       0.75000050       0.00000100       0.74325596 </v>
    <v>       0.75000049       0.50000100       0.74325596 </v>
    <v>       0.63172933       0.47135434       0.50039937 </v>
    <v>       0.69554185       0.45591160       0.48821099 </v>
    <v>       0.60366231       0.41267740       0.51318864 </v>
    <v>       0.73044550       0.38659827       0.48941576 </v>
    <v>       0.63940116       0.34361965       0.51427669 </v>
    <v>       0.70314038       0.33062402       0.50227060 </v>
    <v>       0.73755454       0.53801509       0.53662692 </v>
    <v>       0.83103479       0.47952901       0.56021697 </v>
    <v>       0.78668761       0.60044958       0.56923324 </v>
    <v>       0.69514084       0.49577988       0.57169803 </v>
    <v>       0.66829611       0.58075583       0.53464227 </v>
    <v>       0.64838025       0.60499906       0.51232446 </v>
    <v>       0.81587177       0.40409815       0.55325397 </v>
    <v>       0.85498635       0.63125493       0.55852870 </v>
    <v>       0.71995830       0.46808870       0.59408171 </v>
    <v>       0.59695934       0.54730806       0.50134735 </v>
    <v>       0.04425906       0.18913866       0.56807029 </v>
    <v>       0.04183811       0.69861968       0.56446184 </v>
    <v>       0.55337421       0.21916687       0.56504533 </v>
    <v>       0.53344369       0.70529267       0.56627165 </v>
    <v>       0.44461456       0.28807707       0.56542101 </v>
    <v>       0.45910413       0.81299545       0.56451910 </v>
    <v>       0.97384324       0.29588168       0.56146954 </v>
    <v>       0.96788905       0.80289678       0.56503458 </v>
    <v>       0.20522652       0.45167115       0.56618331 </v>
    <v>       0.19620620       0.96168968       0.56651846 </v>
    <v>       0.70997608       0.94738639       0.56528634 </v>
    <v>       0.30188892       0.03620591       0.56587313 </v>
    <v>       0.28850644       0.55029087       0.56505149 </v>
    <v>       0.78969281       0.04881616       0.56693316 </v>
    <v>       0.04707553       0.20385688       0.65888856 </v>
    <v>       0.04630974       0.70829127       0.66080887 </v>
    <v>       0.54262371       0.20089014       0.65892849 </v>
    <v>       0.53880787       0.70270664       0.65851819 </v>
    <v>       0.20863389       0.45156835       0.65764319 </v>
    <v>       0.20249656       0.95324364       0.65757928 </v>
    <v>       0.70978613       0.45665942       0.66179380 </v>
    <v>       0.69939889       0.95996602       0.65861659 </v>
    <v>       0.45277893       0.29562220       0.65941253 </v>
    <v>       0.45082987       0.79710476       0.65877312 </v>
    <v>       0.95209728       0.29244537       0.65828584 </v>
    <v>       0.95683451       0.80318838       0.65954458 </v>
    <v>       0.29273495       0.04677651       0.65900107 </v>
    <v>       0.29409252       0.54909891       0.65860426 </v>
    <v>       0.79970647       0.04259978       0.65774404 </v>
    <v>       0.79959431       0.55193573       0.65915857 </v>
    <v>       0.04586250       0.20411950       0.75272599 </v>
    <v>       0.04586250       0.70411946       0.75272599 </v>
    <v>       0.54586251       0.20411950       0.75272599 </v>
    <v>       0.54586250       0.70411946       0.75272599 </v>
    <v>       0.20411900       0.45410100       0.75270499 </v>
    <v>       0.20411899       0.95410095       0.75270499 </v>
    <v>       0.70411898       0.45410100       0.75270499 </v>
    <v>       0.70411896       0.95410095       0.75270499 </v>
    <v>       0.45414002       0.29588849       0.75272697 </v>
    <v>       0.45414001       0.79588852       0.75272697 </v>
    <v>       0.95414002       0.29588849       0.75272697 </v>
    <v>       0.95414006       0.79588852       0.75272697 </v>
    <v>       0.29588249       0.04590050       0.75270499 </v>
    <v>       0.29588248       0.54590053       0.75270499 </v>
    <v>       0.79588244       0.04590050       0.75270499 </v>
    <v>       0.79588248       0.54590053       0.75270499 </v>
    <v>       0.75984327       0.52864186       0.55940907 </v>
    <v>       0.49842717       0.01155327       0.55210964 </v>
    <v>       0.47975850       0.51806759       0.55715795 </v>
    <v>       0.99855818       0.99982565       0.55196978 </v>
    <v>       0.02208138       0.48121558       0.54959595 </v>
    <v>       0.25306550       0.25028661       0.55163811 </v>
    <v>       0.25000324       0.75176178       0.55221470 </v>
    <v>       0.75731289       0.22818008       0.55535168 </v>
    <v>       0.73434750       0.77023490       0.54807208 </v>
    <v>       0.00371073       0.00270953       0.65423052 </v>
    <v>       0.00717464       0.50453047       0.65347708 </v>
    <v>       0.50396872       0.99923007       0.65512353 </v>
    <v>       0.49809740       0.49795451       0.65615675 </v>
    <v>       0.24942656       0.24935975       0.65511828 </v>
    <v>       0.24612723       0.75161854       0.65377438 </v>
    <v>       0.74630726       0.24874252       0.65578516 </v>
    <v>       0.75056177       0.75622709       0.65420165 </v>
    <v>       0.14432934       0.10527352       0.60992131 </v>
    <v>       0.14523192       0.60345192       0.60816156 </v>
    <v>       0.64549318       0.10305769       0.60843358 </v>
    <v>       0.62577616       0.62496298       0.61245978 </v>
    <v>       0.35293586       0.39319471       0.60917476 </v>
    <v>       0.35515376       0.89387271       0.60920992 </v>
    <v>       0.87864847       0.37301617       0.61284969 </v>
    <v>       0.85505646       0.89666824       0.60788971 </v>
    <v>       0.10828778       0.35641929       0.60767574 </v>
    <v>       0.10827890       0.85796663       0.60903899 </v>
    <v>       0.58655800       0.33792842       0.60796627 </v>
    <v>       0.60607481       0.86063080       0.60980178 </v>
    <v>       0.39201200       0.14117633       0.60782940 </v>
    <v>       0.38726340       0.64130603       0.60967034 </v>
    <v>       0.89347320       0.14046189       0.60839616 </v>
    <v>       0.91150649       0.66060449       0.61299718 </v>
    <v>       0.00000000       0.00000000       0.75492797 </v>
    <v>       0.00000000       0.50000000       0.75492797 </v>
    <v>       0.50000000       0.00000000       0.75492797 </v>
    <v>       0.49999999       0.50000000       0.75492797 </v>
    <v>       0.25000050       0.25000000       0.75493902 </v>
    <v>       0.25000051       0.74999997       0.75493902 </v>
    <v>       0.75000047       0.25000000       0.75493902 </v>
    <v>       0.75000046       0.74999997       0.75493902 </v>
    <v>       0.13579050       0.11421000       0.70478299 </v>
    <v>       0.13579050       0.61420998       0.70478299 </v>
    <v>       0.63579045       0.11421000       0.70478299 </v>
    <v>       0.63579049       0.61420998       0.70478299 </v>
    <v>       0.36420952       0.38578999       0.70478299 </v>
    <v>       0.36420950       0.88578996       0.70478299 </v>
    <v>       0.86420954       0.38578999       0.70478299 </v>
    <v>       0.86420953       0.88578996       0.70478299 </v>
    <v>       0.11421799       0.36421899       0.70478098 </v>
    <v>       0.11421799       0.86421899       0.70478098 </v>
    <v>       0.61421800       0.36421899       0.70478098 </v>
    <v>       0.61421799       0.86421899       0.70478098 </v>
    <v>       0.38578201       0.13578149       0.70478202 </v>
    <v>       0.38578200       0.63578149       0.70478202 </v>
    <v>       0.88578199       0.13578149       0.70478202 </v>
    <v>       0.88578203       0.63578149       0.70478202 </v>
    <v>       0.13466700       0.11533200       0.80125603 </v>
    <v>       0.13466699       0.61533199       0.80125603 </v>
    <v>       0.63466699       0.11533200       0.80125603 </v>
    <v>       0.63466698       0.61533199       0.80125603 </v>
    <v>       0.36533300       0.38466799       0.80125603 </v>
    <v>       0.36533299       0.88466796       0.80125603 </v>
    <v>       0.86533295       0.38466799       0.80125603 </v>
    <v>       0.86533294       0.88466796       0.80125603 </v>
    <v>       0.11532850       0.36533700       0.80126500 </v>
    <v>       0.11532850       0.86533698       0.80126500 </v>
    <v>       0.61532850       0.36533700       0.80126500 </v>
    <v>       0.61532849       0.86533698       0.80126500 </v>
    <v>       0.38467151       0.13466300       0.80126500 </v>
    <v>       0.38467150       0.63466297       0.80126500 </v>
    <v>       0.88467149       0.13466300       0.80126500 </v>
    <v>       0.88467153       0.63466297       0.80126500 </v>
    <v>       0.00052273       0.00037303       0.60317722 </v>
    <v>       0.00185634       0.50381025       0.60316544 </v>
    <v>       0.49735364       0.00290360       0.60190963 </v>
    <v>       0.49567242       0.49786349       0.60588986 </v>
    <v>       0.25073464       0.24792370       0.60214284 </v>
    <v>       0.24886516       0.74856910       0.60197514 </v>
    <v>       0.74781889       0.24571906       0.60537969 </v>
    <v>       0.74856506       0.75897685       0.60451898 </v>
    <v>       0.00000050       0.00000050       0.70482896 </v>
    <v>       0.00000050       0.50000048       0.70482896 </v>
    <v>       0.50000048       0.00000050       0.70482896 </v>
    <v>       0.50000046       0.50000048       0.70482896 </v>
    <v>       0.24999999       0.24999947       0.70482499 </v>
    <v>       0.25000001       0.74999950       0.70482499 </v>
    <v>       0.74999999       0.24999947       0.70482499 </v>
    <v>       0.74999998       0.74999950       0.70482499 </v>
    <v>       0.00000000       0.00000000       0.80731797 </v>
    <v>       0.00000000       0.50000000       0.80731797 </v>
    <v>       0.50000000       0.00000000       0.80731797 </v>
    <v>       0.49999999       0.50000000       0.80731797 </v>
    <v>       0.24999999       0.25000000       0.80731797 </v>
    <v>       0.25000001       0.74999997       0.80731797 </v>
    <v>       0.74999999       0.25000000       0.80731797 </v>
    <v>       0.74999998       0.74999997       0.80731797 </v>
   </varray>
  </structure>
  <varray name="primitive_index" >
   <v type="int" >        1 </v>
   <v type="int" >        2 </v>
   <v type="int" >        3 </v>
   <v type="int" >        4 </v>
   <v type="int" >        5 </v>
   <v type="int" >        6 </v>
   <v type="int" >        7 </v>
   <v type="int" >        8 </v>
   <v type="int" >        9 </v>
   <v type="int" >       10 </v>
   <v type="int" >       11 </v>
   <v type="int" >       12 </v>
   <v type="int" >       13 </v>
   <v type="int" >       14 </v>
   <v type="int" >       15 </v>
   <v type="int" >       16 </v>
   <v type="int" >       17 </v>
   <v type="int" >       18 </v>
   <v type="int" >       19 </v>
   <v type="int" >       20 </v>
   <v type="int" >       21 </v>
   <v type="int" >       22 </v>
   <v type="int" >       23 </v>
   <v type="int" >       24 </v>
   <v type="int" >       25 </v>
   <v type="int" >       26 </v>
   <v type="int" >       27 </v>
   <v type="int" >       28 </v>
   <v type="int" >       29 </v>
   <v type="int" >       30 </v>
   <v type="int" >       31 </v>
   <v type="int" >       32 </v>
   <v type="int" >       33 </v>
   <v type="int" >       34 </v>
   <v type="int" >       35 </v>
   <v type="int" >       36 </v>
   <v type="int" >       37 </v>
   <v type="int" >       38 </v>
   <v type="int" >       39 </v>
   <v type="int" >       40 </v>
   <v type="int" >       41 </v>
   <v type="int" >       42 </v>
   <v type="int" >       43 </v>
   <v type="int" >       44 </v>
   <v type="int" >       45 </v>
   <v type="int" >       46 </v>
   <v type="int" >       47 </v>
   <v type="int" >       48 </v>
   <v type="int" >       49 </v>
   <v type="int" >       50 </v>
   <v type="int" >       51 </v>
   <v type="int" >       52 </v>
   <v type="int" >       53 </v>
   <v type="int" >       54 </v>
   <v type="int" >       55 </v>
   <v type="int" >       56 </v>
   <v type="int" >       57 </v>
   <v type="int" >       58 </v>
   <v type="int" >       59 </v>
   <v type="int" >       60 </v>
   <v type="int" >       61 </v>
   <v type="int" >       62 </v>
   <v type="int" >       63 </v>
   <v type="int" >       64 </v>
   <v type="int" >       65 </v>
   <v type="int" >       66 </v>
   <v type="int" >       67 </v>
   <v type="int" >       68 </v>
   <v type="int" >       69 </v>
   <v type="int" >       70 </v>
   <v type="int" >       71 </v>
   <v type="int" >       72 </v>
   <v type="int" >       73 </v>
   <v type="int" >       74 </v>
   <v type="int" >       75 </v>
   <v type="int" >       76 </v>
   <v type="int" >       77 </v>
   <v type="int" >       78 </v>
   <v type="int" >       79 </v>
   <v type="int" >       80 </v>
   <v type="int" >       81 </v>
   <v type="int" >       82 </v>
   <v type="int" >       83 </v>
   <v type="int" >       84 </v>
   <v type="int" >       85 </v>
   <v type="int" >       86 </v>
   <v type="int" >       87 </v>
   <v type="int" >       88 </v>
   <v type="int" >       89 </v>
   <v type="int" >       90 </v>
   <v type="int" >       91 </v>
   <v type="int" >       92 </v>
   <v type="int" >       93 </v>
   <v type="int" >       94 </v>
   <v type="int" >       95 </v>
   <v type="int" >       96 </v>
   <v type="int" >       97 </v>
   <v type="int" >       98 </v>
   <v type="int" >       99 </v>
   <v type="int" >      100 </v>
   <v type="int" >      101 </v>
   <v type="int" >      102 </v>
   <v type="int" >      103 </v>
   <v type="int" >      104 </v>
   <v type="int" >      105 </v>
   <v type="int" >      106 </v>
   <v type="int" >      107 </v>
   <v type="int" >      108 </v>
   <v type="int" >      109 </v>
   <v type="int" >      110 </v>
   <v type="int" >      111 </v>
   <v type="int" >      112 </v>
   <v type="int" >      113 </v>
   <v type="int" >      114 </v>
   <v type="int" >      115 </v>
   <v type="int" >      116 </v>
   <v type="int" >      117 </v>
   <v type="int" >      118 </v>
   <v type="int" >      119 </v>
   <v type="int" >      120 </v>
   <v type="int" >      121 </v>
   <v type="int" >      122 </v>
   <v type="int" >      123 </v>
   <v type="int" >      124 </v>
   <v type="int" >      125 </v>
   <v type="int" >      126 </v>
   <v type="int" >      127 </v>
   <v type="int" >      128 </v>
   <v type="int" >      129 </v>
   <v type="int" >      130 </v>
   <v type="int" >      131 </v>
   <v type="int" >      132 </v>
   <v type="int" >      133 </v>
   <v type="int" >      134 </v>
   <v type="int" >      135 </v>
   <v type="int" >      136 </v>
   <v type="int" >      137 </v>
   <v type="int" >      138 </v>
   <v type="int" >      139 </v>
   <v type="int" >      140 </v>
   <v type="int" >      141 </v>
   <v type="int" >      142 </v>
   <v type="int" >      143 </v>
   <v type="int" >      144 </v>
   <v type="int" >      145 </v>
   <v type="int" >      146 </v>
   <v type="int" >      147 </v>
   <v type="int" >      148 </v>
   <v type="int" >      149 </v>
   <v type="int" >      150 </v>
   <v type="int" >      151 </v>
   <v type="int" >      152 </v>
   <v type="int" >      153 </v>
   <v type="int" >      154 </v>
   <v type="int" >      155 </v>
   <v type="int" >      156 </v>
   <v type="int" >      157 </v>
   <v type="int" >      158 </v>
   <v type="int" >      159 </v>
   <v type="int" >      160 </v>
   <v type="int" >      161 </v>
   <v type="int" >      162 </v>
   <v type="int" >      163 </v>
   <v type="int" >      164 </v>
   <v type="int" >      165 </v>
   <v type="int" >      166 </v>
   <v type="int" >      167 </v>
   <v type="int" >      168 </v>
   <v type="int" >      169 </v>
   <v type="int" >      170 </v>
   <v type="int" >      171 </v>
   <v type="int" >      172 </v>
   <v type="int" >      173 </v>
   <v type="int" >      174 </v>
   <v type="int" >      175 </v>
   <v type="int" >      176 </v>
   <v type="int" >      177 </v>
   <v type="int" >      178 </v>
   <v type="int" >      179 </v>
   <v type="int" >      180 </v>
   <v type="int" >      181 </v>
   <v type="int" >      182 </v>
   <v type="int" >      183 </v>
   <v type="int" >      184 </v>
   <v type="int" >      185 </v>
   <v type="int" >      186 </v>
   <v type="int" >      187 </v>
   <v type="int" >      188 </v>
   <v type="int" >      189 </v>
   <v type="int" >      190 </v>
   <v type="int" >      191 </v>
   <v type="int" >      192 </v>
   <v type="int" >      193 </v>
   <v type="int" >      194 </v>
   <v type="int" >      195 </v>
   <v type="int" >      196 </v>
   <v type="int" >      197 </v>
   <v type="int" >      198 </v>
   <v type="int" >      199 </v>
   <v type="int" >      200 </v>
   <v type="int" >      201 </v>
   <v type="int" >      202 </v>
   <v type="int" >      203 </v>
   <v type="int" >      204 </v>
   <v type="int" >      205 </v>
   <v type="int" >      206 </v>
   <v type="int" >      207 </v>
   <v type="int" >      208 </v>
   <v type="int" >      209 </v>
   <v type="int" >      210 </v>
   <v type="int" >      211 </v>
   <v type="int" >      212 </v>
   <v type="int" >      213 </v>
   <v type="int" >      214 </v>
   <v type="int" >      215 </v>
   <v type="int" >      216 </v>
   <v type="int" >      217 </v>
   <v type="int" >      218 </v>
   <v type="int" >      219 </v>
   <v type="int" >      220 </v>
   <v type="int" >      221 </v>
   <v type="int" >      222 </v>
   <v type="int" >      223 </v>
   <v type="int" >      224 </v>
   <v type="int" >      225 </v>
   <v type="int" >      226 </v>
   <v type="int" >      227 </v>
   <v type="int" >      228 </v>
   <v type="int" >      229 </v>
   <v type="int" >      230 </v>
   <v type="int" >      231 </v>
   <v type="int" >      232 </v>
   <v type="int" >      233 </v>
   <v type="int" >      234 </v>
   <v type="int" >      235 </v>
   <v type="int" >      236 </v>
   <v type="int" >      237 </v>
   <v type="int" >      238 </v>
   <v type="int" >      239 </v>
   <v type="int" >      240 </v>
   <v type="int" >      241 </v>
   <v type="int" >      242 </v>
   <v type="int" >      243 </v>
   <v type="int" >      244 </v>
   <v type="int" >      245 </v>
   <v type="int" >      246 </v>
   <v type="int" >      247 </v>
   <v type="int" >      248 </v>
   <v type="int" >      249 </v>
   <v type="int" >      250 </v>
   <v type="int" >      251 </v>
   <v type="int" >      252 </v>
   <v type="int" >      253 </v>
   <v type="int" >      254 </v>
   <v type="int" >      255 </v>
   <v type="int" >      256 </v>
   <v type="int" >      257 </v>
   <v type="int" >      258 </v>
   <v type="int" >      259 </v>
   <v type="int" >      260 </v>
   <v type="int" >      261 </v>
   <v type="int" >      262 </v>
   <v type="int" >      263 </v>
   <v type="int" >      264 </v>
   <v type="int" >      265 </v>
   <v type="int" >      266 </v>
   <v type="int" >      267 </v>
   <v type="int" >      268 </v>
   <v type="int" >      269 </v>
   <v type="int" >      270 </v>
   <v type="int" >      271 </v>
   <v type="int" >      272 </v>
   <v type="int" >      273 </v>
   <v type="int" >      274 </v>
   <v type="int" >      275 </v>
   <v type="int" >      276 </v>
   <v type="int" >      277 </v>
   <v type="int" >      278 </v>
   <v type="int" >      279 </v>
   <v type="int" >      280 </v>
   <v type="int" >      281 </v>
   <v type="int" >      282 </v>
   <v type="int" >      283 </v>
   <v type="int" >      284 </v>
   <v type="int" >      285 </v>
   <v type="int" >      286 </v>
   <v type="int" >      287 </v>
   <v type="int" >      288 </v>
   <v type="int" >      289 </v>
   <v type="int" >      290 </v>
   <v type="int" >      291 </v>
   <v type="int" >      292 </v>
   <v type="int" >      293 </v>
   <v type="int" >      294 </v>
   <v type="int" >      295 </v>
   <v type="int" >      296 </v>
   <v type="int" >      297 </v>
   <v type="int" >      298 </v>
   <v type="int" >      299 </v>
   <v type="int" >      300 </v>
   <v type="int" >      301 </v>
   <v type="int" >      302 </v>
   <v type="int" >      303 </v>
   <v type="int" >      304 </v>
   <v type="int" >      305 </v>
   <v type="int" >      306 </v>
   <v type="int" >      307 </v>
   <v type="int" >      308 </v>
   <v type="int" >      309 </v>
   <v type="int" >      310 </v>
   <v type="int" >      311 </v>
   <v type="int" >      312 </v>
   <v type="int" >      313 </v>
   <v type="int" >      314 </v>
   <v type="int" >      315 </v>
   <v type="int" >      316 </v>
   <v type="int" >      317 </v>
   <v type="int" >      318 </v>
   <v type="int" >      319 </v>
   <v type="int" >      320 </v>
   <v type="int" >      321 </v>
   <v type="int" >      322 </v>
   <v type="int" >      323 </v>
   <v type="int" >      324 </v>
   <v type="int" >      325 </v>
  </varray>
 </primitive_cell>
 <kpoints>
  <generation param="Gamma">
   <v type="int" name="divisions">       3        3        1 </v>
   <v name="usershift">      0.00000000       0.00000000       0.00000000 </v>
   <v name="genvec1">      0.33333333       0.00000000       0.00000000 </v>
   <v name="genvec2">      0.00000000       0.33333333       0.00000000 </v>
   <v name="genvec3">      0.00000000       0.00000000       1.00000000 </v>
   <v name="shift">      0.00000000       0.00000000       0.00000000 </v>
  </generation>
  <varray name="kpointlist" >
   <v>       0.00000000       0.00000000       0.00000000 </v>
   <v>       0.33333333       0.00000000       0.00000000 </v>
   <v>       0.00000000       0.33333333       0.00000000 </v>
   <v>       0.33333333       0.33333333       0.00000000 </v>
   <v>      -0.33333333       0.33333333       0.00000000 </v>
  </varray>
  <varray name="weights" >
   <v>       0.11111111 </v>
   <v>       0.22222222 </v>
   <v>       0.22222222 </v>
   <v>       0.22222222 </v>
   <v>       0.22222222 </v>
  </varray>
 </kpoints>
 <parameters>
  <separator name="general" >
   <i type="string" name="SYSTEM">PSC</i>
   <i type="logical" name="LCOMPAT"> F  </i>
  </separator>
  <separator name="electronic" >
   <i type="string" name="PREC">normal</i>
   <i name="ENMAX">    500.00000000</i>
   <i name="ENAUG">    644.87300000</i>
   <i name="EDIFF">      0.00010000</i>
   <i type="int" name="IALGO">    38</i>
   <i type="int" name="IWAVPR">    10</i>
   <i type="int" name="NBANDS">   732</i>
   <i type="int" name="NBANDSLOW">    -1</i>
   <i type="int" name="NBANDSHIGH">    -1</i>
   <i name="NELECT">   1134.00000000</i>
   <i type="int" name="TURBO">     0</i>
   <i type="int" name="IRESTART">     0</i>
   <i type="int" name="NREBOOT">     0</i>
   <i type="int" name="NMIN">     0</i>
   <i name="EREF">      0.00000000</i>
   <separator name="electronic smearing" >
    <i type="int" name="ISMEAR">     0</i>
    <i name="SIGMA">      0.05000000</i>
    <i name="KSPACING">      0.50000000</i>
    <i type="logical" name="KGAMMA"> T  </i>
    <i type="logical" name="KBLOWUP"> T  </i>
   </separator>
   <separator name="electronic projectors" >
    <i type="logical" name="LREAL"> T  </i>
    <v name="ROPT">     -0.00050000     -0.00050000     -0.00050000     -0.00050000     -0.00050000</v>
    <i type="int" name="LMAXPAW">  -100</i>
    <i type="int" name="LMAXMIX">     2</i>
    <i type="logical" name="NLSPLINE"> F  </i>
   </separator>
   <separator name="electronic startup" >
    <i type="int" name="ISTART">     0</i>
    <i type="int" name="ICHARG">     1</i>
    <i type="int" name="INIWAV">     1</i>
   </separator>
   <separator name="electronic spin" >
    <i type="int" name="ISPIN">     1</i>
    <i type="logical" name="LNONCOLLINEAR"> F  </i>
    <v name="MAGMOM">      1.00000000      1.00000000      1.00000000      1.00000000      1.00000000      1.00000000      1.00000000      1.00000000      1.00000000      1.00000000      1.00000000      1.00000000      1.00000000      1.00000000      1.00000000      1.00000000      1.00000000      1.00000000      1.00000000      1.00000000
      1.00000000      1.00000000      1.00000000      1.00000000      1.00000000      1.00000000      1.00000000      1.00000000      1.00000000      1.00000000      1.00000000      1.00000000      1.00000000      1.00000000      1.00000000      1.00000000      1.00000000      1.00000000      1.00000000      1.00000000
      1.00000000      1.00000000      1.00000000      1.00000000      1.00000000      1.00000000      1.00000000      1.00000000      1.00000000      1.00000000      1.00000000      1.00000000      1.00000000      1.00000000      1.00000000      1.00000000      1.00000000      1.00000000      1.00000000      1.00000000
      1.00000000      1.00000000      1.00000000      1.00000000      1.00000000      1.00000000      1.00000000      1.00000000      1.00000000      1.00000000      1.00000000      1.00000000      1.00000000      1.00000000      1.00000000      1.00000000      1.00000000      1.00000000      1.00000000      1.00000000
      1.00000000      1.00000000      1.00000000      1.00000000      1.00000000      1.00000000      1.00000000      1.00000000      1.00000000      1.00000000      1.00000000      1.00000000      1.00000000      1.00000000      1.00000000      1.00000000      1.00000000      1.00000000      1.00000000      1.00000000
      1.00000000      1.00000000      1.00000000      1.00000000      1.00000000      1.00000000      1.00000000      1.00000000      1.00000000      1.00000000      1.00000000      1.00000000      1.00000000      1.00000000      1.00000000      1.00000000      1.00000000      1.00000000      1.00000000      1.00000000
      1.00000000      1.00000000      1.00000000      1.00000000      1.00000000      1.00000000      1.00000000      1.00000000      1.00000000      1.00000000      1.00000000      1.00000000      1.00000000      1.00000000      1.00000000      1.00000000      1.00000000      1.00000000      1.00000000      1.00000000
      1.00000000      1.00000000      1.00000000      1.00000000      1.00000000      1.00000000      1.00000000      1.00000000      1.00000000      1.00000000      1.00000000      1.00000000      1.00000000      1.00000000      1.00000000      1.00000000      1.00000000      1.00000000      1.00000000      1.00000000
      1.00000000      1.00000000      1.00000000      1.00000000      1.00000000      1.00000000      1.00000000      1.00000000      1.00000000      1.00000000      1.00000000      1.00000000      1.00000000      1.00000000      1.00000000      1.00000000      1.00000000      1.00000000      1.00000000      1.00000000
      1.00000000      1.00000000      1.00000000      1.00000000      1.00000000      1.00000000      1.00000000      1.00000000      1.00000000      1.00000000      1.00000000      1.00000000      1.00000000      1.00000000      1.00000000      1.00000000      1.00000000      1.00000000      1.00000000      1.00000000
      1.00000000      1.00000000      1.00000000      1.00000000      1.00000000      1.00000000      1.00000000      1.00000000      1.00000000      1.00000000      1.00000000      1.00000000      1.00000000      1.00000000      1.00000000      1.00000000      1.00000000      1.00000000      1.00000000      1.00000000
      1.00000000      1.00000000      1.00000000      1.00000000      1.00000000      1.00000000      1.00000000      1.00000000      1.00000000      1.00000000      1.00000000      1.00000000      1.00000000      1.00000000      1.00000000      1.00000000      1.00000000      1.00000000      1.00000000      1.00000000
      1.00000000      1.00000000      1.00000000      1.00000000      1.00000000      1.00000000      1.00000000      1.00000000      1.00000000      1.00000000      1.00000000      1.00000000      1.00000000      1.00000000      1.00000000      1.00000000      1.00000000      1.00000000      1.00000000      1.00000000
      1.00000000      1.00000000      1.00000000      1.00000000      1.00000000      1.00000000      1.00000000      1.00000000      1.00000000      1.00000000      1.00000000      1.00000000      1.00000000      1.00000000      1.00000000      1.00000000      1.00000000      1.00000000      1.00000000      1.00000000
      1.00000000      1.00000000      1.00000000      1.00000000      1.00000000      1.00000000      1.00000000      1.00000000      1.00000000      1.00000000      1.00000000      1.00000000      1.00000000      1.00000000      1.00000000      1.00000000      1.00000000      1.00000000      1.00000000      1.00000000
      1.00000000      1.00000000      1.00000000      1.00000000      1.00000000      1.00000000      1.00000000      1.00000000      1.00000000      1.00000000      1.00000000      1.00000000      1.00000000      1.00000000      1.00000000      1.00000000      1.00000000      1.00000000      1.00000000      1.00000000
      1.00000000      1.00000000      1.00000000      1.00000000      1.00000000</v>
    <i name="NUPDOWN">     -1.00000000</i>
    <i type="logical" name="LSORBIT"> F  </i>
    <v name="SAXIS">      0.00000000      0.00000000      1.00000000</v>
    <i type="logical" name="LSPIRAL"> F  </i>
    <v name="QSPIRAL">      0.00000000      0.00000000      0.00000000</v>
    <i type="logical" name="LZEROZ"> F  </i>
   </separator>
   <separator name="electronic exchange-correlation" >
    <i type="logical" name="LASPH"> F  </i>
    <i type="logical" name="LMETAGGA"> F  </i>
   </separator>
   <separator name="electronic convergence" >
    <i type="int" name="NELM">   600</i>
    <i type="int" name="NELMDL">     0</i>
    <i type="int" name="NELMIN">     2</i>
    <i name="ENINI">    500.00000000</i>
    <separator name="electronic convergence detail" >
     <i type="logical" name="LDIAG"> T  </i>
     <i type="logical" name="LSUBROT"> F  </i>
     <i name="WEIMIN">      0.00000000</i>
     <i name="EBREAK">      0.00000003</i>
     <i name="DEPER">      0.30000000</i>
     <i type="int" name="NRMM">     4</i>
     <i name="TIME">      0.40000000</i>
    </separator>
   </separator>
   <separator name="electronic mixer" >
    <i name="AMIX">      0.40000000</i>
    <i name="BMIX">      0.01000000</i>
    <i name="AMIN">      0.01000000</i>
    <i name="AMIX_MAG">      1.60000000</i>
    <i name="BMIX_MAG">      0.01000000</i>
    <separator name="electronic mixer details" >
     <i type="int" name="IMIX">     4</i>
     <i type="logical" name="MIXFIRST"> F  </i>
     <i type="int" name="MAXMIX">   -45</i>
     <i name="WC">    100.00000000</i>
     <i type="int" name="INIMIX">     1</i>
     <i type="int" name="MIXPRE">     1</i>
     <i type="int" name="MREMOVE">     5</i>
    </separator>
   </separator>
   <separator name="electronic dipolcorrection" >
    <i type="logical" name="LDIPOL"> T  </i>
    <i type="logical" name="LMONO"> F  </i>
    <i type="int" name="IDIPOL">     3</i>
    <i name="EPSILON">      1.00000000</i>
    <v name="DIPOL">   -100.00000000   -100.00000000   -100.00000000</v>
    <i name="EFIELD">      0.00000000</i>
   </separator>
  </separator>
  <separator name="grids" >
   <i type="int" name="NGX">   100</i>
   <i type="int" name="NGY">   100</i>
   <i type="int" name="NGZ">   350</i>
   <i type="int" name="NGXF">   200</i>
   <i type="int" name="NGYF">   200</i>
   <i type="int" name="NGZF">   700</i>
   <i type="logical" name="ADDGRID"> F  </i>
  </separator>
  <separator name="ionic" >
   <i type="int" name="NSW">     0</i>
   <i type="int" name="IBRION">    -1</i>
   <i type="int" name="MDALGO">     0</i>
   <i type="int" name="ISIF">     2</i>
   <i name="PSTRESS">      0.00000000</i>
   <i name="EDIFFG">      0.00100000</i>
   <i type="int" name="NFREE">     0</i>
   <i name="POTIM">      0.50000000</i>
   <i name="SMASS">     -3.00000000</i>
   <i name="SCALEE">      1.00000000</i>
  </separator>
  <separator name="ionic md" >
   <i name="TEBEG">      0.00010000</i>
   <i name="TEEND">      0.00010000</i>
   <i type="int" name="NBLOCK">     1</i>
   <i type="int" name="KBLOCK">     1</i>
   <i type="int" name="NPACO">   256</i>
   <i name="APACO">     16.00000000</i>
  </separator>
  <separator name="symmetry" >
   <i type="int" name="ISYM">     0</i>
   <i name="SYMPREC">      0.00001000</i>
  </separator>
  <separator name="dos" >
   <i type="int" name="LORBIT">     0</i>
   <v name="RWIGS">     -1.00000000     -1.00000000     -1.00000000     -1.00000000     -1.00000000</v>
   <i type="int" name="NEDOS">   301</i>
   <i name="EMIN">     10.00000000</i>
   <i name="EMAX">    -10.00000000</i>
   <i name="EFERMI">      0.00000000</i>
  </separator>
  <separator name="writing" >
   <i type="int" name="NWRITE">     2</i>
   <i type="logical" name="LWAVE"> F  </i>
   <i type="logical" name="LDOWNSAMPLE"> F  </i>
   <i type="logical" name="LCHARG"> T  </i>
   <i type="logical" name="LPARD"> F  </i>
   <i type="logical" name="LVTOT"> T  </i>
   <i type="logical" name="LVHAR"> F  </i>
   <i type="logical" name="LELF"> F  </i>
   <i type="logical" name="LOPTICS"> F  </i>
   <v name="STM">      0.00000000      0.00000000      0.00000000      0.00000000      0.00000000      0.00000000      0.00000000</v>
  </separator>
  <separator name="performance" >
   <i type="int" name="NPAR">     4</i>
   <i type="int" name="NSIM">     4</i>
   <i type="int" name="NBLK">    -1</i>
   <i type="logical" name="LPLANE"> T  </i>
   <i type="logical" name="LSCALAPACK"> T  </i>
   <i type="logical" name="LSCAAWARE"> F  </i>
   <i type="logical" name="LSCALU"> F  </i>
   <i type="logical" name="LASYNC"> F  </i>
   <i type="logical" name="LORBITALREAL"> F  </i>
  </separator>
  <separator name="miscellaneous" >
   <i type="int" name="IDIOT">     3</i>
   <i type="int" name="PHON_NSTRUCT">    -1</i>
   <i type="logical" name="LMUSIC"> F  </i>
   <v name="POMASS">      1.00000000     12.01100000     14.00100000    126.90400000    207.20000000</v>
   <v name="DARWINR">      0.00000000      0.00000000      0.00000000      0.00000000      0.00000000</v>
   <v name="DARWINV">      1.00000000      1.00000000      1.00000000      1.00000000      1.00000000</v>
   <i type="logical" name="LCORR"> T  </i>
  </separator>
  <i type="logical" name="GGA_COMPAT"> F  </i>
  <i type="logical" name="LBERRY"> F  </i>
  <i type="int" name="ICORELEVEL">     0</i>
  <i type="logical" name="LDAU"> F  </i>
  <i type="int" name="I_CONSTRAINED_M">     0</i>
  <separator name="electronic exchange-correlation" >
   <i type="string" name="GGA">--</i>
   <i type="int" name="VOSKOWN">     0</i>
   <i type="logical" name="LHFCALC"> F  </i>
   <i type="string" name="PRECFOCK"></i>
   <i type="logical" name="LSYMGRAD"> F  </i>
   <i type="logical" name="LHFONE"> F  </i>
   <i type="logical" name="LRHFCALC"> F  </i>
   <i type="logical" name="LTHOMAS"> F  </i>
   <i type="logical" name="LMODELHF"> F  </i>
   <i type="logical" name="LFOCKACE"> F  </i>
   <i name="ENCUT4O">     -1.00000000</i>
   <i type="int" name="EXXOEP">     0</i>
   <i type="int" name="FOURORBIT">     0</i>
   <i name="AEXX">      0.00000000</i>
   <i name="HFALPHA">      0.00000000</i>
   <i name="MCALPHA">      0.00000000</i>
   <i name="ALDAX">      1.00000000</i>
   <i name="AGGAX">      1.00000000</i>
   <i name="ALDAC">      1.00000000</i>
   <i name="AGGAC">      1.00000000</i>
   <i type="int" name="NKREDX">     1</i>
   <i type="int" name="NKREDY">     1</i>
   <i type="int" name="NKREDZ">     1</i>
   <i type="logical" name="SHIFTRED"> F  </i>
   <i type="logical" name="ODDONLY"> F  </i>
   <i type="logical" name="EVENONLY"> F  </i>
   <i type="int" name="LMAXFOCK">     0</i>
   <i type="int" name="NMAXFOCKAE">     0</i>
   <i type="logical" name="LFOCKAEDFT"> F  </i>
   <i name="HFSCREEN">      0.00000000</i>
   <i name="HFSCREENC">      0.00000000</i>
   <i type="int" name="NBANDSGWLOW">     0</i>
  </separator>
  <separator name="vdW DFT" >
   <i type="logical" name="LUSE_VDW"> F  </i>
   <i name="Zab_VDW">     -0.84910000</i>
   <i name="PARAM1">      0.12340000</i>
   <i name="PARAM2">      1.00000000</i>
   <i name="PARAM3">      0.00000000</i>
  </separator>
  <separator name="model GW" >
   <i type="int" name="MODEL_GW">     0</i>
   <i name="MODEL_EPS0">     37.63423484</i>
   <i name="MODEL_ALPHA">      1.00000000</i>
  </separator>
  <separator name="linear response parameters" >
   <i type="logical" name="LEPSILON"> F  </i>
   <i type="logical" name="LRPA"> F  </i>
   <i type="logical" name="LNABLA"> F  </i>
   <i type="logical" name="LVEL"> F  </i>
   <i type="int" name="KINTER">     0</i>
   <i name="CSHIFT">      0.10000000</i>
   <i name="OMEGAMAX">     -1.00000000</i>
   <i name="DEG_THRESHOLD">      0.00200000</i>
   <i name="RTIME">     -0.10000000</i>
   <i name="WPLASMAI">      0.00000000</i>
   <v name="DFIELD">      0.00000000      0.00000000      0.00000000</v>
   <v name="WPLASMA">      0.00000000      0.00000000      0.00000000      0.00000000      0.00000000      0.00000000      0.00000000      0.00000000      0.00000000</v>
  </separator>
  <separator name="orbital magnetization" >
   <i type="logical" name="NUCIND"> F  </i>
   <v name="MAGPOS">      0.00000000      0.00000000      0.00000000</v>
   <i type="logical" name="LNICSALL"> T  </i>
   <i type="logical" name="ORBITALMAG"> F  </i>
   <i type="logical" name="LMAGBLOCH"> F  </i>
   <i type="logical" name="LCHIMAG"> F  </i>
   <i type="logical" name="LGAUGE"> T  </i>
   <i type="int" name="MAGATOM">     0</i>
   <v name="MAGDIPOL">      0.00000000      0.00000000      0.00000000</v>
   <v name="AVECCONST">      0.00000000      0.00000000      0.00000000</v>
  </separator>
  <separator name="response functions" >
   <i type="logical" name="LFINITE_TEMPERATURE"> F  </i>
   <i type="logical" name="LADDER"> F  </i>
   <i type="logical" name="LRPAFORCE"> F  </i>
   <i type="logical" name="LFXC"> F  </i>
   <i type="logical" name="LHARTREE"> T  </i>
   <i type="int" name="IBSE">     0</i>
   <v type="int" name="KPOINT">    -1     0     0     0</v>
   <i type="logical" name="LTCTC"> F  </i>
   <i type="logical" name="LTCTE"> F  </i>
   <i type="logical" name="LTETE"> F  </i>
   <i type="logical" name="LTRIPLET"> F  </i>
   <i type="logical" name="LFXCEPS"> F  </i>
   <i type="logical" name="LFXHEG"> F  </i>
   <i type="int" name="NATURALO">     2</i>
   <i type="logical" name="LHOLEGF"> F  </i>
   <i type="logical" name="L2ORDER"> F  </i>
   <i type="logical" name="LDMP1"> F  </i>
   <i type="logical" name="LMP2LT"> F  </i>
   <i type="logical" name="LSMP2LT"> F  </i>
   <i type="logical" name="LGWLF"> F  </i>
   <i name="ENCUTGW">     -2.00000000</i>
   <i name="ENCUTGWSOFT">     -2.00000000</i>
   <i name="ENCUTLF">     -1.00000000</i>
   <i type="logical" name="LESF_SPLINES"> F  </i>
   <i type="int" name="LMAXMP2">    -1</i>
   <i name="SCISSOR">      0.00000000</i>
   <i type="int" name="NOMEGA">     0</i>
   <i type="int" name="NOMEGAR">     0</i>
   <i type="int" name="NBANDSGW">    -1</i>
   <i type="int" name="NBANDSO">    -1</i>
   <i type="int" name="NBANDSV">    -1</i>
   <i type="int" name="NELM">   600</i>
   <i type="int" name="NELMHF">     1</i>
   <i type="int" name="DIM">     3</i>
   <i type="int" name="IESPILON">     4</i>
   <i type="int" name="ANTIRES">     0</i>
   <i name="OMEGAMAX">    -30.00000000</i>
   <i name="OMEGAMIN">    -30.00000000</i>
   <i name="OMEGATL">   -200.00000000</i>
   <i type="int" name="OMEGAGRID">     0</i>
   <i name="CSHIFT">     -0.10000000</i>
   <i type="logical" name="LSELFENERGY"> F  </i>
   <i type="logical" name="LSPECTRAL"> F  </i>
   <i type="logical" name="LSPECTRALGW"> F  </i>
   <i type="logical" name="LSINGLES"> F  </i>
   <i type="logical" name="LFERMIGW"> F  </i>
   <i type="logical" name="ODDONLYGW"> F  </i>
   <i type="logical" name="EVENONLYGW"> F  </i>
   <i type="int" name="NKREDLFX">     1</i>
   <i type="int" name="NKREDLFY">     1</i>
   <i type="int" name="NKREDLFZ">     1</i>
   <i type="int" name="MAXMEM">  2800</i>
   <i type="int" name="TELESCOPE">     0</i>
   <i type="int" name="NTAUPAR">    -1</i>
   <i type="int" name="NOMEGAPAR">    -1</i>
   <i name="DAMP_NEWTON">      0.80000001</i>
   <i name="LAMBDA">      1.00000000</i>
  </separator>
  <separator name="External order field" >
   <i name="OFIELD_KAPPA">      0.00000000</i>
   <v name="OFIELD_K">      0.00000000      0.00000000      0.00000000</v>
   <i name="OFIELD_Q6_NEAR">      0.00000000</i>
   <i name="OFIELD_Q6_FAR">      0.00000000</i>
   <i name="OFIELD_A">      0.00000000</i>
  </separator>
 </parameters>
 <atominfo>
  <atoms>     325 </atoms>
  <types>       5 </types>
  <array name="atoms" >
   <dimension dim="1">ion</dimension>
   <field type="string">element</field>
   <field type="int">atomtype</field>
   <set>
    <rc><c>H </c><c>   1</c></rc>
    <rc><c>H </c><c>   1</c></rc>
    <rc><c>H </c><c>   1</c></rc>
    <rc><c>H </c><c>   1</c></rc>
    <rc><c>H </c><c>   1</c></rc>
    <rc><c>H </c><c>   1</c></rc>
    <rc><c>H </c><c>   1</c></rc>
    <rc><c>H </c><c>   1</c></rc>
    <rc><c>H </c><c>   1</c></rc>
    <rc><c>H </c><c>   1</c></rc>
    <rc><c>H </c><c>   1</c></rc>
    <rc><c>H </c><c>   1</c></rc>
    <rc><c>H </c><c>   1</c></rc>
    <rc><c>H </c><c>   1</c></rc>
    <rc><c>H </c><c>   1</c></rc>
    <rc><c>H </c><c>   1</c></rc>
    <rc><c>H </c><c>   1</c></rc>
    <rc><c>H </c><c>   1</c></rc>
    <rc><c>H </c><c>   1</c></rc>
    <rc><c>H </c><c>   1</c></rc>
    <rc><c>H </c><c>   1</c></rc>
    <rc><c>H </c><c>   1</c></rc>
    <rc><c>H </c><c>   1</c></rc>
    <rc><c>H </c><c>   1</c></rc>
    <rc><c>H </c><c>   1</c></rc>
    <rc><c>H </c><c>   1</c></rc>
    <rc><c>H </c><c>   1</c></rc>
    <rc><c>H </c><c>   1</c></rc>
    <rc><c>H </c><c>   1</c></rc>
    <rc><c>H </c><c>   1</c></rc>
    <rc><c>H </c><c>   1</c></rc>
    <rc><c>H </c><c>   1</c></rc>
    <rc><c>H </c><c>   1</c></rc>
    <rc><c>H </c><c>   1</c></rc>
    <rc><c>H </c><c>   1</c></rc>
    <rc><c>H </c><c>   1</c></rc>
    <rc><c>H </c><c>   1</c></rc>
    <rc><c>H </c><c>   1</c></rc>
    <rc><c>H </c><c>   1</c></rc>
    <rc><c>H </c><c>   1</c></rc>
    <rc><c>H </c><c>   1</c></rc>
    <rc><c>H </c><c>   1</c></rc>
    <rc><c>H </c><c>   1</c></rc>
    <rc><c>H </c><c>   1</c></rc>
    <rc><c>H </c><c>   1</c></rc>
    <rc><c>H </c><c>   1</c></rc>
    <rc><c>H </c><c>   1</c></rc>
    <rc><c>H </c><c>   1</c></rc>
    <rc><c>H </c><c>   1</c></rc>
    <rc><c>H </c><c>   1</c></rc>
    <rc><c>H </c><c>   1</c></rc>
    <rc><c>H </c><c>   1</c></rc>
    <rc><c>H </c><c>   1</c></rc>
    <rc><c>H </c><c>   1</c></rc>
    <rc><c>H </c><c>   1</c></rc>
    <rc><c>H </c><c>   1</c></rc>
    <rc><c>H </c><c>   1</c></rc>
    <rc><c>H </c><c>   1</c></rc>
    <rc><c>H </c><c>   1</c></rc>
    <rc><c>H </c><c>   1</c></rc>
    <rc><c>H </c><c>   1</c></rc>
    <rc><c>H </c><c>   1</c></rc>
    <rc><c>H </c><c>   1</c></rc>
    <rc><c>H </c><c>   1</c></rc>
    <rc><c>H </c><c>   1</c></rc>
    <rc><c>H </c><c>   1</c></rc>
    <rc><c>H </c><c>   1</c></rc>
    <rc><c>H </c><c>   1</c></rc>
    <rc><c>H </c><c>   1</c></rc>
    <rc><c>H </c><c>   1</c></rc>
    <rc><c>H </c><c>   1</c></rc>
    <rc><c>H </c><c>   1</c></rc>
    <rc><c>H </c><c>   1</c></rc>
    <rc><c>H </c><c>   1</c></rc>
    <rc><c>H </c><c>   1</c></rc>
    <rc><c>H </c><c>   1</c></rc>
    <rc><c>H </c><c>   1</c></rc>
    <rc><c>H </c><c>   1</c></rc>
    <rc><c>H </c><c>   1</c></rc>
    <rc><c>H </c><c>   1</c></rc>
    <rc><c>H </c><c>   1</c></rc>
    <rc><c>H </c><c>   1</c></rc>
    <rc><c>H </c><c>   1</c></rc>
    <rc><c>H </c><c>   1</c></rc>
    <rc><c>H </c><c>   1</c></rc>
    <rc><c>H </c><c>   1</c></rc>
    <rc><c>H </c><c>   1</c></rc>
    <rc><c>H </c><c>   1</c></rc>
    <rc><c>H </c><c>   1</c></rc>
    <rc><c>H </c><c>   1</c></rc>
    <rc><c>H </c><c>   1</c></rc>
    <rc><c>H </c><c>   1</c></rc>
    <rc><c>H </c><c>   1</c></rc>
    <rc><c>H </c><c>   1</c></rc>
    <rc><c>H </c><c>   1</c></rc>
    <rc><c>H </c><c>   1</c></rc>
    <rc><c>H </c><c>   1</c></rc>
    <rc><c>H </c><c>   1</c></rc>
    <rc><c>H </c><c>   1</c></rc>
    <rc><c>H </c><c>   1</c></rc>
    <rc><c>H </c><c>   1</c></rc>
    <rc><c>H </c><c>   1</c></rc>
    <rc><c>H </c><c>   1</c></rc>
    <rc><c>H </c><c>   1</c></rc>
    <rc><c>H </c><c>   1</c></rc>
    <rc><c>H </c><c>   1</c></rc>
    <rc><c>H </c><c>   1</c></rc>
    <rc><c>H </c><c>   1</c></rc>
    <rc><c>H </c><c>   1</c></rc>
    <rc><c>H </c><c>   1</c></rc>
    <rc><c>H </c><c>   1</c></rc>
    <rc><c>H </c><c>   1</c></rc>
    <rc><c>H </c><c>   1</c></rc>
    <rc><c>H </c><c>   1</c></rc>
    <rc><c>H </c><c>   1</c></rc>
    <rc><c>H </c><c>   1</c></rc>
    <rc><c>H </c><c>   1</c></rc>
    <rc><c>H </c><c>   1</c></rc>
    <rc><c>H </c><c>   1</c></rc>
    <rc><c>H </c><c>   1</c></rc>
    <rc><c>H </c><c>   1</c></rc>
    <rc><c>H </c><c>   1</c></rc>
    <rc><c>H </c><c>   1</c></rc>
    <rc><c>H </c><c>   1</c></rc>
    <rc><c>H </c><c>   1</c></rc>
    <rc><c>H </c><c>   1</c></rc>
    <rc><c>H </c><c>   1</c></rc>
    <rc><c>H </c><c>   1</c></rc>
    <rc><c>H </c><c>   1</c></rc>
    <rc><c>H </c><c>   1</c></rc>
    <rc><c>H </c><c>   1</c></rc>
    <rc><c>H </c><c>   1</c></rc>
    <rc><c>H </c><c>   1</c></rc>
    <rc><c>H </c><c>   1</c></rc>
    <rc><c>H </c><c>   1</c></rc>
    <rc><c>H </c><c>   1</c></rc>
    <rc><c>H </c><c>   1</c></rc>
    <rc><c>H </c><c>   1</c></rc>
    <rc><c>H </c><c>   1</c></rc>
    <rc><c>H </c><c>   1</c></rc>
    <rc><c>H </c><c>   1</c></rc>
    <rc><c>H </c><c>   1</c></rc>
    <rc><c>H </c><c>   1</c></rc>
    <rc><c>C </c><c>   2</c></rc>
    <rc><c>C </c><c>   2</c></rc>
    <rc><c>C </c><c>   2</c></rc>
    <rc><c>C </c><c>   2</c></rc>
    <rc><c>C </c><c>   2</c></rc>
    <rc><c>C </c><c>   2</c></rc>
    <rc><c>C </c><c>   2</c></rc>
    <rc><c>C </c><c>   2</c></rc>
    <rc><c>C </c><c>   2</c></rc>
    <rc><c>C </c><c>   2</c></rc>
    <rc><c>C </c><c>   2</c></rc>
    <rc><c>C </c><c>   2</c></rc>
    <rc><c>C </c><c>   2</c></rc>
    <rc><c>C </c><c>   2</c></rc>
    <rc><c>C </c><c>   2</c></rc>
    <rc><c>C </c><c>   2</c></rc>
    <rc><c>C </c><c>   2</c></rc>
    <rc><c>C </c><c>   2</c></rc>
    <rc><c>C </c><c>   2</c></rc>
    <rc><c>C </c><c>   2</c></rc>
    <rc><c>C </c><c>   2</c></rc>
    <rc><c>C </c><c>   2</c></rc>
    <rc><c>C </c><c>   2</c></rc>
    <rc><c>C </c><c>   2</c></rc>
    <rc><c>C </c><c>   2</c></rc>
    <rc><c>C </c><c>   2</c></rc>
    <rc><c>C </c><c>   2</c></rc>
    <rc><c>C </c><c>   2</c></rc>
    <rc><c>C </c><c>   2</c></rc>
    <rc><c>C </c><c>   2</c></rc>
    <rc><c>C </c><c>   2</c></rc>
    <rc><c>C </c><c>   2</c></rc>
    <rc><c>C </c><c>   2</c></rc>
    <rc><c>C </c><c>   2</c></rc>
    <rc><c>C </c><c>   2</c></rc>
    <rc><c>C </c><c>   2</c></rc>
    <rc><c>C </c><c>   2</c></rc>
    <rc><c>C </c><c>   2</c></rc>
    <rc><c>C </c><c>   2</c></rc>
    <rc><c>N </c><c>   3</c></rc>
    <rc><c>N </c><c>   3</c></rc>
    <rc><c>N </c><c>   3</c></rc>
    <rc><c>N </c><c>   3</c></rc>
    <rc><c>N </c><c>   3</c></rc>
    <rc><c>N </c><c>   3</c></rc>
    <rc><c>N </c><c>   3</c></rc>
    <rc><c>N </c><c>   3</c></rc>
    <rc><c>N </c><c>   3</c></rc>
    <rc><c>N </c><c>   3</c></rc>
    <rc><c>N </c><c>   3</c></rc>
    <rc><c>N </c><c>   3</c></rc>
    <rc><c>N </c><c>   3</c></rc>
    <rc><c>N </c><c>   3</c></rc>
    <rc><c>N </c><c>   3</c></rc>
    <rc><c>N </c><c>   3</c></rc>
    <rc><c>N </c><c>   3</c></rc>
    <rc><c>N </c><c>   3</c></rc>
    <rc><c>N </c><c>   3</c></rc>
    <rc><c>N </c><c>   3</c></rc>
    <rc><c>N </c><c>   3</c></rc>
    <rc><c>N </c><c>   3</c></rc>
    <rc><c>N </c><c>   3</c></rc>
    <rc><c>N </c><c>   3</c></rc>
    <rc><c>N </c><c>   3</c></rc>
    <rc><c>N </c><c>   3</c></rc>
    <rc><c>N </c><c>   3</c></rc>
    <rc><c>N </c><c>   3</c></rc>
    <rc><c>N </c><c>   3</c></rc>
    <rc><c>N </c><c>   3</c></rc>
    <rc><c>N </c><c>   3</c></rc>
    <rc><c>N </c><c>   3</c></rc>
    <rc><c>N </c><c>   3</c></rc>
    <rc><c>N </c><c>   3</c></rc>
    <rc><c>N </c><c>   3</c></rc>
    <rc><c>N </c><c>   3</c></rc>
    <rc><c>N </c><c>   3</c></rc>
    <rc><c>N </c><c>   3</c></rc>
    <rc><c>N </c><c>   3</c></rc>
    <rc><c>N </c><c>   3</c></rc>
    <rc><c>N </c><c>   3</c></rc>
    <rc><c>N </c><c>   3</c></rc>
    <rc><c>N </c><c>   3</c></rc>
    <rc><c>N </c><c>   3</c></rc>
    <rc><c>N </c><c>   3</c></rc>
    <rc><c>N </c><c>   3</c></rc>
    <rc><c>N </c><c>   3</c></rc>
    <rc><c>I </c><c>   4</c></rc>
    <rc><c>I </c><c>   4</c></rc>
    <rc><c>I </c><c>   4</c></rc>
    <rc><c>I </c><c>   4</c></rc>
    <rc><c>I </c><c>   4</c></rc>
    <rc><c>I </c><c>   4</c></rc>
    <rc><c>I </c><c>   4</c></rc>
    <rc><c>I </c><c>   4</c></rc>
    <rc><c>I </c><c>   4</c></rc>
    <rc><c>I </c><c>   4</c></rc>
    <rc><c>I </c><c>   4</c></rc>
    <rc><c>I </c><c>   4</c></rc>
    <rc><c>I </c><c>   4</c></rc>
    <rc><c>I </c><c>   4</c></rc>
    <rc><c>I </c><c>   4</c></rc>
    <rc><c>I </c><c>   4</c></rc>
    <rc><c>I </c><c>   4</c></rc>
    <rc><c>I </c><c>   4</c></rc>
    <rc><c>I </c><c>   4</c></rc>
    <rc><c>I </c><c>   4</c></rc>
    <rc><c>I </c><c>   4</c></rc>
    <rc><c>I </c><c>   4</c></rc>
    <rc><c>I </c><c>   4</c></rc>
    <rc><c>I </c><c>   4</c></rc>
    <rc><c>I </c><c>   4</c></rc>
    <rc><c>I </c><c>   4</c></rc>
    <rc><c>I </c><c>   4</c></rc>
    <rc><c>I </c><c>   4</c></rc>
    <rc><c>I </c><c>   4</c></rc>
    <rc><c>I </c><c>   4</c></rc>
    <rc><c>I </c><c>   4</c></rc>
    <rc><c>I </c><c>   4</c></rc>
    <rc><c>I </c><c>   4</c></rc>
    <rc><c>I </c><c>   4</c></rc>
    <rc><c>I </c><c>   4</c></rc>
    <rc><c>I </c><c>   4</c></rc>
    <rc><c>I </c><c>   4</c></rc>
    <rc><c>I </c><c>   4</c></rc>
    <rc><c>I </c><c>   4</c></rc>
    <rc><c>I </c><c>   4</c></rc>
    <rc><c>I </c><c>   4</c></rc>
    <rc><c>I </c><c>   4</c></rc>
    <rc><c>I </c><c>   4</c></rc>
    <rc><c>I </c><c>   4</c></rc>
    <rc><c>I </c><c>   4</c></rc>
    <rc><c>I </c><c>   4</c></rc>
    <rc><c>I </c><c>   4</c></rc>
    <rc><c>I </c><c>   4</c></rc>
    <rc><c>I </c><c>   4</c></rc>
    <rc><c>I </c><c>   4</c></rc>
    <rc><c>I </c><c>   4</c></rc>
    <rc><c>I </c><c>   4</c></rc>
    <rc><c>I </c><c>   4</c></rc>
    <rc><c>I </c><c>   4</c></rc>
    <rc><c>I </c><c>   4</c></rc>
    <rc><c>I </c><c>   4</c></rc>
    <rc><c>I </c><c>   4</c></rc>
    <rc><c>I </c><c>   4</c></rc>
    <rc><c>I </c><c>   4</c></rc>
    <rc><c>I </c><c>   4</c></rc>
    <rc><c>I </c><c>   4</c></rc>
    <rc><c>I </c><c>   4</c></rc>
    <rc><c>I </c><c>   4</c></rc>
    <rc><c>I </c><c>   4</c></rc>
    <rc><c>I </c><c>   4</c></rc>
    <rc><c>I </c><c>   4</c></rc>
    <rc><c>I </c><c>   4</c></rc>
    <rc><c>I </c><c>   4</c></rc>
    <rc><c>I </c><c>   4</c></rc>
    <rc><c>I </c><c>   4</c></rc>
    <rc><c>I </c><c>   4</c></rc>
    <rc><c>I </c><c>   4</c></rc>
    <rc><c>Pb</c><c>   5</c></rc>
    <rc><c>Pb</c><c>   5</c></rc>
    <rc><c>Pb</c><c>   5</c></rc>
    <rc><c>Pb</c><c>   5</c></rc>
    <rc><c>Pb</c><c>   5</c></rc>
    <rc><c>Pb</c><c>   5</c></rc>
    <rc><c>Pb</c><c>   5</c></rc>
    <rc><c>Pb</c><c>   5</c></rc>
    <rc><c>Pb</c><c>   5</c></rc>
    <rc><c>Pb</c><c>   5</c></rc>
    <rc><c>Pb</c><c>   5</c></rc>
    <rc><c>Pb</c><c>   5</c></rc>
    <rc><c>Pb</c><c>   5</c></rc>
    <rc><c>Pb</c><c>   5</c></rc>
    <rc><c>Pb</c><c>   5</c></rc>
    <rc><c>Pb</c><c>   5</c></rc>
    <rc><c>Pb</c><c>   5</c></rc>
    <rc><c>Pb</c><c>   5</c></rc>
    <rc><c>Pb</c><c>   5</c></rc>
    <rc><c>Pb</c><c>   5</c></rc>
    <rc><c>Pb</c><c>   5</c></rc>
    <rc><c>Pb</c><c>   5</c></rc>
    <rc><c>Pb</c><c>   5</c></rc>
    <rc><c>Pb</c><c>   5</c></rc>
   </set>
  </array>
  <array name="atomtypes" >
   <dimension dim="1">type</dimension>
   <field type="int">atomspertype</field>
   <field type="string">element</field>
   <field>mass</field>
   <field>valence</field>
   <field type="string">pseudopotential</field>
   <set>
    <rc><c> 143</c><c>H </c><c>      1.00000000</c><c>      1.00000000</c><c>  PAW_PBE H 15Jun2001                   </c></rc>
    <rc><c>  39</c><c>C </c><c>     12.01100000</c><c>      4.00000000</c><c>  PAW_PBE C 08Apr2002                   </c></rc>
    <rc><c>  47</c><c>N </c><c>     14.00100000</c><c>      5.00000000</c><c>  PAW_PBE N 08Apr2002                   </c></rc>
    <rc><c>  72</c><c>I </c><c>    126.90400000</c><c>      7.00000000</c><c>  PAW_PBE I 08Apr2002                   </c></rc>
    <rc><c>  24</c><c>Pb</c><c>    207.20000000</c><c>      4.00000000</c><c>  PAW_PBE Pb 08Apr2002                  </c></rc>
   </set>
  </array>
 </atominfo>
 <structure name="initialpos" >
  <crystal>
   <varray name="basis" >
    <v>      18.06080055       0.00000000       0.00000000 </v>
    <v>      -0.00491865      18.06279945       0.00000000 </v>
    <v>       0.00000000       0.00000000      62.48749924 </v>
   </varray>
   <i name="volume">  20385.21054034 </i>
   <varray name="rec_basis" >
    <v>       0.05536853       0.00001508      -0.00000000 </v>
    <v>       0.00000000       0.05536240       0.00000000 </v>
    <v>       0.00000000      -0.00000000       0.01600320 </v>
   </varray>
  </crystal>
  <varray name="positions" >
   <v>       0.44947180       0.30534546       0.58118961 </v>
   <v>       0.44439189       0.81237745       0.58052236 </v>
   <v>       0.96181815       0.31206320       0.57719229 </v>
   <v>       0.96852639       0.81335115       0.58150327 </v>
   <v>       0.31488748       0.03297463       0.58177731 </v>
   <v>       0.30156862       0.55156884       0.58095934 </v>
   <v>       0.78149856       0.06070347       0.58277708 </v>
   <v>       0.07446523       0.14456427       0.56171202 </v>
   <v>       0.06735609       0.65843524       0.55556931 </v>
   <v>       0.58955539       0.18534069       0.55669051 </v>
   <v>       0.56672052       0.66626139       0.55876893 </v>
   <v>       0.33796526       0.06832796       0.55648862 </v>
   <v>       0.31545390       0.58989854       0.55549984 </v>
   <v>       0.82479339       0.08470305       0.55865031 </v>
   <v>       0.03817777       0.19025281       0.58511819 </v>
   <v>       0.05057763       0.69669219       0.58083096 </v>
   <v>       0.56734893       0.23155623       0.58079854 </v>
   <v>       0.52329282       0.69765982       0.58237307 </v>
   <v>       0.20860824       0.44202126       0.58230043 </v>
   <v>       0.19741885       0.94972413       0.58251623 </v>
   <v>       0.69383527       0.94726346       0.58093498 </v>
   <v>       0.39873568       0.30642007       0.55752905 </v>
   <v>       0.44043855       0.85591523       0.55547414 </v>
   <v>       0.95442035       0.33176857       0.55035709 </v>
   <v>       0.93617917       0.84056102       0.55714409 </v>
   <v>       0.16903167       0.41756879       0.55765322 </v>
   <v>       0.15235964       0.93891838       0.55785926 </v>
   <v>       0.68769396       0.90480478       0.55564654 </v>
   <v>       0.48528472       0.22862588       0.53905569 </v>
   <v>       0.51669589       0.76777210       0.53887585 </v>
   <v>       0.02046939       0.23417450       0.53778115 </v>
   <v>       0.99558709       0.74604009       0.53772150 </v>
   <v>       0.23303244       0.50851162       0.53841225 </v>
   <v>       0.23704635       0.01285209       0.53911857 </v>
   <v>       0.76917025       0.98817039       0.53924238 </v>
   <v>       0.45474799       0.30632675       0.67568727 </v>
   <v>       0.44695335       0.80118159       0.67528900 </v>
   <v>       0.94401175       0.29982950       0.67461766 </v>
   <v>       0.94627080       0.80485478       0.67593274 </v>
   <v>       0.29562908       0.04976718       0.67549100 </v>
   <v>       0.29833024       0.55520274       0.67486154 </v>
   <v>       0.80485357       0.04886929       0.67412763 </v>
   <v>       0.80262571       0.56840977       0.67507148 </v>
   <v>       0.08104095       0.17242886       0.65011038 </v>
   <v>       0.08145645       0.67558441       0.65189430 </v>
   <v>       0.57145725       0.16384609       0.64996368 </v>
   <v>       0.57098066       0.66801000       0.64870720 </v>
   <v>       0.17708011       0.41786618       0.64818885 </v>
   <v>       0.16982425       0.91928234       0.64739969 </v>
   <v>       0.68145047       0.41901888       0.65429377 </v>
   <v>       0.66199432       0.92789756       0.64933324 </v>
   <v>       0.04939334       0.20121305       0.67550248 </v>
   <v>       0.04296483       0.70095239       0.67696780 </v>
   <v>       0.55414326       0.20311606       0.67525762 </v>
   <v>       0.54715222       0.69384851       0.67472565 </v>
   <v>       0.20244524       0.44645700       0.67398441 </v>
   <v>       0.19464080       0.94487539       0.67365091 </v>
   <v>       0.70027510       0.46054180       0.67791977 </v>
   <v>       0.69269803       0.95593047       0.67487284 </v>
   <v>       0.41703998       0.32651736       0.65054100 </v>
   <v>       0.41786898       0.83173483       0.65017368 </v>
   <v>       0.91769196       0.32483979       0.64862546 </v>
   <v>       0.92725334       0.83897947       0.65043069 </v>
   <v>       0.32599615       0.08130660       0.65047404 </v>
   <v>       0.32718367       0.58548634       0.64935510 </v>
   <v>       0.83579425       0.07123448       0.64837932 </v>
   <v>       0.83354707       0.58033044       0.64876288 </v>
   <v>       0.00255344       0.24611784       0.63146517 </v>
   <v>       0.01280654       0.76060371       0.63329280 </v>
   <v>       0.48540454       0.23663709       0.63299324 </v>
   <v>       0.49166539       0.75251842       0.63154111 </v>
   <v>       0.24975982       0.00222403       0.63110511 </v>
   <v>       0.25497327       0.50448928       0.63093821 </v>
   <v>       0.74721019       0.99567692       0.63104138 </v>
   <v>       0.76241092       0.48858973       0.63395279 </v>
   <v>       0.44874502       0.30128397       0.76888902 </v>
   <v>       0.44874501       0.80128391       0.76888902 </v>
   <v>       0.94874497       0.30128397       0.76888902 </v>
   <v>       0.94874501       0.80128391       0.76888902 </v>
   <v>       0.30127600       0.05129450       0.76887296 </v>
   <v>       0.30127601       0.55129450       0.76887296 </v>
   <v>       0.80127594       0.05129450       0.76887296 </v>
   <v>       0.80127598       0.55129450       0.76887296 </v>
   <v>       0.07877100       0.17118050       0.74344197 </v>
   <v>       0.07877101       0.67118045       0.74344197 </v>
   <v>       0.57877100       0.17118050       0.74344197 </v>
   <v>       0.57877099       0.67118045       0.74344197 </v>
   <v>       0.17119950       0.42117448       0.74342103 </v>
   <v>       0.17119950       0.92117451       0.74342103 </v>
   <v>       0.67119951       0.42117448       0.74342103 </v>
   <v>       0.67119950       0.92117451       0.74342103 </v>
   <v>       0.05125600       0.19871499       0.76888902 </v>
   <v>       0.05125600       0.69871493       0.76888902 </v>
   <v>       0.55125603       0.19871499       0.76888902 </v>
   <v>       0.55125602       0.69871493       0.76888902 </v>
   <v>       0.19872349       0.44870397       0.76887205 </v>
   <v>       0.19872349       0.94870397       0.76887205 </v>
   <v>       0.69872352       0.44870397       0.76887205 </v>
   <v>       0.69872351       0.94870397       0.76887205 </v>
   <v>       0.42123152       0.32881747       0.74344197 </v>
   <v>       0.42123151       0.82881744       0.74344197 </v>
   <v>       0.92123147       0.32881747       0.74344197 </v>
   <v>       0.92123151       0.82881744       0.74344197 </v>
   <v>       0.32880050       0.07882500       0.74342103 </v>
   <v>       0.32880049       0.57882496       0.74342103 </v>
   <v>       0.82880048       0.07882500       0.74342103 </v>
   <v>       0.82880052       0.57882496       0.74342103 </v>
   <v>       0.00000350       0.25000148       0.72582199 </v>
   <v>       0.00000350       0.75000145       0.72582199 </v>
   <v>       0.50000351       0.25000148       0.72582199 </v>
   <v>       0.50000350       0.75000145       0.72582199 </v>
   <v>       0.25000050       0.00000000       0.72580398 </v>
   <v>       0.25000052       0.50000000       0.72580398 </v>
   <v>       0.75000050       0.00000000       0.72580398 </v>
   <v>       0.75000049       0.50000000       0.72580398 </v>
   <v>       0.78473761       0.56706148       0.52829597 </v>
   <v>       0.73384205       0.48107825       0.53026213 </v>
   <v>       0.87386710       0.50579397       0.54997933 </v>
   <v>       0.85002296       0.47899058       0.57691226 </v>
   <v>       0.74058884       0.64019337       0.56832052 </v>
   <v>       0.80185501       0.59175739       0.58605917 </v>
   <v>       0.64890532       0.53787924       0.57283033 </v>
   <v>       0.67563757       0.44995216       0.56189901 </v>
   <v>       0.62381474       0.54710363       0.54192840 </v>
   <v>       0.67145985       0.63296220       0.54416713 </v>
   <v>       0.62626411       0.65965186       0.51193723 </v>
   <v>       0.70142188       0.60786550       0.50325627 </v>
   <v>       0.82607465       0.39429311       0.53627853 </v>
   <v>       0.75734389       0.38972017       0.55663972 </v>
   <v>       0.84734039       0.36463564       0.56232268 </v>
   <v>       0.86285928       0.69108038       0.56089319 </v>
   <v>       0.84923334       0.62599718       0.54131896 </v>
   <v>       0.90645195       0.60332716       0.56307264 </v>
   <v>       0.76835920       0.50262325       0.59979807 </v>
   <v>       0.73981934       0.40968882       0.59359572 </v>
   <v>       0.67585015       0.47106353       0.60656267 </v>
   <v>       0.54629975       0.54586457       0.51152492 </v>
   <v>       0.58053009       0.56433543       0.48490674 </v>
   <v>       0.72127886       0.50064218       0.47884944 </v>
   <v>       0.55521281       0.42343953       0.52337812 </v>
   <v>       0.78155834       0.37635977       0.47991319 </v>
   <v>       0.61677893       0.30141488       0.52495320 </v>
   <v>       0.73234718       0.27673662       0.50364080 </v>
   <v>       0.01385294       0.23861386       0.55509461 </v>
   <v>       0.00256979       0.74899444       0.55505285 </v>
   <v>       0.49405951       0.24553503       0.55579745 </v>
   <v>       0.50363697       0.76148173       0.55587528 </v>
   <v>       0.24187191       0.50358723       0.55591136 </v>
   <v>       0.24474402       0.00379276       0.55655541 </v>
   <v>       0.75656496       0.99484737       0.55653239 </v>
   <v>       0.99997279       0.24802779       0.64909620 </v>
   <v>       0.00410727       0.75806979       0.65069240 </v>
   <v>       0.49393542       0.24494789       0.64994140 </v>
   <v>       0.49466073       0.74980193       0.64914687 </v>
   <v>       0.25207948       0.50089228       0.64842529 </v>
   <v>       0.24824744       0.00065653       0.64854604 </v>
   <v>       0.75722541       0.49911638       0.65138187 </v>
   <v>       0.74929937       0.99997688       0.64844232 </v>
   <v>       0.49998898       0.24999498       0.74327702 </v>
   <v>       0.49998903       0.74999496       0.74327702 </v>
   <v>       0.99998898       0.24999498       0.74327702 </v>
   <v>       0.99998903       0.74999496       0.74327702 </v>
   <v>       0.25000050       0.00000100       0.74325596 </v>
   <v>       0.25000052       0.50000100       0.74325596 </v>
   <v>       0.75000050       0.00000100       0.74325596 </v>
   <v>       0.75000049       0.50000100       0.74325596 </v>
   <v>       0.63172933       0.47135434       0.50039937 </v>
   <v>       0.69554185       0.45591160       0.48821099 </v>
   <v>       0.60366231       0.41267740       0.51318864 </v>
   <v>       0.73044550       0.38659827       0.48941576 </v>
   <v>       0.63940116       0.34361965       0.51427669 </v>
   <v>       0.70314038       0.33062402       0.50227060 </v>
   <v>       0.73755454       0.53801509       0.53662692 </v>
   <v>       0.83103479       0.47952901       0.56021697 </v>
   <v>       0.78668761       0.60044958       0.56923324 </v>
   <v>       0.69514084       0.49577988       0.57169803 </v>
   <v>       0.66829611       0.58075583       0.53464227 </v>
   <v>       0.64838025       0.60499906       0.51232446 </v>
   <v>       0.81587177       0.40409815       0.55325397 </v>
   <v>       0.85498635       0.63125493       0.55852870 </v>
   <v>       0.71995830       0.46808870       0.59408171 </v>
   <v>       0.59695934       0.54730806       0.50134735 </v>
   <v>       0.04425906       0.18913866       0.56807029 </v>
   <v>       0.04183811       0.69861968       0.56446184 </v>
   <v>       0.55337421       0.21916687       0.56504533 </v>
   <v>       0.53344369       0.70529267       0.56627165 </v>
   <v>       0.44461456       0.28807707       0.56542101 </v>
   <v>       0.45910413       0.81299545       0.56451910 </v>
   <v>       0.97384324       0.29588168       0.56146954 </v>
   <v>       0.96788905       0.80289678       0.56503458 </v>
   <v>       0.20522652       0.45167115       0.56618331 </v>
   <v>       0.19620620       0.96168968       0.56651846 </v>
   <v>       0.70997608       0.94738639       0.56528634 </v>
   <v>       0.30188892       0.03620591       0.56587313 </v>
   <v>       0.28850644       0.55029087       0.56505149 </v>
   <v>       0.78969281       0.04881616       0.56693316 </v>
   <v>       0.04707553       0.20385688       0.65888856 </v>
   <v>       0.04630974       0.70829127       0.66080887 </v>
   <v>       0.54262371       0.20089014       0.65892849 </v>
   <v>       0.53880787       0.70270664       0.65851819 </v>
   <v>       0.20863389       0.45156835       0.65764319 </v>
   <v>       0.20249656       0.95324364       0.65757928 </v>
   <v>       0.70978613       0.45665942       0.66179380 </v>
   <v>       0.69939889       0.95996602       0.65861659 </v>
   <v>       0.45277893       0.29562220       0.65941253 </v>
   <v>       0.45082987       0.79710476       0.65877312 </v>
   <v>       0.95209728       0.29244537       0.65828584 </v>
   <v>       0.95683451       0.80318838       0.65954458 </v>
   <v>       0.29273495       0.04677651       0.65900107 </v>
   <v>       0.29409252       0.54909891       0.65860426 </v>
   <v>       0.79970647       0.04259978       0.65774404 </v>
   <v>       0.79959431       0.55193573       0.65915857 </v>
   <v>       0.04586250       0.20411950       0.75272599 </v>
   <v>       0.04586250       0.70411946       0.75272599 </v>
   <v>       0.54586251       0.20411950       0.75272599 </v>
   <v>       0.54586250       0.70411946       0.75272599 </v>
   <v>       0.20411900       0.45410100       0.75270499 </v>
   <v>       0.20411899       0.95410095       0.75270499 </v>
   <v>       0.70411898       0.45410100       0.75270499 </v>
   <v>       0.70411896       0.95410095       0.75270499 </v>
   <v>       0.45414002       0.29588849       0.75272697 </v>
   <v>       0.45414001       0.79588852       0.75272697 </v>
   <v>       0.95414002       0.29588849       0.75272697 </v>
[...]
   <v>       0.58955539       0.18534069       0.55669051 </v>
   <v>       0.56672052       0.66626139       0.55876893 </v>
   <v>       0.33796526       0.06832796       0.55648862 </v>
   <v>       0.31545390       0.58989854       0.55549984 </v>
   <v>       0.82479339       0.08470305       0.55865031 </v>
   <v>       0.03817777       0.19025281       0.58511819 </v>
   <v>       0.05057763       0.69669219       0.58083096 </v>
   <v>       0.56734893       0.23155623       0.58079854 </v>
   <v>       0.52329282       0.69765982       0.58237307 </v>
   <v>       0.20860824       0.44202126       0.58230043 </v>
   <v>       0.19741885       0.94972413       0.58251623 </v>
   <v>       0.69383527       0.94726346       0.58093498 </v>
   <v>       0.39873568       0.30642007       0.55752905 </v>
   <v>       0.44043855       0.85591523       0.55547414 </v>
   <v>       0.95442035       0.33176857       0.55035709 </v>
   <v>       0.93617917       0.84056102       0.55714409 </v>
   <v>       0.16903167       0.41756879       0.55765322 </v>
   <v>       0.15235964       0.93891838       0.55785926 </v>
   <v>       0.68769396       0.90480478       0.55564654 </v>
   <v>       0.48528472       0.22862588       0.53905569 </v>
   <v>       0.51669589       0.76777210       0.53887585 </v>
   <v>       0.02046939       0.23417450       0.53778115 </v>
   <v>       0.99558709       0.74604009       0.53772150 </v>
   <v>       0.23303244       0.50851162       0.53841225 </v>
   <v>       0.23704635       0.01285209       0.53911857 </v>
   <v>       0.76917025       0.98817039       0.53924238 </v>
   <v>       0.45474799       0.30632675       0.67568727 </v>
   <v>       0.44695335       0.80118159       0.67528900 </v>
   <v>       0.94401175       0.29982950       0.67461766 </v>
   <v>       0.94627080       0.80485478       0.67593274 </v>
   <v>       0.29562908       0.04976718       0.67549100 </v>
   <v>       0.29833024       0.55520274       0.67486154 </v>
   <v>       0.80485357       0.04886929       0.67412763 </v>
   <v>       0.80262571       0.56840977       0.67507148 </v>
   <v>       0.08104095       0.17242886       0.65011038 </v>
   <v>       0.08145645       0.67558441       0.65189430 </v>
   <v>       0.57145725       0.16384609       0.64996368 </v>
   <v>       0.57098066       0.66801000       0.64870720 </v>
   <v>       0.17708011       0.41786618       0.64818885 </v>
   <v>       0.16982425       0.91928234       0.64739969 </v>
   <v>       0.68145047       0.41901888       0.65429377 </v>
   <v>       0.66199432       0.92789756       0.64933324 </v>
   <v>       0.04939334       0.20121305       0.67550248 </v>
   <v>       0.04296483       0.70095239       0.67696780 </v>
   <v>       0.55414326       0.20311606       0.67525762 </v>
   <v>       0.54715222       0.69384851       0.67472565 </v>
   <v>       0.20244524       0.44645700       0.67398441 </v>
   <v>       0.19464080       0.94487539       0.67365091 </v>
   <v>       0.70027510       0.46054180       0.67791977 </v>
   <v>       0.69269803       0.95593047       0.67487284 </v>
   <v>       0.41703998       0.32651736       0.65054100 </v>
   <v>       0.41786898       0.83173483       0.65017368 </v>
   <v>       0.91769196       0.32483979       0.64862546 </v>
   <v>       0.92725334       0.83897947       0.65043069 </v>
   <v>       0.32599615       0.08130660       0.65047404 </v>
   <v>       0.32718367       0.58548634       0.64935510 </v>
   <v>       0.83579425       0.07123448       0.64837932 </v>
   <v>       0.83354707       0.58033044       0.64876288 </v>
   <v>       0.00255344       0.24611784       0.63146517 </v>
   <v>       0.01280654       0.76060371       0.63329280 </v>
   <v>       0.48540454       0.23663709       0.63299324 </v>
   <v>       0.49166539       0.75251842       0.63154111 </v>
   <v>       0.24975982       0.00222403       0.63110511 </v>
   <v>       0.25497327       0.50448928       0.63093821 </v>
   <v>       0.74721019       0.99567692       0.63104138 </v>
   <v>       0.76241092       0.48858973       0.63395279 </v>
   <v>       0.44874502       0.30128397       0.76888902 </v>
   <v>       0.44874501       0.80128391       0.76888902 </v>
   <v>       0.94874497       0.30128397       0.76888902 </v>
   <v>       0.94874501       0.80128391       0.76888902 </v>
   <v>       0.30127600       0.05129450       0.76887296 </v>
   <v>       0.30127601       0.55129450       0.76887296 </v>
   <v>       0.80127594       0.05129450       0.76887296 </v>
   <v>       0.80127598       0.55129450       0.76887296 </v>
   <v>       0.07877100       0.17118050       0.74344197 </v>
   <v>       0.07877101       0.67118045       0.74344197 </v>
   <v>       0.57877100       0.17118050       0.74344197 </v>
   <v>       0.57877099       0.67118045       0.74344197 </v>
   <v>       0.17119950       0.42117448       0.74342103 </v>
   <v>       0.17119950       0.92117451       0.74342103 </v>
   <v>       0.67119951       0.42117448       0.74342103 </v>
   <v>       0.67119950       0.92117451       0.74342103 </v>
   <v>       0.05125600       0.19871499       0.76888902 </v>
   <v>       0.05125600       0.69871493       0.76888902 </v>
   <v>       0.55125603       0.19871499       0.76888902 </v>
   <v>       0.55125602       0.69871493       0.76888902 </v>
   <v>       0.19872349       0.44870397       0.76887205 </v>
   <v>       0.19872349       0.94870397       0.76887205 </v>
   <v>       0.69872352       0.44870397       0.76887205 </v>
   <v>       0.69872351       0.94870397       0.76887205 </v>
   <v>       0.42123152       0.32881747       0.74344197 </v>
   <v>       0.42123151       0.82881744       0.74344197 </v>
   <v>       0.92123147       0.32881747       0.74344197 </v>
   <v>       0.92123151       0.82881744       0.74344197 </v>
   <v>       0.32880050       0.07882500       0.74342103 </v>
   <v>       0.32880049       0.57882496       0.74342103 </v>
   <v>       0.82880048       0.07882500       0.74342103 </v>
   <v>       0.82880052       0.57882496       0.74342103 </v>
   <v>       0.00000350       0.25000148       0.72582199 </v>
   <v>       0.00000350       0.75000145       0.72582199 </v>
   <v>       0.50000351       0.25000148       0.72582199 </v>
   <v>       0.50000350       0.75000145       0.72582199 </v>
   <v>       0.25000050       0.00000000       0.72580398 </v>
   <v>       0.25000052       0.50000000       0.72580398 </v>
   <v>       0.75000050       0.00000000       0.72580398 </v>
   <v>       0.75000049       0.50000000       0.72580398 </v>
   <v>       0.78473761       0.56706148       0.52829597 </v>
   <v>       0.73384205       0.48107825       0.53026213 </v>
   <v>       0.87386710       0.50579397       0.54997933 </v>
   <v>       0.85002296       0.47899058       0.57691226 </v>
   <v>       0.74058884       0.64019337       0.56832052 </v>
   <v>       0.80185501       0.59175739       0.58605917 </v>
   <v>       0.64890532       0.53787924       0.57283033 </v>
   <v>       0.67563757       0.44995216       0.56189901 </v>
   <v>       0.62381474       0.54710363       0.54192840 </v>
   <v>       0.67145985       0.63296220       0.54416713 </v>
   <v>       0.62626411       0.65965186       0.51193723 </v>
   <v>       0.70142188       0.60786550       0.50325627 </v>
   <v>       0.82607465       0.39429311       0.53627853 </v>
   <v>       0.75734389       0.38972017       0.55663972 </v>
   <v>       0.84734039       0.36463564       0.56232268 </v>
   <v>       0.86285928       0.69108038       0.56089319 </v>
   <v>       0.84923334       0.62599718       0.54131896 </v>
   <v>       0.90645195       0.60332716       0.56307264 </v>
   <v>       0.76835920       0.50262325       0.59979807 </v>
   <v>       0.73981934       0.40968882       0.59359572 </v>
   <v>       0.67585015       0.47106353       0.60656267 </v>
   <v>       0.54629975       0.54586457       0.51152492 </v>
   <v>       0.58053009       0.56433543       0.48490674 </v>
   <v>       0.72127886       0.50064218       0.47884944 </v>
   <v>       0.55521281       0.42343953       0.52337812 </v>
   <v>       0.78155834       0.37635977       0.47991319 </v>
   <v>       0.61677893       0.30141488       0.52495320 </v>
   <v>       0.73234718       0.27673662       0.50364080 </v>
   <v>       0.01385294       0.23861386       0.55509461 </v>
   <v>       0.00256979       0.74899444       0.55505285 </v>
   <v>       0.49405951       0.24553503       0.55579745 </v>
   <v>       0.50363697       0.76148173       0.55587528 </v>
   <v>       0.24187191       0.50358723       0.55591136 </v>
   <v>       0.24474402       0.00379276       0.55655541 </v>
   <v>       0.75656496       0.99484737       0.55653239 </v>
   <v>       0.99997279       0.24802779       0.64909620 </v>
   <v>       0.00410727       0.75806979       0.65069240 </v>
   <v>       0.49393542       0.24494789       0.64994140 </v>
   <v>       0.49466073       0.74980193       0.64914687 </v>
   <v>       0.25207948       0.50089228       0.64842529 </v>
   <v>       0.24824744       0.00065653       0.64854604 </v>
   <v>       0.75722541       0.49911638       0.65138187 </v>
   <v>       0.74929937       0.99997688       0.64844232 </v>
   <v>       0.49998898       0.24999498       0.74327702 </v>
   <v>       0.49998903       0.74999496       0.74327702 </v>
   <v>       0.99998898       0.24999498       0.74327702 </v>
   <v>       0.99998903       0.74999496       0.74327702 </v>
   <v>       0.25000050       0.00000100       0.74325596 </v>
   <v>       0.25000052       0.50000100       0.74325596 </v>
   <v>       0.75000050       0.00000100       0.74325596 </v>
   <v>       0.75000049       0.50000100       0.74325596 </v>
   <v>       0.63172933       0.47135434       0.50039937 </v>
   <v>       0.69554185       0.45591160       0.48821099 </v>
   <v>       0.60366231       0.41267740       0.51318864 </v>
   <v>       0.73044550       0.38659827       0.48941576 </v>
   <v>       0.63940116       0.34361965       0.51427669 </v>
   <v>       0.70314038       0.33062402       0.50227060 </v>
   <v>       0.73755454       0.53801509       0.53662692 </v>
   <v>       0.83103479       0.47952901       0.56021697 </v>
   <v>       0.78668761       0.60044958       0.56923324 </v>
   <v>       0.69514084       0.49577988       0.57169803 </v>
   <v>       0.66829611       0.58075583       0.53464227 </v>
   <v>       0.64838025       0.60499906       0.51232446 </v>
   <v>       0.81587177       0.40409815       0.55325397 </v>
   <v>       0.85498635       0.63125493       0.55852870 </v>
   <v>       0.71995830       0.46808870       0.59408171 </v>
   <v>       0.59695934       0.54730806       0.50134735 </v>
   <v>       0.04425906       0.18913866       0.56807029 </v>
   <v>       0.04183811       0.69861968       0.56446184 </v>
   <v>       0.55337421       0.21916687       0.56504533 </v>
   <v>       0.53344369       0.70529267       0.56627165 </v>
   <v>       0.44461456       0.28807707       0.56542101 </v>
   <v>       0.45910413       0.81299545       0.56451910 </v>
   <v>       0.97384324       0.29588168       0.56146954 </v>
   <v>       0.96788905       0.80289678       0.56503458 </v>
   <v>       0.20522652       0.45167115       0.56618331 </v>
   <v>       0.19620620       0.96168968       0.56651846 </v>
   <v>       0.70997608       0.94738639       0.56528634 </v>
   <v>       0.30188892       0.03620591       0.56587313 </v>
   <v>       0.28850644       0.55029087       0.56505149 </v>
   <v>       0.78969281       0.04881616       0.56693316 </v>
   <v>       0.04707553       0.20385688       0.65888856 </v>
   <v>       0.04630974       0.70829127       0.66080887 </v>
   <v>       0.54262371       0.20089014       0.65892849 </v>
   <v>       0.53880787       0.70270664       0.65851819 </v>
   <v>       0.20863389       0.45156835       0.65764319 </v>
   <v>       0.20249656       0.95324364       0.65757928 </v>
   <v>       0.70978613       0.45665942       0.66179380 </v>
   <v>       0.69939889       0.95996602       0.65861659 </v>
   <v>       0.45277893       0.29562220       0.65941253 </v>
   <v>       0.45082987       0.79710476       0.65877312 </v>
   <v>       0.95209728       0.29244537       0.65828584 </v>
   <v>       0.95683451       0.80318838       0.65954458 </v>
   <v>       0.29273495       0.04677651       0.65900107 </v>
   <v>       0.29409252       0.54909891       0.65860426 </v>
   <v>       0.79970647       0.04259978       0.65774404 </v>
   <v>       0.79959431       0.55193573       0.65915857 </v>
   <v>       0.04586250       0.20411950       0.75272599 </v>
   <v>       0.04586250       0.70411946       0.75272599 </v>
   <v>       0.54586251       0.20411950       0.75272599 </v>
   <v>       0.54586250       0.70411946       0.75272599 </v>
   <v>       0.20411900       0.45410100       0.75270499 </v>
   <v>       0.20411899       0.95410095       0.75270499 </v>
   <v>       0.70411898       0.45410100       0.75270499 </v>
   <v>       0.70411896       0.95410095       0.75270499 </v>
   <v>       0.45414002       0.29588849       0.75272697 </v>
   <v>       0.45414001       0.79588852       0.75272697 </v>
   <v>       0.95414002       0.29588849       0.75272697 </v>
   <v>       0.95414006       0.79588852       0.75272697 </v>
   <v>       0.29588249       0.04590050       0.75270499 </v>
   <v>       0.29588248       0.54590053       0.75270499 </v>
   <v>       0.79588244       0.04590050       0.75270499 </v>
   <v>       0.79588248       0.54590053       0.75270499 </v>
   <v>       0.75984327       0.52864186       0.55940907 </v>
   <v>       0.49842717       0.01155327       0.55210964 </v>
   <v>       0.47975850       0.51806759       0.55715795 </v>
   <v>       0.99855818       0.99982565       0.55196978 </v>
   <v>       0.02208138       0.48121558       0.54959595 </v>
   <v>       0.25306550       0.25028661       0.55163811 </v>
   <v>       0.25000324       0.75176178       0.55221470 </v>
   <v>       0.75731289       0.22818008       0.55535168 </v>
   <v>       0.73434750       0.77023490       0.54807208 </v>
   <v>       0.00371073       0.00270953       0.65423052 </v>
   <v>       0.00717464       0.50453047       0.65347708 </v>
   <v>       0.50396872       0.99923007       0.65512353 </v>
   <v>       0.49809740       0.49795451       0.65615675 </v>
   <v>       0.24942656       0.24935975       0.65511828 </v>
   <v>       0.24612723       0.75161854       0.65377438 </v>
   <v>       0.74630726       0.24874252       0.65578516 </v>
   <v>       0.75056177       0.75622709       0.65420165 </v>
   <v>       0.14432934       0.10527352       0.60992131 </v>
   <v>       0.14523192       0.60345192       0.60816156 </v>
   <v>       0.64549318       0.10305769       0.60843358 </v>
   <v>       0.62577616       0.62496298       0.61245978 </v>
   <v>       0.35293586       0.39319471       0.60917476 </v>
   <v>       0.35515376       0.89387271       0.60920992 </v>
   <v>       0.87864847       0.37301617       0.61284969 </v>
   <v>       0.85505646       0.89666824       0.60788971 </v>
   <v>       0.10828778       0.35641929       0.60767574 </v>
   <v>       0.10827890       0.85796663       0.60903899 </v>
   <v>       0.58655800       0.33792842       0.60796627 </v>
   <v>       0.60607481       0.86063080       0.60980178 </v>
   <v>       0.39201200       0.14117633       0.60782940 </v>
   <v>       0.38726340       0.64130603       0.60967034 </v>
   <v>       0.89347320       0.14046189       0.60839616 </v>
   <v>       0.91150649       0.66060449       0.61299718 </v>
   <v>       0.00000000       0.00000000       0.75492797 </v>
   <v>       0.00000000       0.50000000       0.75492797 </v>
   <v>       0.50000000       0.00000000       0.75492797 </v>
   <v>       0.49999999       0.50000000       0.75492797 </v>
   <v>       0.25000050       0.25000000       0.75493902 </v>
   <v>       0.25000051       0.74999997       0.75493902 </v>
   <v>       0.75000047       0.25000000       0.75493902 </v>
   <v>       0.75000046       0.74999997       0.75493902 </v>
   <v>       0.13579050       0.11421000       0.70478299 </v>
   <v>       0.13579050       0.61420998       0.70478299 </v>
   <v>       0.63579045       0.11421000       0.70478299 </v>
   <v>       0.63579049       0.61420998       0.70478299 </v>
   <v>       0.36420952       0.38578999       0.70478299 </v>
   <v>       0.36420950       0.88578996       0.70478299 </v>
   <v>       0.86420954       0.38578999       0.70478299 </v>
   <v>       0.86420953       0.88578996       0.70478299 </v>
   <v>       0.11421799       0.36421899       0.70478098 </v>
   <v>       0.11421799       0.86421899       0.70478098 </v>
   <v>       0.61421800       0.36421899       0.70478098 </v>
   <v>       0.61421799       0.86421899       0.70478098 </v>
   <v>       0.38578201       0.13578149       0.70478202 </v>
   <v>       0.38578200       0.63578149       0.70478202 </v>
   <v>       0.88578199       0.13578149       0.70478202 </v>
   <v>       0.88578203       0.63578149       0.70478202 </v>
   <v>       0.13466700       0.11533200       0.80125603 </v>
   <v>       0.13466699       0.61533199       0.80125603 </v>
   <v>       0.63466699       0.11533200       0.80125603 </v>
   <v>       0.63466698       0.61533199       0.80125603 </v>
   <v>       0.36533300       0.38466799       0.80125603 </v>
   <v>       0.36533299       0.88466796       0.80125603 </v>
   <v>       0.86533295       0.38466799       0.80125603 </v>
   <v>       0.86533294       0.88466796       0.80125603 </v>
   <v>       0.11532850       0.36533700       0.80126500 </v>
   <v>       0.11532850       0.86533698       0.80126500 </v>
   <v>       0.61532850       0.36533700       0.80126500 </v>
   <v>       0.61532849       0.86533698       0.80126500 </v>
   <v>       0.38467151       0.13466300       0.80126500 </v>
   <v>       0.38467150       0.63466297       0.80126500 </v>
   <v>       0.88467149       0.13466300       0.80126500 </v>
   <v>       0.88467153       0.63466297       0.80126500 </v>
   <v>       0.00052273       0.00037303       0.60317722 </v>
   <v>       0.00185634       0.50381025       0.60316544 </v>
   <v>       0.49735364       0.00290360       0.60190963 </v>
   <v>       0.49567242       0.49786349       0.60588986 </v>
   <v>       0.25073464       0.24792370       0.60214284 </v>
   <v>       0.24886516       0.74856910       0.60197514 </v>
   <v>       0.74781889       0.24571906       0.60537969 </v>
   <v>       0.74856506       0.75897685       0.60451898 </v>
   <v>       0.00000050       0.00000050       0.70482896 </v>
   <v>       0.00000050       0.50000048       0.70482896 </v>
   <v>       0.50000048       0.00000050       0.70482896 </v>
   <v>       0.50000046       0.50000048       0.70482896 </v>
   <v>       0.24999999       0.24999947       0.70482499 </v>
   <v>       0.25000001       0.74999950       0.70482499 </v>
   <v>       0.74999999       0.24999947       0.70482499 </v>
   <v>       0.74999998       0.74999950       0.70482499 </v>
   <v>       0.00000000       0.00000000       0.80731797 </v>
   <v>       0.00000000       0.50000000       0.80731797 </v>
   <v>       0.50000000       0.00000000       0.80731797 </v>
   <v>       0.49999999       0.50000000       0.80731797 </v>
   <v>       0.24999999       0.25000000       0.80731797 </v>
   <v>       0.25000001       0.74999997       0.80731797 </v>
   <v>       0.74999999       0.25000000       0.80731797 </v>
   <v>       0.74999998       0.74999997       0.80731797 </v>
  </varray>
 </structure>
</modeling>
