 vasp.6.2.1 16May21 (build Nov 15 2021 14:57:28) complex                         
 executed on             LinuxPGI date 2023.07.30  10:47:13
 running on    4 total cores
 distrk:  each k-point on    4 cores,    1 groups
 distr:  one band on NCORE=   1 cores,    4 groups


--------------------------------------------------------------------------------------------------------


 INCAR:
   SYSTEM = PSC
   ISTART = 1
   ICHARG = 1
   PREC = Normal
   ENCUT = 500
   GGA_COMPAT = F
   NELM = 600
   ISYM = 0
   LREAL = Auto
   ISMEAR = 0
   SIGMA = 0.05
   AMIN = 0.01
   BMIX = 0.01
   LVTOT = T
   LWAVE = F
   LDIPOL = T
   IDIPOL = 3
   LVDW = T
   IVDW = 12

 POTCAR:    PAW_PBE H 15Jun2001                   
 POTCAR:    PAW_PBE C 08Apr2002                   
 POTCAR:    PAW_PBE N 08Apr2002                   
 POTCAR:    PAW_PBE I 08Apr2002                   
 POTCAR:    PAW_PBE Pb 08Apr2002                  
 WARNING: For LVTOT=.TRUE., VASP.5.x writes the TOTAL local potential to the
     file LOCPOT. If you want only the Hartree contributions, use LVHAR=.TRUE.
     instead. 

 POTCAR:    PAW_PBE H 15Jun2001                   
   SHA256 =  030f79b5d3ab3cf0e668861823c8fb652ff669f3e15e46930bd03bfd63a607b6 H/POTCAR              
   COPYR  = (c) Copyright 15Jun2001 Georg Kresse                                                    
   COPYR  = This file is part of the software VASP. Any use, copying, and all other rights are regul
   COPYR  = If you do not have a valid VASP license, you may not use, copy or distribute this file. 
   VRHFIN =H: ultrasoft test                                                                        
   LEXCH  = PE                                                                                      
   EATOM  =    12.4884 eV,    0.9179 Ry                                                             
                                                                                                    
   TITEL  = PAW_PBE H 15Jun2001                                                                     
   LULTRA =        F    use ultrasoft PP ?                                                          
   IUNSCR =        0    unscreen: 0-lin 1-nonlin 2-no                                               
   RPACOR =    0.000    partial core radius                                                         
   POMASS =    1.000; ZVAL   =    1.000    mass and valenz                                          
   RCORE  =    1.100    outmost cutoff radius                                                       
   RWIGS  =    0.700; RWIGS  =    0.370    wigner-seitz radius (au A)                               
   ENMAX  =  250.000; ENMIN  =  200.000 eV                                                          
   RCLOC  =    0.701    cutoff for local pot                                                        
   LCOR   =        T    correct aug charges                                                         
   LPAW   =        T    paw PP                                                                      
   EAUG   =  400.000                                                                                
   RMAX   =    1.123    core radius for proj-oper                                                   
   RAUG   =    1.200    factor for augmentation sphere                                              
   RDEP   =    1.112    radius for radial grids                                                     
   RDEPT  =    0.926    core radius for aug-charge                                                  
                                                                                                    
   Atomic configuration                                                                             
    2 entries                                                                                       
     n  l   j            E        occ.                                                              
     1  0  0.50        -6.4927   1.0000                                                             
     2  1  0.50        -3.4015   0.0000                                                             
   Description                                                                                      
     l       E           TYP  RCUT    TYP  RCUT                                                     
     0     -6.4927494     23  1.100                                                                 
     0      6.8029130     23  1.100                                                                 
     1     -4.0817478     23  1.100                                                                 
  local pseudopotential read in
  atomic valenz-charges read in
  non local Contribution for L=            0  read in
    real space projection operators read in
  non local Contribution for L=            0  read in
    real space projection operators read in
  non local Contribution for L=            1  read in
    real space projection operators read in
    PAW grid and wavefunctions read in
 
   number of l-projection  operators is LMAX  =            3
   number of lm-projection operators is LMMAX =            5
 
 POTCAR:    PAW_PBE C 08Apr2002                   
   SHA256 =  253f7b50bb8d59471dbedb8285d89021f4a42ed1a2c5d38a03a736e69125dd95 C/POTCAR              
   COPYR  = (c) Copyright 08Apr2002 Georg Kresse                                                    
   COPYR  = This file is part of the software VASP. Any use, copying, and all other rights are regul
   COPYR  = If you do not have a valid VASP license, you may not use, copy or distribute this file. 
   VRHFIN =C: s2p2                                                                                  
   LEXCH  = PE                                                                                      
   EATOM  =   147.1560 eV,   10.8157 Ry                                                             
                                                                                                    
   TITEL  = PAW_PBE C 08Apr2002                                                                     
   LULTRA =        F    use ultrasoft PP ?                                                          
   IUNSCR =        1    unscreen: 0-lin 1-nonlin 2-no                                               
   RPACOR =    1.200    partial core radius                                                         
   POMASS =   12.011; ZVAL   =    4.000    mass and valenz                                          
   RCORE  =    1.500    outmost cutoff radius                                                       
   RWIGS  =    1.630; RWIGS  =    0.863    wigner-seitz radius (au A)                               
   ENMAX  =  400.000; ENMIN  =  300.000 eV                                                          
   ICORE  =        2    local potential                                                             
   LCOR   =        T    correct aug charges                                                         
   LPAW   =        T    paw PP                                                                      
   EAUG   =  644.873                                                                                
   DEXC   =    0.000                                                                                
   RMAX   =    1.529    core radius for proj-oper                                                   
   RAUG   =    1.300    factor for augmentation sphere                                              
   RDEP   =    1.501    radius for radial grids                                                     
   RDEPT  =    1.300    core radius for aug-charge                                                  
                                                                                                    
   Atomic configuration                                                                             
    4 entries                                                                                       
     n  l   j            E        occ.                                                              
     1  0  0.50      -273.3789   2.0000                                                             
     2  0  0.50       -13.7508   2.0000                                                             
     2  1  0.50        -5.2854   2.0000                                                             
     3  2  1.50        -5.4423   0.0000                                                             
   Description                                                                                      
     l       E           TYP  RCUT    TYP  RCUT                                                     
     0    -13.7508458     23  1.200                                                                 
     0     -8.2022199     23  1.200                                                                 
     1     -5.2854383     23  1.500                                                                 
     1     34.0145650     23  1.500                                                                 
     2     -5.4423304      7  1.500                                                                 
  local pseudopotential read in
  partial core-charges read in
  partial kinetic energy density read in
  atomic valenz-charges read in
  non local Contribution for L=            0  read in
    real space projection operators read in
  non local Contribution for L=            0  read in
    real space projection operators read in
  non local Contribution for L=            1  read in
    real space projection operators read in
  non local Contribution for L=            1  read in
    real space projection operators read in
    PAW grid and wavefunctions read in
 
   number of l-projection  operators is LMAX  =            4
   number of lm-projection operators is LMMAX =            8
 
 POTCAR:    PAW_PBE N 08Apr2002                   
   SHA256 =  e053789ff3a61a86a1b75d8a110fcc91f86041011e7b0817c7c99e4e8a6349d7 N/POTCAR              
   COPYR  = (c) Copyright 08Apr2002 Georg Kresse                                                    
   COPYR  = This file is part of the software VASP. Any use, copying, and all other rights are regul
   COPYR  = If you do not have a valid VASP license, you may not use, copy or distribute this file. 
   VRHFIN =N: s2p3                                                                                  
   LEXCH  = PE                                                                                      
   EATOM  =   264.5486 eV,   19.4438 Ry                                                             
                                                                                                    
   TITEL  = PAW_PBE N 08Apr2002                                                                     
   LULTRA =        F    use ultrasoft PP ?                                                          
   IUNSCR =        1    unscreen: 0-lin 1-nonlin 2-no                                               
   RPACOR =    1.200    partial core radius                                                         
   POMASS =   14.001; ZVAL   =    5.000    mass and valenz                                          
   RCORE  =    1.500    outmost cutoff radius                                                       
   RWIGS  =    1.400; RWIGS  =    0.741    wigner-seitz radius (au A)                               
   ENMAX  =  400.000; ENMIN  =  300.000 eV                                                          
   ICORE  =        2    local potential                                                             
   LCOR   =        T    correct aug charges                                                         
   LPAW   =        T    paw PP                                                                      
   EAUG   =  627.112                                                                                
   DEXC   =    0.000                                                                                
   RMAX   =    1.529    core radius for proj-oper                                                   
   RAUG   =    1.300    factor for augmentation sphere                                              
   RDEP   =    1.514    radius for radial grids                                                     
   RDEPT  =    1.338    core radius for aug-charge                                                  
                                                                                                    
   Atomic configuration                                                                             
    4 entries                                                                                       
     n  l   j            E        occ.                                                              
     1  0  0.50      -384.7179   2.0000                                                             
     2  0  0.50       -18.5828   2.0000                                                             
     2  1  0.50        -7.0898   3.0000                                                             
     3  2  1.50        -6.8029   0.0000                                                             
   Description                                                                                      
     l       E           TYP  RCUT    TYP  RCUT                                                     
     0    -18.5828119     23  1.200                                                                 
     0    -13.5018863     23  1.200                                                                 
     1     -7.0897853     23  1.500                                                                 
     1      9.5240782     23  1.500                                                                 
     2     -6.8029130      7  1.500                                                                 
  local pseudopotential read in
  partial core-charges read in
  partial kinetic energy density read in
  atomic valenz-charges read in
  non local Contribution for L=            0  read in
    real space projection operators read in
  non local Contribution for L=            0  read in
    real space projection operators read in
  non local Contribution for L=            1  read in
    real space projection operators read in
  non local Contribution for L=            1  read in
    real space projection operators read in
    PAW grid and wavefunctions read in
 
   number of l-projection  operators is LMAX  =            4
   number of lm-projection operators is LMMAX =            8
 
 POTCAR:    PAW_PBE I 08Apr2002                   
   SHA256 =  e40f3f59b681c1fc3e3091736183c4589116986673d2b852a5012aec72758799 I/POTCAR              
   COPYR  = (c) Copyright 08Apr2002 Georg Kresse                                                    
   COPYR  = This file is part of the software VASP. Any use, copying, and all other rights are regul
   COPYR  = If you do not have a valid VASP license, you may not use, copy or distribute this file. 
   VRHFIN =I : s2p5                                                                                 
   LEXCH  = PE                                                                                      
   EATOM  =   315.8678 eV,   23.2156 Ry                                                             
                                                                                                    
   TITEL  = PAW_PBE I 08Apr2002                                                                     
   LULTRA =        F    use ultrasoft PP ?                                                          
   IUNSCR =        1    unscreen: 0-lin 1-nonlin 2-no                                               
   RPACOR =    2.200    partial core radius                                                         
   POMASS =  126.904; ZVAL   =    7.000    mass and valenz                                          
   RCORE  =    2.300    outmost cutoff radius                                                       
   RWIGS  =    2.810; RWIGS  =    1.487    wigner-seitz radius (au A)                               
   ENMAX  =  175.647; ENMIN  =  131.735 eV                                                          
   ICORE  =        3    local potential                                                             
   LCOR   =        T    correct aug charges                                                         
   LPAW   =        T    paw PP                                                                      
   EAUG   =  370.139                                                                                
   DEXC   =    0.000                                                                                
   RMAX   =    2.359    core radius for proj-oper                                                   
   RAUG   =    1.300    factor for augmentation sphere                                              
   RDEP   =    2.392    radius for radial grids                                                     
   RDEPT  =    2.170    core radius for aug-charge                                                  
                                                                                                    
   Atomic configuration                                                                             
   13 entries                                                                                       
     n  l   j            E        occ.                                                              
     1  0  0.50    -32976.3739   2.0000                                                             
     2  0  0.50     -5094.5933   2.0000                                                             
     2  1  1.50     -4572.0131   6.0000                                                             
     3  0  0.50     -1028.2813   2.0000                                                             
     3  1  1.50      -859.0250   6.0000                                                             
     3  2  2.50      -605.7620  10.0000                                                             
     4  0  0.50      -180.5540   2.0000                                                             
     4  1  1.50      -127.5306   6.0000                                                             
     4  2  2.50       -50.2720  10.0000                                                             
     5  0  0.50       -17.4058   2.0000                                                             
     5  1  0.50        -7.0851   5.0000                                                             
     5  2  1.50        -7.0750   0.0000                                                             
     4  3  2.50        -7.0750   0.0000                                                             
   Description                                                                                      
     l       E           TYP  RCUT    TYP  RCUT                                                     
     0    -17.4058016     23  2.300                                                                 
     0    -18.7663842     23  2.300                                                                 
     1     -7.0850686     23  2.300                                                                 
     1     -4.2150896     23  2.300                                                                 
     2     -7.0750295     23  2.300                                                                 
     3     -1.3605826     23  2.300                                                                 
  local pseudopotential read in
  partial core-charges read in
  partial kinetic energy density read in
  atomic valenz-charges read in
  non local Contribution for L=            0  read in
    real space projection operators read in
  non local Contribution for L=            0  read in
    real space projection operators read in
  non local Contribution for L=            1  read in
    real space projection operators read in
  non local Contribution for L=            1  read in
    real space projection operators read in
  non local Contribution for L=            2  read in
    real space projection operators read in
    PAW grid and wavefunctions read in
 
   number of l-projection  operators is LMAX  =            5
   number of lm-projection operators is LMMAX =           13
 
 POTCAR:    PAW_PBE Pb 08Apr2002                  
   SHA256 =  797118a27cf1bcd06b9881c67a26cdde129e3cd1a551dd4a281f9681ce847303 Pb/POTCAR             
   COPYR  = (c) Copyright 08Apr2002 Georg Kresse                                                    
   COPYR  = This file is part of the software VASP. Any use, copying, and all other rights are regul
   COPYR  = If you do not have a valid VASP license, you may not use, copy or distribute this file. 
   VRHFIN =Pb:                                                                                      
   LEXCH  = PE                                                                                      
   EATOM  =    96.9868 eV,    7.1283 Ry                                                             
                                                                                                    
   TITEL  = PAW_PBE Pb 08Apr2002                                                                    
   LULTRA =        F    use ultrasoft PP ?                                                          
   IUNSCR =        1    unscreen: 0-lin 1-nonlin 2-no                                               
   RPACOR =    2.200    partial core radius                                                         
   POMASS =  207.200; ZVAL   =    4.000    mass and valenz                                          
   RCORE  =    3.100    outmost cutoff radius                                                       
   RWIGS  =    3.260; RWIGS  =    1.725    wigner-seitz radius (au A)                               
   ENMAX  =   97.973; ENMIN  =   73.480 eV                                                          
   ICORE  =        3    local potential                                                             
   LCOR   =        T    correct aug charges                                                         
   LPAW   =        T    paw PP                                                                      
   EAUG   =  234.873                                                                                
   DEXC   =    0.000                                                                                
   RMAX   =    3.158    core radius for proj-oper                                                   
   RAUG   =    1.300    factor for augmentation sphere                                              
   RDEP   =    3.202    radius for radial grids                                                     
   RDEPT  =    2.659    core radius for aug-charge                                                  
                                                                                                    
   Atomic configuration                                                                             
   17 entries                                                                                       
     n  l   j            E        occ.                                                              
     1  0  0.50    -88091.8466   2.0000                                                             
     2  0  0.50    -15753.4197   2.0000                                                             
     2  1  1.50    -13508.1797   6.0000                                                             
     3  0  0.50     -3781.7194   2.0000                                                             
     3  1  1.50     -3138.2529   6.0000                                                             
     3  2  2.50     -2483.2977  10.0000                                                             
     4  0  0.50      -856.2895   2.0000                                                             
     4  1  1.50      -645.4943   6.0000                                                             
     4  2  2.50      -401.8768  10.0000                                                             
     4  3  3.50      -132.9059  14.0000                                                             
     5  0  0.50      -144.0950   2.0000                                                             
     5  1  1.50       -85.7879   6.0000                                                             
     5  2  2.50       -21.1769  10.0000                                                             
     6  0  0.50       -12.0372   2.0000                                                             
     6  1  1.50        -3.4971   2.0000                                                             
     6  2  2.50        -1.3606   0.0000                                                             
     5  3  2.50        -2.7212   0.0000                                                             
   Description                                                                                      
     l       E           TYP  RCUT    TYP  RCUT                                                     
     0    -12.0371566     23  3.100                                                                 
     0    -13.3977392     23  3.100                                                                 
     1     -3.4971341     23  3.100                                                                 
     1     -5.4423304     23  3.100                                                                 
     2     -1.3605826     23  3.100                                                                 
     3     -1.3605826     23  3.100                                                                 
  local pseudopotential read in
  partial core-charges read in
  partial kinetic energy density read in
  atomic valenz-charges read in
  non local Contribution for L=            0  read in
    real space projection operators read in
  non local Contribution for L=            0  read in
    real space projection operators read in
  non local Contribution for L=            1  read in
    real space projection operators read in
  non local Contribution for L=            1  read in
    real space projection operators read in
  non local Contribution for L=            2  read in
    real space projection operators read in
    PAW grid and wavefunctions read in
 
   number of l-projection  operators is LMAX  =            5
   number of lm-projection operators is LMMAX =           13
 
 Optimization of the real space projectors (new method)

 maximal supplied QI-value         = 34.20
 optimisation between [QCUT,QGAM] = [ 11.29, 22.57] = [ 35.68,142.71] Ry 
 Optimized for a Real-space Cutoff    1.16 Angstroem

   l    n(q)    QCUT    max X(q) W(low)/X(q) W(high)/X(q)  e(spline) 
   0      8    11.287    19.460    0.40E-03    0.73E-03    0.16E-06
   0      8    11.287    12.209    0.38E-03    0.70E-03    0.15E-06
   1      7    11.287     4.655    0.22E-03    0.25E-04    0.22E-06
 Optimization of the real space projectors (new method)

 maximal supplied QI-value         = 25.13
 optimisation between [QCUT,QGAM] = [ 11.31, 22.87] = [ 35.82,146.48] Ry 
 Optimized for a Real-space Cutoff    1.00 Angstroem

   l    n(q)    QCUT    max X(q) W(low)/X(q) W(high)/X(q)  e(spline) 
   0      7    11.310   115.676    0.43E-03    0.13E-02    0.19E-06
   0      7    11.310    87.132    0.43E-03    0.13E-02    0.18E-06
   1      6    11.310     4.429    0.42E-03    0.74E-03    0.11E-06
   1      6    11.310     2.733    0.34E-03    0.55E-03    0.92E-07
 Optimization of the real space projectors (new method)

 maximal supplied QI-value         = 25.13
 optimisation between [QCUT,QGAM] = [ 11.31, 22.87] = [ 35.82,146.48] Ry 
 Optimized for a Real-space Cutoff    1.27 Angstroem

   l    n(q)    QCUT    max X(q) W(low)/X(q) W(high)/X(q)  e(spline) 
   0      9    11.310    79.467    0.75E-04    0.16E-03    0.36E-06
   0      9    11.310    66.151    0.74E-04    0.16E-03    0.36E-06
   1      8    11.310    17.416    0.35E-03    0.12E-03    0.95E-06
   1      8    11.310    12.382    0.37E-03    0.13E-03    0.98E-06
 Optimization of the real space projectors (new method)

 maximal supplied QI-value         = 16.25
 optimisation between [QCUT,QGAM] = [ 11.38, 22.75] = [ 36.24,144.96] Ry 
 Optimized for a Real-space Cutoff    1.31 Angstroem

   l    n(q)    QCUT    max X(q) W(low)/X(q) W(high)/X(q)  e(spline) 
   0      9    11.376   194.483    0.24E-03    0.23E-03    0.67E-07
   0      9    11.376   190.334    0.23E-03    0.22E-03    0.65E-07
   1      8    11.376   116.687    0.25E-03    0.63E-04    0.16E-06
   1      8    11.376    88.696    0.25E-03    0.61E-04    0.16E-06
   2      8    11.376     4.877    0.17E-03    0.14E-03    0.29E-07
 Optimization of the real space projectors (new method)

 maximal supplied QI-value         = 12.09
 optimisation between [QCUT,QGAM] = [ 11.37, 22.86] = [ 36.19,146.31] Ry 
 Optimized for a Real-space Cutoff    1.66 Angstroem

   l    n(q)    QCUT    max X(q) W(low)/X(q) W(high)/X(q)  e(spline) 
   0     11    11.369   135.111    0.12E-03    0.69E-04    0.19E-05
   0     11    11.369   146.850    0.11E-03    0.65E-04    0.18E-05
   1     11    11.369   148.016    0.17E-03    0.32E-03    0.89E-06
   1     11    11.369   122.989    0.17E-03    0.32E-03    0.91E-06
   2     10    11.369     8.916    0.12E-03    0.45E-04    0.33E-06
  PAW_PBE H 15Jun2001                   :
 energy of atom  1       EATOM=  -12.4884
 kinetic energy error for atom=    0.0020 (will be added to EATOM!!)
  PAW_PBE C 08Apr2002                   :
 energy of atom  2       EATOM= -147.1560
 kinetic energy error for atom=    0.0076 (will be added to EATOM!!)
  PAW_PBE N 08Apr2002                   :
 energy of atom  3       EATOM= -264.5486
 kinetic energy error for atom=    0.0138 (will be added to EATOM!!)
  PAW_PBE I 08Apr2002                   :
 energy of atom  4       EATOM= -315.8678
 kinetic energy error for atom=    0.0009 (will be added to EATOM!!)
  PAW_PBE Pb 08Apr2002                  :
 energy of atom  5       EATOM=  -96.9868
 kinetic energy error for atom=    0.0000 (will be added to EATOM!!)
 
 
 POSCAR:  H  C  N  I Pb
  positions in cartesian coordinates
  No initial velocities read in
 exchange correlation table for  LEXCH =        8
   RHO(1)=    0.500       N(1)  =     2000
   RHO(2)=  100.500       N(2)  =     4000
 


--------------------------------------------------------------------------------------------------------


 ion  position               nearest neighbor table
   1  0.426  0.261  0.582- 187 0.99
   2  0.416  0.743  0.578- 188 0.99
   3  0.936  0.289  0.582- 189 1.02
   4  0.946  0.809  0.580- 190 1.01
   5  0.311  0.060  0.580- 194 1.04
   6  0.304  0.578  0.575- 195 1.03
   7  0.785  0.075  0.582- 196 1.03
   8  0.104  0.196  0.564- 183 1.03
   9  0.085  0.676  0.564- 184 1.02
  10  0.600  0.195  0.563- 185 1.01
  11  0.608  0.741  0.563- 186 1.03
  12  0.369  0.020  0.561- 194 1.02
  13  0.274  0.612  0.551- 195 1.00
  14  0.853  0.059  0.563- 196 1.01
  15  0.070  0.247  0.585- 183 1.01
  16  0.012  0.691  0.582- 184 1.02
  17  0.536  0.180  0.583- 185 1.01
  18  0.547  0.699  0.581- 186 1.02
  19  0.265  0.445  0.584- 191 1.04
  20  0.176  0.019  0.578- 192 1.05
  21  0.676  0.987  0.581- 193 1.03
  22  0.419  0.325  0.561- 187 1.02
  23  0.396  0.806  0.558- 188 1.02
  24  0.890  0.259  0.559- 189 1.02
  25  0.974  0.870  0.560- 190 1.03
  26  0.211  0.402  0.565- 191 1.00
  27  0.155  0.958  0.557- 192 1.00
  28  0.682  0.916  0.562- 193 1.01
  29  0.529  0.286  0.546- 146 1.09
  30  0.519  0.808  0.546- 147 1.09
  31  0.993  0.202  0.545- 144 1.07
  32  0.065  0.789  0.547- 145 1.11
  33  0.210  0.503  0.542- 148 1.07
  34  0.274  0.952  0.545- 149 1.07
  35  0.794  0.958  0.548- 150 1.08
  36  0.436  0.286  0.675- 205 0.99
  37  0.432  0.821  0.672- 206 0.99
  38  0.971  0.275  0.682- 207 1.01
  39  0.935  0.790  0.675- 208 1.03
  40  0.298  0.047  0.677- 209 1.00
  41  0.298  0.551  0.676- 210 0.99
  42  0.799  0.056  0.675- 211 0.99
  43  0.807  0.553  0.676- 212 1.02
  44  0.083  0.168  0.644- 197 1.03
  45  0.095  0.687  0.654- 198 1.04
  46  0.580  0.174  0.650- 199 1.04
  47  0.561  0.674  0.657- 200 1.02
  48  0.183  0.411  0.649- 201 1.05
  49  0.173  0.922  0.647- 202 1.05
  50  0.672  0.425  0.653- 203 0.98
  51  0.667  0.928  0.650- 204 1.05
  52  0.071  0.180  0.672- 197 1.02
  53  0.038  0.690  0.676- 198 1.01
  54  0.535  0.184  0.674- 199 1.02
  55  0.523  0.718  0.679- 200 0.99
  56  0.212  0.437  0.675- 201 0.99
  57  0.190  0.948  0.673- 202 1.00
  58  0.711  0.446  0.678- 203 1.03
  59  0.690  0.964  0.675- 204 0.99
  60  0.423  0.334  0.651- 205 1.03
  61  0.418  0.840  0.645- 206 1.03
  62  0.928  0.319  0.660- 207 1.02
  63  0.935  0.843  0.652- 208 1.02
  64  0.339  0.072  0.653- 209 1.06
  65  0.317  0.591  0.651- 210 1.03
  66  0.839  0.072  0.650- 211 1.04
  67  0.817  0.593  0.651- 212 1.01
  68  0.994  0.256  0.636- 151 1.09
  69  0.035  0.785  0.637- 152 1.11
  70  0.515  0.269  0.633- 153 1.11
  71  0.498  0.750  0.633- 154 1.10
  72  0.264  0.997  0.632- 156 1.12
  73  0.247  0.508  0.633- 155 1.10
  74  0.760  0.994  0.633- 158 1.10
  75  0.733  0.514  0.635- 157 1.08
  76  0.449  0.301  0.769- 221 1.02
  77  0.449  0.801  0.769- 222 1.02
  78  0.949  0.301  0.769- 223 1.02
  79  0.949  0.801  0.769- 224 1.02
  80  0.301  0.051  0.769- 225 1.02
  81  0.301  0.551  0.769- 226 1.02
  82  0.801  0.051  0.769- 227 1.02
  83  0.801  0.551  0.769- 228 1.02
  84  0.079  0.171  0.743- 213 1.02
  85  0.079  0.671  0.743- 214 1.02
  86  0.579  0.171  0.743- 215 1.02
  87  0.579  0.671  0.743- 216 1.02
  88  0.171  0.421  0.743- 217 1.02
  89  0.171  0.921  0.743- 218 1.02
  90  0.671  0.421  0.743- 219 1.02
  91  0.671  0.921  0.743- 220 1.02
  92  0.051  0.199  0.769- 213 1.02
  93  0.051  0.699  0.769- 214 1.02
  94  0.551  0.199  0.769- 215 1.02
  95  0.551  0.699  0.769- 216 1.02
  96  0.199  0.449  0.769- 217 1.02
  97  0.199  0.949  0.769- 218 1.02
  98  0.699  0.449  0.769- 219 1.02
  99  0.699  0.949  0.769- 220 1.02
 100  0.421  0.329  0.743- 221 1.02
 101  0.421  0.829  0.743- 222 1.02
 102  0.921  0.329  0.743- 223 1.02
 103  0.921  0.829  0.743- 224 1.02
 104  0.329  0.079  0.743- 225 1.02
 105  0.329  0.579  0.743- 226 1.02
 106  0.829  0.079  0.743- 227 1.02
 107  0.829  0.579  0.743- 228 1.02
 108  0.000  0.250  0.726- 161 1.09
 109  0.000  0.750  0.726- 162 1.09
 110  0.500  0.250  0.726- 159 1.09
 111  0.500  0.750  0.726- 160 1.09
 112  0.250  0.000  0.726- 163 1.09
 113  0.250  0.500  0.726- 164 1.09
 114  0.750  0.000  0.726- 165 1.09
 115  0.750  0.500  0.726- 166 1.09
 116  0.785  0.508  0.519- 173 1.09
 117  0.871  0.507  0.532- 173 1.10
 118  0.754  0.629  0.539- 174 1.10
 119  0.768  0.629  0.567- 174 1.09
 120  0.679  0.455  0.559- 175 1.10
 121  0.672  0.551  0.564- 175 1.10
 122  0.801  0.429  0.571- 176 1.10
 123  0.869  0.501  0.572- 176 1.11
 124  0.862  0.381  0.543- 177 1.12
 125  0.764  0.378  0.539- 177 1.10
 126  0.775  0.382  0.500- 178 1.10
 127  0.863  0.420  0.501- 178 1.07
 128  0.892  0.612  0.533- 179 1.10
 129  0.908  0.610  0.561- 179 1.11
 130  0.868  0.691  0.549- 179 1.10
 131  0.596  0.524  0.534- 180 1.10
 132  0.666  0.483  0.519- 180 1.10
 133  0.670  0.581  0.524- 180 1.11
 134  0.726  0.482  0.597- 181 1.09
 135  0.750  0.574  0.593- 181 1.10
 136  0.815  0.513  0.606- 181 1.10
 137  0.835  0.265  0.518- 182 1.12
 138  0.844  0.278  0.490- 182 1.11
 139  0.940  0.176  0.503- 168 1.08
 140  0.974  0.409  0.514- 169 1.10
 141  0.074  0.153  0.503- 170 1.10
 142  0.107  0.386  0.516- 171 1.09
 143  0.159  0.261  0.511- 172 1.08
 144  0.997  0.227  0.561-  31 1.07 189 1.30 183 1.30
 145  0.029  0.773  0.561-  32 1.11 184 1.30 190 1.31
 146  0.509  0.258  0.561-  29 1.09 185 1.30 187 1.32
 147  0.503  0.772  0.559-  30 1.09 186 1.31 188 1.33
 148  0.240  0.506  0.557-  33 1.07 191 1.29 195 1.32
 149  0.263  0.987  0.558-  34 1.07 194 1.31 192 1.31
 150  0.768  0.986  0.561-  35 1.08 196 1.30 193 1.31
 151  0.006  0.243  0.652-  68 1.09 197 1.29 207 1.32
 152  0.015  0.764  0.653-  69 1.11 198 1.28 208 1.31
 153  0.502  0.254  0.650-  70 1.11 199 1.28 205 1.33
 154  0.490  0.757  0.651-  71 1.10 200 1.31 206 1.33
 155  0.249  0.500  0.650-  73 1.10 201 1.29 210 1.34
 156  0.256  0.997  0.650-  72 1.12 209 1.29 202 1.30
 157  0.744  0.509  0.652-  75 1.08 212 1.31 203 1.33
 158  0.752  0.999  0.650-  74 1.10 204 1.29 211 1.33
 159  0.500  0.250  0.743- 110 1.09 221 1.31 215 1.31
 160  0.500  0.750  0.743- 111 1.09 222 1.31 216 1.31
 161  1.000  0.250  0.743- 108 1.09 223 1.31 213 1.31
 162  1.000  0.750  0.743- 109 1.09 224 1.31 214 1.31
 163  0.250  0.000  0.743- 112 1.09 225 1.31 218 1.31
 164  0.250  0.500  0.743- 113 1.09 226 1.31 217 1.31
 165  0.750  0.000  0.743- 114 1.09 227 1.31 220 1.31
 166  0.750  0.500  0.743- 115 1.09 228 1.31 219 1.31
 167  0.945  0.292  0.508- 168 1.38 169 1.43 182 1.53
 168  0.976  0.222  0.505- 139 1.08 167 1.38 170 1.40
 169  0.995  0.352  0.512- 140 1.10 171 1.38 167 1.43
 170  0.052  0.209  0.506- 141 1.10 168 1.40 172 1.40
 171  0.070  0.340  0.512- 142 1.09 169 1.38 172 1.40
 172  0.100  0.269  0.510- 143 1.08 170 1.40 171 1.40
 173  0.813  0.488  0.533- 116 1.09 117 1.10 229 1.50 177 1.55
 174  0.789  0.606  0.552- 119 1.09 118 1.10 179 1.53 229 1.54
 175  0.693  0.511  0.552- 121 1.10 120 1.10 229 1.52 180 1.52
 176  0.809  0.489  0.573- 122 1.10 123 1.11 181 1.52 229 1.53
 177  0.815  0.402  0.532- 125 1.10 124 1.12 173 1.55 178 1.55
 178  0.828  0.381  0.509- 127 1.07 126 1.10 177 1.55 182 1.56
 179  0.869  0.630  0.549- 128 1.10 130 1.10 129 1.11 174 1.53
 180  0.656  0.526  0.531- 132 1.10 131 1.10 133 1.11 175 1.52
 181  0.773  0.517  0.593- 134 1.09 136 1.10 135 1.10 176 1.52
 182  0.861  0.302  0.506- 138 1.11 137 1.12 167 1.53 178 1.56
 183  0.059  0.222  0.571-  15 1.01   8 1.03 144 1.30
 184  0.043  0.708  0.570-  16 1.02   9 1.02 145 1.30
 185  0.549  0.206  0.569-  10 1.01  17 1.01 146 1.30
 186  0.555  0.730  0.568-  18 1.02  11 1.03 147 1.31
 187  0.446  0.283  0.568-   1 0.99  22 1.02 146 1.32
 188  0.433  0.774  0.566-   2 0.99  23 1.02 147 1.33
 189  0.938  0.261  0.568-  24 1.02   3 1.02 144 1.30
 190  0.977  0.819  0.567-   4 1.01  25 1.03 145 1.31
 191  0.237  0.448  0.569-  26 1.00  19 1.04 148 1.29
 192  0.194  0.987  0.565-  27 1.00  20 1.05 149 1.31
 193  0.703  0.964  0.568-  28 1.01  21 1.03 150 1.31
 194  0.317  0.026  0.566-  12 1.02   5 1.04 149 1.31
 195  0.274  0.569  0.562-  13 1.00   6 1.03 148 1.32
 196  0.805  0.043  0.569-  14 1.01   7 1.03 150 1.30
 197  0.056  0.194  0.657-  52 1.02  44 1.03 151 1.29
 198  0.051  0.711  0.662-  53 1.01  45 1.04 152 1.28
 199  0.541  0.202  0.659-  54 1.02  46 1.04 153 1.28
 200  0.528  0.714  0.664-  55 0.99  47 1.02 154 1.31
 201  0.213  0.447  0.659-  56 0.99  48 1.05 155 1.29
 202  0.204  0.954  0.658-  57 1.00  49 1.05 156 1.30
 203  0.706  0.457  0.662-  50 0.98  58 1.03 157 1.33
 204  0.701  0.962  0.660-  59 0.99  51 1.05 158 1.29
 205  0.450  0.294  0.660-  36 0.99  60 1.03 153 1.33
 206  0.443  0.810  0.656-  37 0.99  61 1.03 154 1.33
 207  0.966  0.282  0.666-  38 1.01  62 1.02 151 1.32
 208  0.958  0.800  0.661-  63 1.02  39 1.03 152 1.31
 209  0.298  0.040  0.661-  40 1.00  64 1.06 156 1.29
 210  0.291  0.551  0.660-  41 0.99  65 1.03 155 1.34
 211  0.800  0.046  0.659-  42 0.99  66 1.04 158 1.33
 212  0.792  0.555  0.660-  67 1.01  43 1.02 157 1.31
 213  0.046  0.204  0.753-  92 1.02  84 1.02 161 1.31
 214  0.046  0.704  0.753-  93 1.02  85 1.02 162 1.31
 215  0.546  0.204  0.753-  94 1.02  86 1.02 159 1.31
 216  0.546  0.704  0.753-  95 1.02  87 1.02 160 1.31
 217  0.204  0.454  0.753-  96 1.02  88 1.02 164 1.31
 218  0.204  0.954  0.753-  97 1.02  89 1.02 163 1.31
 219  0.704  0.454  0.753-  98 1.02  90 1.02 166 1.31
 220  0.704  0.954  0.753-  99 1.02  91 1.02 165 1.31
 221  0.454  0.296  0.753-  76 1.02 100 1.02 159 1.31
 222  0.454  0.796  0.753-  77 1.02 101 1.02 160 1.31
 223  0.954  0.296  0.753-  78 1.02 102 1.02 161 1.31
 224  0.954  0.796  0.753-  79 1.02 103 1.02 162 1.31
 225  0.296  0.046  0.753-  80 1.02 104 1.02 163 1.31
 226  0.296  0.546  0.753-  81 1.02 105 1.02 164 1.31
 227  0.796  0.046  0.753-  82 1.02 106 1.02 165 1.31
 228  0.796  0.546  0.753-  83 1.02 107 1.02 166 1.31
 229  0.776  0.521  0.552- 173 1.50 175 1.52 176 1.53 174 1.54
 230  0.507  0.992  0.553- 304 3.11
 231  0.458  0.477  0.555- 305 3.12
 232  0.993  0.011  0.551- 302 3.28
 233  0.034  0.491  0.558- 303 3.09
 234  0.246  0.246  0.555- 306 3.12
 235  0.241  0.770  0.552- 307 3.24
 236  0.742  0.227  0.555- 308 3.19
 237  0.716  0.788  0.545- 309 3.85
 238  0.003  0.997  0.654- 302 3.15 310 3.18
 239  0.999  0.506  0.657- 311 3.01 303 3.11
 240  0.495  0.000  0.655- 312 3.09 304 3.29
 241  0.495  0.498  0.655- 313 3.10 305 3.25
 242  0.255  0.240  0.656- 314 3.07 306 3.17
 243  0.254  0.753  0.654- 315 3.18 307 3.18
 244  0.744  0.248  0.655- 316 3.10 308 3.14
 245  0.757  0.757  0.654- 309 3.07 317 3.19
 246  0.150  0.105  0.610- 306 3.21 302 3.35
 247  0.152  0.607  0.609- 303 3.18 307 3.18
 248  0.646  0.107  0.610- 308 3.26 304 3.35
 249  0.610  0.640  0.615- 309 3.33 305 3.35
 250  0.363  0.389  0.613- 305 3.19 306 3.25
 251  0.362  0.891  0.609- 304 3.15 307 3.26
 252  0.889  0.363  0.616- 308 3.25 303 3.41
 253  0.861  0.892  0.608- 302 3.17 309 3.19
 254  0.117  0.359  0.611- 306 3.15 303 3.30
 255  0.114  0.870  0.608- 307 3.14 302 3.25
 256  0.617  0.369  0.607- 308 3.23 305 3.24
 257  0.617  0.866  0.612- 309 3.18 304 3.19
 258  0.398  0.142  0.609- 304 3.26 306 3.30
 259  0.385  0.641  0.607- 305 3.23 307 3.30
 260  0.885  0.137  0.613- 302 3.16 308 3.23
 261  0.915  0.665  0.614- 303 3.39 309 3.43
 262  0.000  0.000  0.755- 310 3.13 318 3.27
 263  0.000  0.500  0.755- 311 3.13 319 3.27
 264  0.500  0.000  0.755- 312 3.13 320 3.27
 265  0.500  0.500  0.755- 313 3.13 321 3.27
 266  0.250  0.250  0.755- 314 3.13 322 3.27
 267  0.250  0.750  0.755- 315 3.13 323 3.27
 268  0.750  0.250  0.755- 316 3.13 324 3.27
 269  0.750  0.750  0.755- 317 3.13 325 3.27
 270  0.136  0.114  0.705- 310 3.20 314 3.20
 271  0.136  0.614  0.705- 311 3.20 315 3.20
 272  0.636  0.114  0.705- 312 3.20 316 3.20
 273  0.636  0.614  0.705- 313 3.20 317 3.20
 274  0.364  0.386  0.705- 313 3.20 314 3.20
 275  0.364  0.886  0.705- 312 3.20 315 3.20
 276  0.864  0.386  0.705- 311 3.20 316 3.20
 277  0.864  0.886  0.705- 310 3.20 317 3.20
 278  0.114  0.364  0.705- 314 3.21 311 3.21
 279  0.114  0.864  0.705- 315 3.21 310 3.21
 280  0.614  0.364  0.705- 316 3.21 313 3.21
 281  0.614  0.864  0.705- 317 3.21 312 3.21
 282  0.386  0.136  0.705- 314 3.21 312 3.21
 283  0.386  0.636  0.705- 315 3.21 313 3.21
 284  0.886  0.136  0.705- 316 3.21 310 3.21
 285  0.886  0.636  0.705- 317 3.21 311 3.21
 286  0.135  0.115  0.801- 318 3.22 322 3.22
 287  0.135  0.615  0.801- 319 3.22 323 3.22
 288  0.635  0.115  0.801- 320 3.22 324 3.22
 289  0.635  0.615  0.801- 321 3.22 325 3.22
 290  0.365  0.385  0.801- 321 3.22 322 3.22
 291  0.365  0.885  0.801- 320 3.22 323 3.22
 292  0.865  0.385  0.801- 319 3.22 324 3.22
 293  0.865  0.885  0.801- 318 3.22 325 3.22
 294  0.115  0.365  0.801- 319 3.23 322 3.23
 295  0.115  0.865  0.801- 318 3.23 323 3.23
 296  0.615  0.365  0.801- 321 3.23 324 3.23
 297  0.615  0.865  0.801- 320 3.23 325 3.23
 298  0.385  0.135  0.801- 320 3.23 322 3.23
 299  0.385  0.635  0.801- 321 3.23 323 3.23
 300  0.885  0.135  0.801- 318 3.23 324 3.23
 301  0.885  0.635  0.801- 319 3.23 325 3.23
 302  0.995  0.004  0.604- 238 3.15 260 3.16 253 3.17 255 3.25 232 3.28 246 3.35
 303  0.009  0.505  0.607- 233 3.09 239 3.11 247 3.18 254 3.30 261 3.39 252 3.41
 304  0.500  0.995  0.603- 230 3.11 251 3.15 257 3.19 258 3.26 240 3.29 248 3.35
 305  0.495  0.501  0.603- 231 3.12 250 3.19 259 3.23 256 3.24 241 3.25 249 3.35
 306  0.252  0.250  0.605- 234 3.12 254 3.15 242 3.17 246 3.21 250 3.25 258 3.30
 307  0.244  0.756  0.603- 255 3.14 247 3.18 243 3.18 235 3.24 251 3.26 259 3.30
 308  0.752  0.252  0.605- 244 3.14 236 3.19 260 3.23 256 3.23 252 3.25 248 3.26
 309  0.751  0.755  0.605- 245 3.07 257 3.18 253 3.19 249 3.33 261 3.43 237 3.85
 310  0.000  0.000  0.705- 262 3.13 238 3.18 270 3.20 277 3.20 279 3.21 284 3.21
 311  0.000  0.500  0.705- 239 3.01 263 3.13 271 3.20 276 3.20 278 3.21 285 3.21
 312  0.500  0.000  0.705- 240 3.09 264 3.13 272 3.20 275 3.20 281 3.21 282 3.21
 313  0.500  0.500  0.705- 241 3.10 265 3.13 273 3.20 274 3.20 280 3.21 283 3.21
 314  0.250  0.250  0.705- 242 3.07 266 3.13 270 3.20 274 3.20 282 3.21 278 3.21
 315  0.250  0.750  0.705- 267 3.13 243 3.18 271 3.20 275 3.20 283 3.21 279 3.21
 316  0.750  0.250  0.705- 244 3.10 268 3.13 272 3.20 276 3.20 284 3.21 280 3.21
 317  0.750  0.750  0.705- 269 3.13 245 3.19 273 3.20 277 3.20 285 3.21 281 3.21
 318  0.000  0.000  0.807- 286 3.22 293 3.22 300 3.23 295 3.23 262 3.27
 319  0.000  0.500  0.807- 287 3.22 292 3.22 301 3.23 294 3.23 263 3.27
 320  0.500  0.000  0.807- 288 3.22 291 3.22 298 3.23 297 3.23 264 3.27
 321  0.500  0.500  0.807- 289 3.22 290 3.22 299 3.23 296 3.23 265 3.27
 322  0.250  0.250  0.807- 290 3.22 286 3.22 294 3.23 298 3.23 266 3.27
 323  0.250  0.750  0.807- 291 3.22 287 3.22 299 3.23 295 3.23 267 3.27
 324  0.750  0.250  0.807- 292 3.22 288 3.22 296 3.23 300 3.23 268 3.27
 325  0.750  0.750  0.807- 293 3.22 289 3.22 297 3.23 301 3.23 269 3.27
 

IMPORTANT INFORMATION: All symmetrisations will be switched off!
NOSYMM: (Re-)initialisation of all symmetry stuff for point group C_1.


----------------------------------------------------------------------------------------

                                     Primitive cell                                     

  volume of cell :   20385.2105

  direct lattice vectors                    reciprocal lattice vectors
    18.060800552  0.000000000  0.000000000     0.055368531  0.000015077 -0.000000000
    -0.004918649 18.062799454  0.000000000     0.000000000  0.055362404  0.000000000
     0.000000000  0.000000000 62.487499237     0.000000000 -0.000000000  0.016003201

  length of vectors
    18.060800552 18.062800123 62.487499237     0.055368533  0.055362404  0.016003201

  position of ions in fractional coordinates (direct lattice)
     0.426229714  0.260745732  0.581677683
     0.416366976  0.743293504  0.578129244
     0.935737272  0.289400998  0.582011978
     0.946109652  0.808909961  0.579890277
     0.311269808  0.059543791  0.579640899
     0.303665838  0.578021805  0.575487297
     0.785312802  0.074773948  0.581642886
     0.103607174  0.196470257  0.564033041
     0.085056834  0.676033507  0.563978769
     0.600122141  0.194727049  0.563208596
     0.607999830  0.741426419  0.563170746
     0.369287983  0.019947088  0.560822071
     0.273570593  0.611677278  0.551414611
     0.853351319  0.058824066  0.562927473
     0.070085726  0.247409349  0.585205854
     0.012430678  0.690964645  0.582307997
     0.536019361  0.179744592  0.582707552
     0.546650404  0.698980761  0.581230694
     0.264507511  0.445270271  0.583839126
     0.176000784  0.019161405  0.577647580
     0.676263542  0.986711127  0.580647326
     0.419236950  0.324864529  0.560944105
     0.395896219  0.806171978  0.557996982
     0.890382757  0.258509036  0.559067326
     0.973613564  0.869875310  0.559504486
     0.210890839  0.402163006  0.564822139
     0.154549536  0.958211060  0.557217041
     0.682431368  0.916337823  0.561578387
     0.528755153  0.286488888  0.546213192
     0.519301853  0.808103001  0.545953130
     0.993126356  0.201661789  0.545438074
     0.064879797  0.788646308  0.547121760
     0.210476916  0.503484226  0.542185836
     0.274202944  0.952459803  0.544513695
     0.794196510  0.957810012  0.548181542
     0.436489442  0.286046391  0.675185216
     0.431514670  0.821116315  0.671658815
     0.971043703  0.274992611  0.682075755
     0.934921231  0.789875122  0.675475802
     0.298427434  0.047434888  0.676999971
     0.298281559  0.551044766  0.675741419
     0.799409382  0.056113893  0.674823694
     0.807040208  0.553150233  0.676112892
     0.083471339  0.168448061  0.644199771
     0.095220072  0.687210570  0.653836403
     0.580246353  0.174154331  0.649597151
     0.561173214  0.674111988  0.657061230
     0.182547674  0.411020797  0.649424082
     0.172808613  0.921734058  0.646750574
     0.671586417  0.425103132  0.653294913
     0.666823139  0.927865601  0.650284850
     0.070969992  0.179566083  0.671747151
     0.037898022  0.689736148  0.676185966
     0.534916676  0.183859051  0.673932463
     0.523068646  0.718134395  0.679356277
     0.211872746  0.436815511  0.674753978
     0.189610399  0.948351023  0.672878358
     0.710886878  0.446414028  0.677653178
     0.690315595  0.963733047  0.675152373
     0.423479672  0.334498447  0.651261547
     0.417738092  0.839823597  0.644629544
     0.928014504  0.318564786  0.660024530
     0.934857456  0.842849644  0.652208880
     0.338764986  0.072248733  0.653143576
     0.317163789  0.590691195  0.651124434
     0.838889338  0.072442012  0.649863562
     0.816512006  0.592716884  0.651050384
     0.994382463  0.255683277  0.635665532
     0.034766213  0.785210973  0.637127250
     0.515129687  0.268701791  0.633480341
     0.497971662  0.749980280  0.633293170
     0.264432977  0.997281002  0.632382099
     0.246903938  0.507584020  0.632566462
     0.760169113  0.993679452  0.632561823
     0.732733646  0.514230829  0.634902013
     0.448745018  0.301283966  0.768889017
     0.448745007  0.801283913  0.768889017
     0.948744965  0.301283966  0.768889017
     0.948745007  0.801283913  0.768889017
     0.301275995  0.051294496  0.768872961
     0.301276011  0.551294499  0.768872961
     0.801275943  0.051294496  0.768872961
     0.801275984  0.551294499  0.768872961
     0.078771004  0.171180501  0.743441971
     0.078771006  0.671180448  0.743441971
     0.578771004  0.171180501  0.743441971
     0.578770992  0.671180448  0.743441971
     0.171199499  0.421174482  0.743421032
     0.171199501  0.921174508  0.743421032
     0.671199512  0.421174482  0.743421032
     0.671199501  0.921174508  0.743421032
     0.051256000  0.198714991  0.768889017
     0.051256002  0.698714925  0.768889017
     0.551256027  0.198714991  0.768889017
     0.551256016  0.698714925  0.768889017
     0.198723491  0.448703970  0.768872046
     0.198723493  0.948703970  0.768872046
     0.698723518  0.448703970  0.768872046
     0.698723507  0.948703970  0.768872046
     0.421231519  0.328817467  0.743441971
     0.421231508  0.828817440  0.743441971
     0.921231466  0.328817467  0.743441971
     0.921231508  0.828817440  0.743441971
     0.328800503  0.078824997  0.743421032
     0.328800492  0.578824964  0.743421032
     0.828800477  0.078824997  0.743421032
     0.828800519  0.578824964  0.743421032
     0.000003500  0.250001478  0.725821992
     0.000003500  0.750001452  0.725821992
     0.500003506  0.250001478  0.725821992
     0.500003495  0.750001452  0.725821992
     0.250000502  0.000000000  0.725803983
     0.250000517  0.500000000  0.725803983
     0.750000502  0.000000000  0.725803983
     0.750000490  0.500000000  0.725803983
     0.784831202  0.508390189  0.519061582
     0.870676831  0.507031123  0.532251904
     0.753683799  0.628539598  0.539239019
     0.767705790  0.628572860  0.566918566
     0.679030897  0.455247506  0.558623755
     0.671595155  0.550834420  0.564204401
     0.801275716  0.428546467  0.571306407
     0.868879436  0.501353100  0.572028658
     0.861802793  0.381272459  0.542551388
     0.764197546  0.377961621  0.538789955
     0.775181867  0.382304496  0.499872075
     0.863479257  0.420065281  0.500628422
     0.891844407  0.612339150  0.533157297
     0.908198679  0.610244243  0.561270525
     0.867914237  0.690578271  0.548891890
     0.596315278  0.523596983  0.534476653
     0.666044215  0.482902573  0.519020558
     0.669900279  0.580739409  0.524106354
     0.726159210  0.481566896  0.597072486
     0.750452072  0.573891599  0.593199091
     0.814823652  0.513366530  0.605838277
     0.834821020  0.264721187  0.517922744
     0.844256400  0.278174412  0.490281961
     0.939607281  0.175531652  0.503022974
     0.974411872  0.409283278  0.514236643
     0.073635121  0.152960528  0.503439195
     0.106970284  0.386284044  0.515764780
     0.159301378  0.260767563  0.510976103
     0.996544864  0.226893244  0.560843316
     0.029440777  0.772656154  0.560896854
     0.509363409  0.258139505  0.560591800
     0.503345006  0.772094228  0.559254619
     0.240015187  0.506029498  0.557103127
     0.262635205  0.986924338  0.558128295
     0.768393673  0.986453431  0.561300744
     0.006096898  0.243424944  0.652390923
     0.015062039  0.764247486  0.652905797
     0.502103530  0.253976195  0.650324165
     0.490288340  0.756826241  0.650666396
     0.249307819  0.500021805  0.650007023
     0.255627340  0.996948018  0.650050428
     0.744096657  0.509398255  0.651756519
     0.752475414  0.999454875  0.649952325
     0.499988984  0.249994984  0.743277021
     0.499989025  0.749994958  0.743277021
     0.999988984  0.249994984  0.743277021
     0.999989025  0.749994958  0.743277021
     0.250000502  0.000001000  0.743255960
     0.250000517  0.500001003  0.743255960
     0.750000502  0.000001000  0.743255960
     0.750000491  0.500001003  0.743255960
     0.945479185  0.292026338  0.507921048
     0.976053669  0.222480544  0.505423662
     0.994785590  0.352270602  0.512081549
     0.052347527  0.209372551  0.506144326
     0.070221572  0.339828665  0.512438554
     0.100257030  0.269091385  0.509576836
     0.813162326  0.488083770  0.533205891
     0.789069843  0.605508553  0.551954453
     0.692507353  0.510846179  0.552426776
     0.808989875  0.488786560  0.572702194
     0.815350731  0.402244684  0.532416182
     0.828264002  0.380937722  0.508602825
     0.869467943  0.629553419  0.548762591
     0.655902018  0.526108147  0.531006904
     0.772846001  0.517076519  0.593156053
     0.861393834  0.301986624  0.505881517
     0.059133963  0.222235694  0.571140297
     0.042788131  0.708249873  0.569530539
     0.549153604  0.205512260  0.568887283
     0.554712422  0.729900575  0.567776343
     0.446475186  0.282796217  0.568453847
     0.433104166  0.773914851  0.565886011
     0.938063900  0.261088494  0.567855155
     0.977342637  0.818619406  0.566736828
     0.236876732  0.448360679  0.569311623
     0.193990651  0.987324229  0.564680509
     0.703348164  0.963615978  0.567699545
     0.316681152  0.025650785  0.566328788
     0.273860394  0.569074865  0.561675696
     0.804631903  0.042683171  0.569182569
     0.055815161  0.194389698  0.656608380
     0.050524228  0.711089017  0.661696678
     0.540763536  0.201802165  0.658582713
     0.527637906  0.713520721  0.663592810
     0.213347995  0.447180017  0.659121701
     0.203707975  0.954046648  0.657521527
     0.705767812  0.456594375  0.661519092
     0.701322934  0.962247649  0.659556785
     0.450101559  0.293981041  0.659952250
     0.443405244  0.809604620  0.656472306
     0.965500980  0.281666478  0.666104665
     0.958027237  0.800266396  0.660621207
     0.298335689  0.039779637  0.661126679
     0.291154259  0.550525554  0.660027827
     0.800193294  0.045606405  0.659341471
     0.792000309  0.554615316  0.660424207
     0.045862501  0.204119496  0.752725994
     0.045862500  0.704119456  0.752725994
     0.545862507  0.204119496  0.752725994
     0.545862496  0.704119456  0.752725994
     0.204119002  0.454101003  0.752704994
     0.204118991  0.954100951  0.752704994
     0.704118976  0.454101003  0.752704994
     0.704118964  0.954100951  0.752704994
     0.454140018  0.295888490  0.752726971
     0.454140007  0.795888516  0.752726971
     0.954140018  0.295888490  0.752726971
     0.954140060  0.795888516  0.752726971
     0.295882492  0.045900498  0.752704994
     0.295882481  0.545900528  0.752704994
     0.795882439  0.045900498  0.752704994
     0.795882481  0.545900528  0.752704994
     0.775824923  0.521375308  0.552330505
     0.507037017  0.992223487  0.553092986
     0.458018023  0.477006917  0.554945896
     0.992715174  0.010577653  0.551247219
     0.034208438  0.490724605  0.558287079
     0.246314059  0.246278792  0.555163224
     0.241161294  0.769548798  0.551538598
     0.742392291  0.226808556  0.554739739
     0.715897459  0.787854818  0.544729009
     0.002556960  0.996710275  0.653963870
     0.998960175  0.506166297  0.656665826
     0.495223999  0.000486767  0.655322601
     0.494529217  0.497647070  0.655231762
     0.254655783  0.240480125  0.655735342
     0.254004339  0.752903319  0.653964968
     0.744406836  0.248076105  0.655303432
     0.757448010  0.756522919  0.653828650
     0.150008877  0.104975600  0.609582495
     0.152029178  0.607429334  0.608871599
     0.645746213  0.107137019  0.610316590
     0.610471477  0.640087353  0.615041717
     0.362903211  0.388609281  0.612824538
     0.361983546  0.891419201  0.608765010
     0.889137059  0.362591418  0.616062246
     0.861064980  0.892403878  0.608080608
     0.117153213  0.358617916  0.611399875
     0.113735731  0.869963852  0.608128286
     0.617005237  0.369447305  0.606941098
     0.617079916  0.866247685  0.611990692
     0.398227058  0.142142754  0.609152600
     0.385124097  0.640734441  0.607420442
     0.885498216  0.136739371  0.613318533
     0.914812808  0.665151848  0.614470924
     0.000000000  0.000000000  0.754927972
     0.000000000  0.500000000  0.754927972
     0.500000000  0.000000000  0.754927972
     0.499999989  0.500000000  0.754927972
     0.250000496  0.250000000  0.754939022
     0.250000511  0.749999974  0.754939022
     0.750000470  0.250000000  0.754939022
     0.750000458  0.749999974  0.754939022
     0.135790500  0.114209997  0.704782994
     0.135790502  0.614209984  0.704782994
     0.635790447  0.114209997  0.704782994
     0.635790488  0.614209984  0.704782994
     0.364209516  0.385789989  0.704782994
     0.364209505  0.885789963  0.704782994
     0.864209542  0.385789989  0.704782994
     0.864209531  0.885789963  0.704782994
     0.114217990  0.364218986  0.704780979
     0.114217992  0.864218986  0.704780979
     0.614218004  0.364218986  0.704780979
     0.614217992  0.864218986  0.704780979
     0.385782012  0.135781489  0.704782017
     0.385782001  0.635781489  0.704782017
     0.885781985  0.135781489  0.704782017
     0.885782027  0.635781489  0.704782017
     0.134667000  0.115332001  0.801256025
     0.134666989  0.615331988  0.801256025
     0.634666987  0.115332001  0.801256025
     0.634666976  0.615331988  0.801256025
     0.365333002  0.384667985  0.801256025
     0.365332990  0.884667959  0.801256025
     0.865332949  0.384667985  0.801256025
     0.865332938  0.884667959  0.801256025
     0.115328503  0.365337004  0.801264999
     0.115328505  0.865336978  0.801264999
     0.615328503  0.365337004  0.801264999
     0.615328492  0.865336978  0.801264999
     0.384671513  0.134662996  0.801264999
     0.384671501  0.634662970  0.801264999
     0.884671486  0.134662996  0.801264999
     0.884671528  0.634662970  0.801264999
     0.995352311  0.004457032  0.603643441
     0.009064195  0.505284205  0.606942624
     0.500396362  0.995219416  0.602783589
     0.495305662  0.500633942  0.603225694
     0.251571436  0.249739100  0.605094964
     0.244102735  0.755952651  0.603161716
     0.752052649  0.252215893  0.605188855
     0.750665874  0.754791999  0.604706764
     0.000000500  0.000000500  0.704828963
     0.000000500  0.500000475  0.704828963
     0.500000475  0.000000500  0.704828963
     0.500000464  0.500000475  0.704828963
     0.249999994  0.249999472  0.704824995
     0.250000010  0.749999498  0.704824995
     0.749999994  0.249999472  0.704824995
     0.749999983  0.749999498  0.704824995
     0.000000000  0.000000000  0.807317968
     0.000000000  0.500000000  0.807317968
     0.500000000  0.000000000  0.807317968
     0.499999989  0.500000000  0.807317968
     0.249999994  0.250000000  0.807317968
     0.250000010  0.749999974  0.807317968
     0.749999994  0.250000000  0.807317968
     0.749999983  0.749999974  0.807317968

  ion indices of the primitive-cell ions
   primitive index   ion index
                 1           1
                 2           2
                 3           3
                 4           4
                 5           5
                 6           6
                 7           7
                 8           8
                 9           9
                10          10
                11          11
                12          12
                13          13
                14          14
                15          15
                16          16
                17          17
                18          18
                19          19
                20          20
                21          21
                22          22
                23          23
                24          24
                25          25
                26          26
                27          27
                28          28
                29          29
                30          30
                31          31
                32          32
                33          33
                34          34
                35          35
                36          36
                37          37
                38          38
                39          39
                40          40
                41          41
                42          42
                43          43
                44          44
                45          45
                46          46
                47          47
                48          48
                49          49
                50          50
                51          51
                52          52
                53          53
                54          54
                55          55
                56          56
                57          57
                58          58
                59          59
                60          60
                61          61
                62          62
                63          63
                64          64
                65          65
                66          66
                67          67
                68          68
                69          69
                70          70
                71          71
                72          72
                73          73
                74          74
                75          75
                76          76
                77          77
                78          78
                79          79
                80          80
                81          81
                82          82
                83          83
                84          84
                85          85
                86          86
                87          87
                88          88
                89          89
                90          90
                91          91
                92          92
                93          93
                94          94
                95          95
                96          96
                97          97
                98          98
                99          99
               100         100
               101         101
               102         102
               103         103
               104         104
               105         105
               106         106
               107         107
               108         108
               109         109
               110         110
               111         111
               112         112
               113         113
               114         114
               115         115
               116         116
               117         117
               118         118
               119         119
               120         120
               121         121
               122         122
               123         123
               124         124
               125         125
               126         126
               127         127
               128         128
               129         129
               130         130
               131         131
               132         132
               133         133
               134         134
               135         135
               136         136
               137         137
               138         138
               139         139
               140         140
               141         141
               142         142
               143         143
               144         144
               145         145
               146         146
               147         147
               148         148
               149         149
               150         150
               151         151
               152         152
               153         153
               154         154
               155         155
               156         156
               157         157
               158         158
               159         159
               160         160
               161         161
               162         162
               163         163
               164         164
               165         165
               166         166
               167         167
               168         168
               169         169
               170         170
               171         171
               172         172
               173         173
               174         174
               175         175
               176         176
               177         177
               178         178
               179         179
               180         180
               181         181
               182         182
               183         183
               184         184
               185         185
               186         186
               187         187
               188         188
               189         189
               190         190
               191         191
               192         192
               193         193
               194         194
               195         195
               196         196
               197         197
               198         198
               199         199
               200         200
               201         201
               202         202
               203         203
               204         204
               205         205
               206         206
               207         207
               208         208
               209         209
               210         210
               211         211
               212         212
               213         213
               214         214
               215         215
               216         216
               217         217
               218         218
               219         219
               220         220
               221         221
               222         222
               223         223
               224         224
               225         225
               226         226
               227         227
               228         228
               229         229
               230         230
               231         231
               232         232
               233         233
               234         234
               235         235
               236         236
               237         237
               238         238
               239         239
               240         240
               241         241
               242         242
               243         243
               244         244
               245         245
               246         246
               247         247
               248         248
               249         249
               250         250
               251         251
               252         252
               253         253
               254         254
               255         255
               256         256
               257         257
               258         258
               259         259
               260         260
               261         261
               262         262
               263         263
               264         264
               265         265
               266         266
               267         267
               268         268
               269         269
               270         270
               271         271
               272         272
               273         273
               274         274
               275         275
               276         276
               277         277
               278         278
               279         279
               280         280
               281         281
               282         282
               283         283
               284         284
               285         285
               286         286
               287         287
               288         288
               289         289
               290         290
               291         291
               292         292
               293         293
               294         294
               295         295
               296         296
               297         297
               298         298
               299         299
               300         300
               301         301
               302         302
               303         303
               304         304
               305         305
               306         306
               307         307
               308         308
               309         309
               310         310
               311         311
               312         312
               313         313
               314         314
               315         315
               316         316
               317         317
               318         318
               319         319
               320         320
               321         321
               322         322
               323         323
               324         324
               325         325

----------------------------------------------------------------------------------------

 
 
 KPOINTS: Automatic Mesh                          

Automatic generation of k-mesh.
 Grid dimensions read from file:
 generate k-points for:    3    3    1

 Generating k-lattice:

  Cartesian coordinates                     Fractional coordinates (reciprocal lattice)
     0.018456177  0.000005026 -0.000000000     0.333333333  0.000000000  0.000000000
     0.000000000  0.018454135  0.000000000     0.000000000  0.333333333  0.000000000
     0.000000000 -0.000000000  0.016003201     0.000000000  0.000000000  1.000000000

  Length of vectors
     0.018456178  0.018454135  0.016003201

  Shift w.r.t. Gamma in fractional coordinates (k-lattice)
     0.000000000  0.000000000  0.000000000

 
 Subroutine IBZKPT returns following result:
 ===========================================
 
 Found      5 irreducible k-points:
 
 Following reciprocal coordinates:
            Coordinates               Weight
  0.000000  0.000000  0.000000      1.000000
  0.333333  0.000000  0.000000      2.000000
  0.000000  0.333333  0.000000      2.000000
  0.333333  0.333333  0.000000      2.000000
 -0.333333  0.333333  0.000000      2.000000
 
 Following cartesian coordinates:
            Coordinates               Weight
  0.000000  0.000000  0.000000      1.000000
  0.018456  0.000005  0.000000      2.000000
  0.000000  0.018454  0.000000      2.000000
  0.018456  0.018459  0.000000      2.000000
 -0.018456  0.018449  0.000000      2.000000
 


--------------------------------------------------------------------------------------------------------




 Dimension of arrays:
   k-points           NKPTS =      5   k-points in BZ     NKDIM =      5   number of bands    NBANDS=    732
   number of dos      NEDOS =    301   number of ions     NIONS =    325
   non local maximal  LDIM  =      5   non local SUM 2l+1 LMDIM =     13
   total plane-waves  NPLWV = ******
   max r-space proj   IRMAX =   3336   max aug-charges    IRDMAX=  19845
   dimension x,y,z NGX =   100 NGY =  100 NGZ =  350
   dimension x,y,z NGXF=   200 NGYF=  200 NGZF=  700
   support grid    NGXF=   200 NGYF=  200 NGZF=  700
   ions per type =             143  39  47  72  24
   NGX,Y,Z   is equivalent  to a cutoff of   9.20,  9.20,  9.31 a.u.
   NGXF,Y,Z  is equivalent  to a cutoff of  18.41, 18.41, 18.62 a.u.

 SYSTEM =  PSC                                     
 POSCAR =   H  C  N  I Pb                          

 Startparameter for this run:
   NWRITE =      2    write-flag & timer
   PREC   = normal    normal or accurate (medium, high low for compatibility)
   ISTART =      0    job   : 0-new  1-cont  2-samecut
   ICHARG =      1    charge: 1-file 2-atom 10-const
   ISPIN  =      1    spin polarized calculation?
   LNONCOLLINEAR =      F non collinear calculations
   LSORBIT =      F    spin-orbit coupling
   INIWAV =      1    electr: 0-lowe 1-rand  2-diag
   LASPH  =      F    aspherical Exc in radial PAW
 Electronic Relaxation 1
   ENCUT  =  500.0 eV  36.75 Ry    6.06 a.u.  32.93 32.93113.93*2*pi/ulx,y,z
   ENINI  =  500.0     initial cutoff
   ENAUG  =  644.9 eV  augmentation charge cutoff
   NELM   =    600;   NELMIN=  2; NELMDL=  0     # of ELM steps 
   EDIFF  = 0.1E-03   stopping-criterion for ELM
   LREAL  =      T    real-space projection
   NLSPLINE    = F    spline interpolate recip. space projectors
   LCOMPAT=      F    compatible to vasp.4.4
   GGA_COMPAT  = F    GGA compatible to vasp.4.4-vasp.4.6
   LMAXPAW     = -100 max onsite density
   LMAXMIX     =    2 max onsite mixed and CHGCAR
   VOSKOWN=      0    Vosko Wilk Nusair interpolation
   ROPT   =   -0.00050  -0.00050  -0.00050  -0.00050
   ROPT   =   -0.00050
 Ionic relaxation
   EDIFFG = 0.1E-02   stopping-criterion for IOM
   NSW    =      0    number of steps for IOM
   NBLOCK =      1;   KBLOCK =      1    inner block; outer block 
   IBRION =     -1    ionic relax: 0-MD 1-quasi-New 2-CG
   NFREE  =      0    steps in history (QN), initial steepest desc. (CG)
   ISIF   =      2    stress and relaxation
   IWAVPR =     10    prediction:  0-non 1-charg 2-wave 3-comb
   ISYM   =      0    0-nonsym 1-usesym 2-fastsym
   LCORR  =      T    Harris-Foulkes like correction to forces

   POTIM  = 0.5000    time-step for ionic-motion
   TEIN   =    0.0    initial temperature
   TEBEG  =    0.0;   TEEND  =   0.0 temperature during run
   SMASS  =  -3.00    Nose mass-parameter (am)
   estimated Nose-frequenzy (Omega)   =  0.10E-29 period in steps = 0.13E+47 mass=  -0.745E-26a.u.
   SCALEE = 1.0000    scale energy and forces
   NPACO  =    256;   APACO  = 16.0  distance and # of slots for P.C.
   PSTRESS=    0.0 pullay stress

  Mass of Ions in am
   POMASS =   1.00 12.01 14.00126.90207.20
  Ionic Valenz
   ZVAL   =   1.00  4.00  5.00  7.00  4.00
  Atomic Wigner-Seitz radii
   RWIGS  =  -1.00 -1.00 -1.00 -1.00 -1.00
  virtual crystal weights 
   VCA    =   1.00  1.00  1.00  1.00  1.00
   NELECT =    1134.0000    total number of electrons
   NUPDOWN=      -1.0000    fix difference up-down

 DOS related values:
   EMIN   =  10.00;   EMAX   =-10.00  energy-range for DOS
   EFERMI =   0.00
   ISMEAR =     0;   SIGMA  =   0.05  broadening in eV -4-tet -1-fermi 0-gaus

 Electronic relaxation 2 (details)
   IALGO  =     38    algorithm
   LDIAG  =      T    sub-space diagonalisation (order eigenvalues)
   LSUBROT=      F    optimize rotation matrix (better conditioning)
   TURBO    =      0    0=normal 1=particle mesh
   IRESTART =      0    0=no restart 2=restart with 2 vectors
   NREBOOT  =      0    no. of reboots
   NMIN     =      0    reboot dimension
   EREF     =   0.00    reference energy to select bands
   IMIX   =      4    mixing-type and parameters
     AMIX     =   0.40;   BMIX     =  0.01
     AMIX_MAG =   1.60;   BMIX_MAG =  0.01
     AMIN     =   0.01
     WC   =   100.;   INIMIX=   1;  MIXPRE=   1;  MAXMIX= -45

 Intra band minimization:
   WEIMIN = 0.0000     energy-eigenvalue tresh-hold
   EBREAK =  0.34E-07  absolut break condition
   DEPER  =   0.30     relativ break condition  

   TIME   =   0.40     timestep for ELM

  volume/ion in A,a.u.               =      62.72       423.28
  Fermi-wavevector in a.u.,A,eV,Ry     =   0.624944  1.180972  5.313816  0.390554
  Thomas-Fermi vector in A             =   1.685677
 
 Write flags
   LWAVE        =      F    write WAVECAR
   LDOWNSAMPLE  =      F    k-point downsampling of WAVECAR
   LCHARG       =      T    write CHGCAR
   LVTOT        =      T    write LOCPOT, total local potential
   LVHAR        =      F    write LOCPOT, Hartree potential only
   LELF         =      F    write electronic localiz. function (ELF)
   LORBIT       =      0    0 simple, 1 ext, 2 COOP (PROOUT), +10 PAW based schemes


 Dipole corrections
   LMONO  =      F    monopole corrections only (constant potential shift)
   LDIPOL =      T    correct potential (dipole corrections)
   IDIPOL =      3    1-x, 2-y, 3-z, 4-all directions 
   EPSILON=  1.0000000 bulk dielectric constant

 Exchange correlation treatment:
   GGA     =    --    GGA type
   LEXCH   =     8    internal setting for exchange type
   VOSKOWN=      0    Vosko Wilk Nusair interpolation
   LHFCALC =     F    Hartree Fock is set to
   LHFONE  =     F    Hartree Fock one center treatment
   AEXX    =    0.0000 exact exchange contribution

 Linear response parameters
   LEPSILON=     F    determine dielectric tensor
   LRPA    =     F    only Hartree local field effects (RPA)
   LNABLA  =     F    use nabla operator in PAW spheres
   LVEL    =     F    velocity operator in full k-point grid
   LINTERFAST=   F  fast interpolation
   KINTER  =     0    interpolate to denser k-point grid
   CSHIFT  =0.1000    complex shift for real part using Kramers Kronig
   OMEGAMAX=  -1.0    maximum frequency
   DEG_THRESHOLD= 0.2000000E-02 threshold for treating states as degnerate
   RTIME   =   -0.100 relaxation time in fs
  (WPLASMAI=    0.000 imaginary part of plasma frequency in eV, 0.658/RTIME)
   DFIELD  = 0.0000000 0.0000000 0.0000000 field for delta impulse in time
 
 Orbital magnetization related:
   ORBITALMAG=     F  switch on orbital magnetization
   LCHIMAG   =     F  perturbation theory with respect to B field
   DQ        =  0.001000  dq finite difference perturbation B field
   LLRAUG    =     F  two centre corrections for induced B field



--------------------------------------------------------------------------------------------------------


 Static calculation
 charge density and potential will be updated during run
 non-spin polarized calculation
 Variant of blocked Davidson
 Davidson routine will perform the subspace rotation
 perform sub-space diagonalisation
    after iterative eigenvector-optimisation
 modified Broyden-mixing scheme, WC =      100.0
 initial mixing is a Kerker type mixing with AMIX =  0.4000 and BMIX =      0.0100
 Hartree-type preconditioning will be used
 using additional bands           165
 real space projection scheme for non local part
[...]
     13.54561      0.00000     45.35368        -0.001229     -0.000855      0.011096
     13.54315      9.03140     45.35368        -0.006469     -0.002546      0.019870
     14.17218      9.18295     32.43486        -0.244943      0.248219     -0.208121
     15.72263      9.15840     33.25909        -0.071246      0.156221      0.311477
     13.60904     11.35318     33.69570         0.199625     -0.140271      0.089508
     13.86229     11.35379     35.42532        -0.052395     -0.189112      0.045058
     12.26160      8.22304     34.90700         0.174790      0.077989     -0.169591
     12.12684      9.94961     35.25572         0.035647     -0.074450      0.077607
     14.46957      7.74075     35.69951         0.123153      0.148983      0.086243
     15.69019      9.05584     35.74464        -0.252341     -0.124332     -0.060053
     15.56297      6.88685     33.90268        -0.379941      0.234405     -0.332629
     13.80016      6.82704     33.66764         0.000930     -0.122789     -0.179532
     13.99852      6.90549     31.23576         0.017313      0.047509      0.150042
     15.59306      7.58755     31.28302         0.579950      0.699180     -0.295335
     16.10441     11.06056     33.31567        -0.041219      0.142159      0.121499
     16.39979     11.02272     35.07239        -0.301650      0.080816     -0.140924
     15.67183     12.47378     34.29888         0.066144     -0.092357      0.044633
     10.76736      9.45763     33.39811        -0.112639      0.195882     -0.155541
     12.02692      8.72257     32.43230         0.136035     -0.016121      0.011387
     12.09608     10.48978     32.75010        -0.163235     -0.246962      0.172967
     13.11265      8.69845     37.30957        -0.225128     -0.223750      0.272251
     13.55094     10.36609     37.06753         0.366997     -0.144889     -0.206817
     14.71384      9.27284     37.85732        -0.194501      0.010947      0.011626
     15.07623      4.78161     32.36370         0.090968      0.266622     -0.283500
     15.24658      5.02461     30.63649         0.102200      0.214060      0.142024
     16.96920      3.17059     31.43265        -0.250977     -0.244211     -0.141608
     17.59665      7.39280     32.13336         0.041138     -0.416617      0.026235
      1.32916      2.76290     31.45866        -0.104023      0.338684      0.170213
      1.93007      6.97737     32.22885         0.069569      0.038874     -0.003506
      2.87583      4.71019     31.92962         0.318063     -0.046246     -0.087496
     17.99728      4.09833     35.04570         0.317176      0.212183      0.437232
      0.52792     13.95633     35.04904         0.624347      0.267492     -1.110746
      9.19824      4.66272     35.02998        -0.553916      0.905059     -0.213455
      9.08702     13.94618     34.94642        -0.928440     -0.174082      0.525998
      4.33238      9.14031     34.81198         0.263172      1.257100     -0.068615
      4.73855     17.82662     34.87604        -0.126373      0.232675      0.031869
     13.87295     17.81811     35.07428        -0.212656      0.184111      0.105247
      0.10892      4.39694     40.76628        -1.163696      1.045210     -0.407177
      0.26827     13.80445     40.79845        -0.665084      1.953973     -1.796130
      9.06714      4.58752     40.63713        -1.082083      1.897008     -1.243019
      8.85128     13.67040     40.65852        -0.661063      0.791877     -0.440128
      4.50024      9.03179     40.61731         1.573073      2.126678     -0.209249
      4.61193     18.00767     40.62003        -0.136860     -0.154704     -1.339809
     13.43648      9.20116     40.72663        -0.712859     -0.930699      0.371946
     13.58539     18.05295     40.61390         1.747191      1.396985     -0.310275
      9.02897      4.51561     46.44552         0.011170      0.007531      0.038883
      9.02651     13.54701     46.44552         0.011754      0.002219      0.052150
     18.05937      4.51561     46.44552         0.000331      0.015739      0.066063
     18.05691     13.54701     46.44552         0.028331     -0.010847      0.049592
      4.51521      0.00002     46.44421         0.000478     -0.001184      0.061231
      4.51275      9.03142     46.44421        -0.003769     -0.003535      0.049313
     13.54561      0.00002     46.44421        -0.000347      0.001093      0.048201
     13.54315      9.03142     46.44421        -0.026703     -0.026215      0.050706
     17.07467      5.27481     31.73872        -0.262154      1.781342      0.280703
     17.62722      4.01862     31.58266         0.248150     -0.816632     -0.070525
     17.96489      6.36299     31.99870        -1.077943     -0.403239     -0.475095
      0.94441      3.78185     31.62769         0.245650      0.067388     -0.116692
      1.26659      6.13826     32.02100         0.626306     -0.018557      0.268413
      1.80940      4.86054     31.84218        -0.423931     -0.134627      0.083889
     14.68396      8.81616     33.31870         0.222902     -1.205257     -0.075828
     14.24825     10.93718     34.49025         0.462633      0.017011     -0.328535
     12.50472      9.22731     34.51977        -0.125734      0.040404     -0.186243
     14.60860      8.82885     35.78673        -0.007657      0.329236     -0.093743
     14.72391      7.26567     33.26936         0.440611      0.729135     -0.294529
     14.95724      6.88080     31.78132        -0.377130     -1.491246      0.606637
     15.70019     11.37150     34.29080        -0.159237      0.063488      0.003317
     11.84353      9.50299     33.18129        -0.207542     -0.153253      0.040589
     13.95567      9.33985     37.06484         0.101049     -0.013396     -0.029031
     15.55598      5.45472     31.61127        -0.066325     -0.275010      0.252982
      1.06691      4.01420     35.68913         0.704399     -0.684136     -0.648972
      0.76930     12.79298     35.58854         0.186408     -0.147990     -0.143586
      9.91714      3.71213     35.54834        -0.070978     -0.188908      0.049240
     10.01496     13.18405     35.47892        -0.502231      0.406344     -0.260150
      8.06231      5.10809     35.52126         0.793130      0.213850     -1.352820
      7.81840     13.97907     35.36080         1.632859      0.912068     -1.747669
     16.94090      4.71599     35.48385        -0.760198      0.371603     -0.166024
     17.64756     14.78656     35.41397         0.036472      0.143397     -0.376525
      4.27598      8.09865     35.57486         0.900088      0.030147      1.452706
      3.49877     17.83384     35.28547        -0.263784      0.812064      1.042240
     12.69829     17.40560     35.47412        -0.125038      0.690706      0.778441
      5.71939      0.46332     35.38847        -0.265330      0.614759      0.783223
      4.94334     10.27909     35.09771         0.056496     -0.894406      0.511449
     14.53209      0.77098     35.56680        -0.551147      0.697574      0.796080
      1.00711      3.51122     41.02982         0.928836     -0.860416     -0.139918
      0.90901     12.84426     41.34777         1.547327     -1.636829      0.110400
      9.76563      3.64511     41.15319         1.247311     -1.596721      0.480896
      9.52605     12.88818     41.46626        -0.018204      0.077285     -1.195505
      3.85104      8.07732     41.18687        -1.318439     -1.514394     -1.473591
      3.67444     17.23275     41.08688        -0.898464     -1.006304     -1.592761
     12.74449      8.24737     41.33667         1.721607      1.547191      1.113329
     12.66172     17.38089     41.21405        -1.383128     -1.414624     -1.460993
      8.12775      5.31012     41.23877         0.861172     -0.240521     -1.646257
      8.00427     14.62373     41.02131         0.868650     -0.915722     -1.492940
     17.43634      5.08769     41.62321         0.410484     -0.335262     -0.566026
     17.29880     14.45505     41.28057        -0.508905     -0.104261      0.828517
      5.38799      0.71853     41.31215         1.938544      1.665586     -1.033308
      5.25577      9.94403     41.24349        -0.733107     -0.676760     -1.971530
     14.45191      0.82378     41.20060        -0.395153     -0.763527     -2.161769
     14.30143     10.01791     41.26826        -0.273003     -0.470121      0.028658
      0.82731      3.68697     47.03596         0.022784     -0.030617     -0.102934
      0.82485     12.71837     47.03596         0.007883     -0.009617     -0.095596
      9.85771      3.68697     47.03596         0.020053     -0.024604     -0.091813
      9.85525     12.71837     47.03596         0.021786     -0.015095     -0.088722
      3.68432      8.20234     47.03465        -0.009648     -0.009031     -0.077893
      3.68186     17.23373     47.03465        -0.010652     -0.005681     -0.074979
     12.71472      8.20234     47.03465         0.007284      0.006398     -0.075846
     12.71226     17.23373     47.03465        -0.008019     -0.015448     -0.075323
      8.20068      5.34457     47.03603        -0.020090      0.015141     -0.095103
      8.19822     14.37597     47.03603        -0.020753      0.017325     -0.096167
     17.23108      5.34457     47.03603        -0.011481      0.008746     -0.108968
     17.22862     14.37597     47.03603        -0.029943      0.023412     -0.088667
      5.34365      0.82909     47.03465         0.008548      0.011258     -0.085966
      5.34119      9.86049     47.03465         0.009831      0.014135     -0.072979
     14.37405      0.82909     47.03465         0.012361      0.007483     -0.075623
     14.37159      9.86049     47.03465         0.024626      0.033007     -0.077753
     14.00945      9.41750     34.51375         0.446242      0.675404      0.443661
      9.15261     17.92233     34.56140        -0.072350     -0.032669      0.027532
      8.26983      8.61608     34.67718         0.061692      0.043618     -0.016415
     17.92918      0.19106     34.44606         0.060115     -0.002079      0.036477
      0.61542      8.86386     34.88596        -0.095751      0.058965     -0.192930
      4.44742      4.44848     34.69076         0.057958     -0.000062      0.022296
      4.35178     13.90021     34.46427        -0.060740     -0.027497      0.003056
     13.40708      4.09680     34.66430         0.007288     -0.043468      0.036768
     12.92581     14.23086     34.03875         0.152933      0.031121      0.217285
      0.04128     18.00338     40.86457         0.022100      0.012904      0.032331
     18.03953      9.14278     41.03341         0.046271     -0.025351     -0.121119
      8.94414      0.00879     40.94947         0.089513      0.080859     -0.102196
      8.92915      8.98890     40.94379         0.059732      0.051173     -0.073669
      4.59810      4.34374     40.97526        -0.019537      0.015229     -0.029077
      4.58382     13.59954     40.86464        -0.103394     -0.022518      0.011692
     13.44336      4.48095     40.94827        -0.033583      0.029819      0.018655
     13.67640     13.66492     40.85612        -0.045928      0.002098     -0.094282
      2.70876      1.89615     38.09129        -0.121184     -0.059180     -0.017779
      2.74278     10.97187     38.04686        -0.127201     -0.036833      0.035945
     11.66217      1.93519     38.13716        -0.072258     -0.037162     -0.045984
     11.02246     11.56177     38.43242         0.316580     -0.192434     -0.167687
      6.55241      7.01937     38.29387        -0.074263     -0.004688     -0.029421
      6.53333     16.10153     38.04020        -0.053850     -0.074385     -0.054138
     16.05674      6.54942     38.49619        -0.041020      0.196959     -0.209494
     15.54713     16.11931     37.99744        -0.002828     -0.032759     -0.017476
      2.11412      6.47764     38.20485        -0.046249      0.092401      0.084084
      2.04988     15.71398     38.00042         0.052070      0.012095     -0.016040
     11.14179      6.67325     37.92623         0.002939     -0.014742     -0.011075
     11.14070     15.64686     38.24177         0.040014     -0.002787      0.023582
      7.19160      2.56750     38.06442        -0.055522     -0.020755     -0.032365
      6.95250     11.57346     37.95618        -0.128093     -0.007028     -0.047217
     15.99213      2.46990     38.32474         0.126705     -0.060102     -0.055784
     16.51898     12.01450     38.39675        -0.090780     -0.210040     -0.384432
      0.00000      0.00000     47.17356         0.000211      0.000307      0.350947
     -0.00246      9.03140     47.17356        -0.003363      0.003673      0.554827
      9.03040      0.00000     47.17356        -0.002772     -0.001919      0.500693
      9.02794      9.03140     47.17356        -0.001443      0.003066      0.509150
      4.51398      4.51570     47.17425        -0.002514     -0.008243      0.493460
      4.51152     13.54710     47.17425        -0.001308      0.003936      0.376838
     13.54438      4.51570     47.17425         0.002956     -0.003834      0.462311
     13.54192     13.54710     47.17425         0.002961      0.001049      0.251293
      2.45192      2.06295     44.04013        -0.013550     -0.049598     -0.003924
      2.44946     11.09435     44.04013         0.054532     -0.019703      0.045035
     11.48232      2.06295     44.04013        -0.011071     -0.049531     -0.027890
     11.47986     11.09435     44.04013         0.064635      0.040401     -0.030890
      6.57602      6.96845     44.04013        -0.089489      0.002435      0.026638
      6.57356     15.99985     44.04013        -0.036584      0.013043      0.050224
     15.60642      6.96845     44.04013        -0.077606      0.065878      0.004770
     15.60396     15.99985     44.04013        -0.040673      0.019173      0.035799
      2.06108      6.57881     44.04000         0.026152     -0.024674     -0.017402
      2.05862     15.61021     44.04000         0.018035      0.044482     -0.013526
     11.09148      6.57881     44.04000        -0.002027     -0.031603      0.045684
     11.08902     15.61021     44.04000         0.010182     -0.026348     -0.024382
      6.96686      2.45259     44.04007         0.057277      0.038269      0.026888
      6.96440     11.48399     44.04007        -0.013376      0.058101      0.039910
     15.99726      2.45259     44.04007         0.053620     -0.010983      0.035311
     15.99481     11.48399     44.04007         0.024782      0.096487      0.018792
      2.43163      2.08322     50.06849        -0.007799     -0.027805      0.019714
      2.42917     11.11462     50.06849         0.019686      0.003500      0.021648
     11.46203      2.08322     50.06849         0.009612     -0.012676      0.022438
     11.45957     11.11462     50.06849         0.032337      0.013272      0.021554
      6.59631      6.94818     50.06849        -0.010879      0.009994      0.023214
      6.59385     15.97958     50.06849        -0.017318      0.003802      0.021065
     15.62671      6.94818     50.06849        -0.013345      0.006258      0.021480
     15.62425     15.97958     50.06849        -0.015739      0.005206      0.019485
      2.08113      6.59901     50.06905        -0.010696     -0.010852      0.022329
      2.07867     15.63041     50.06905        -0.017051     -0.003554      0.020501
     11.11153      6.59901     50.06905        -0.006422     -0.012112      0.023474
     11.10907     15.63041     50.06905         0.008643     -0.028148      0.020765
      6.94681      2.43239     50.06905         0.012560      0.004040      0.021468
      6.94435     11.46379     50.06905        -0.000675      0.022682      0.023131
     15.97721      2.43239     50.06905         0.023734     -0.004748      0.021187
     15.97475     11.46379     50.06905        -0.012701      0.034421      0.020451
     17.97684      0.08051     37.72017         0.052970      0.094211      0.042325
      0.16122      9.12685     37.92633        -0.001097     -0.031294     -0.041621
      9.03266     17.97645     37.66644         0.103259      0.075339      0.138781
      8.94315      9.04285     37.69407         0.028451     -0.098508      0.032062
      4.54235      4.51099     37.81087         0.154915     -0.028349      0.020059
      4.40497     13.65462     37.69007         0.049117      0.051808      0.031269
     13.58143      4.55573     37.81674        -0.109721      0.058079      0.092030
     13.55391     13.63366     37.78661        -0.073945      0.048756      0.059621
      0.00001      0.00001     44.04300        -0.026475     -0.042010      0.082319
     -0.00245      9.03141     44.04300         0.073719     -0.080298      0.313446
      9.03041      0.00001     44.04300         0.018220     -0.017424      0.091891
      9.02795      9.03141     44.04300         0.028955     -0.034415      0.010799
      4.51397      4.51569     44.04275         0.006852      0.070747      0.185195
      4.51151     13.54709     44.04275        -0.028808     -0.012794      0.055310
     13.54437      4.51569     44.04275        -0.045770      0.042692      0.125492
     13.54191     13.54709     44.04275        -0.108329      0.013457      0.202606
      0.00000      0.00000     50.44728         0.008985      0.017017     -0.609241
     -0.00246      9.03140     50.44728         0.007244     -0.017461     -0.663284
      9.03040      0.00000     50.44728        -0.007213      0.018891     -0.649982
      9.02794      9.03140     50.44728        -0.010284     -0.017052     -0.655903
      4.51397      4.51570     50.44728         0.007313      0.014204     -0.647091
      4.51151     13.54710     50.44728         0.008304     -0.013003     -0.618810
     13.54437      4.51570     50.44728        -0.009856      0.012392     -0.641867
     13.54191     13.54710     50.44728        -0.007302     -0.013259     -0.582121
 -----------------------------------------------------------------------------------
    total drift:                                0.102318     -0.091375      0.463396


--------------------------------------------------------------------------------------------------------



  FREE ENERGIE OF THE ION-ELECTRON SYSTEM (eV)
  ---------------------------------------------------
  free  energy   TOTEN  =     -1573.67328637 eV

  energy  without entropy=    -1573.67328637  energy(sigma->0) =    -1573.67328637
 


--------------------------------------------------------------------------------------------------------


    POTLOK:  cpu time    0.5007: real time    0.5006


--------------------------------------------------------------------------------------------------------


     LOOP+:  cpu time  304.8210: real time  305.0543
 vacuum level on the upper side and lower side of the slab         2.327         1.606
    4ORBIT:  cpu time    0.0000: real time    0.0000

 total amount of memory used by VASP MPI-rank0  8653578. kBytes
=======================================================================

   base      :      30000. kBytes
   nonlr-proj:      53616. kBytes
   fftplans  :     249280. kBytes
   grid      :     701440. kBytes
   one-center:       2636. kBytes
   wavefun   :    7616606. kBytes
 
  
  
 General timing and accounting informations for this job:
 ========================================================
  
                  Total CPU time used (sec):      517.848
                            User time (sec):      417.984
                          System time (sec):       99.864
                         Elapsed time (sec):      520.369
  
                   Maximum memory used (kb):    10335892.
                   Average memory used (kb):          N/A
  
                          Minor page faults:      3726041
                          Major page faults:           13
                 Voluntary context switches:        10988
