<?xml version="1.0" encoding="ISO-8859-1"?>
<modeling>
 <generator>
  <i name="program" type="string">vasp </i>
  <i name="version" type="string">6.2.1  </i>
  <i name="subversion" type="string">16May21 (build Nov 15 2021 14:57:28) complex                          parallel </i>
  <i name="platform" type="string">LinuxPGI </i>
  <i name="date" type="string">2023 07 30 </i>
  <i name="time" type="string">10:47:13 </i>
 </generator>
 <incar>
  <i type="string" name="SYSTEM">PSC</i>
  <i type="int" name="ISTART">     1</i>
  <i type="string" name="PREC">Normal</i>
  <i name="BMIX">      0.01000000</i>
  <i name="AMIN">      0.01000000</i>
  <i type="int" name="ICHARG">     1</i>
  <i type="int" name="NELM">   600</i>
  <i type="int" name="ISYM">     0</i>
  <i name="ENCUT">    500.00000000</i>
  <i type="string" name="LREAL">Auto</i>
  <i type="int" name="ISMEAR">     0</i>
  <i name="SIGMA">      0.05000000</i>
  <i type="logical" name="LWAVE"> F  </i>
  <i type="logical" name="LVTOT"> T  </i>
  <i type="logical" name="GGA_COMPAT"> F  </i>
  <i type="logical" name="LDIPOL"> T  </i>
  <i type="int" name="IDIPOL">     3</i>
  <i type="int" name="IVDW">    12</i>
 </incar>
 <primitive_cell>
  <structure name="primitive_cell" >
   <crystal>
    <varray name="basis" >
     <v>      18.06080055       0.00000000       0.00000000 </v>
     <v>      -0.00491865      18.06279945       0.00000000 </v>
     <v>       0.00000000       0.00000000      62.48749924 </v>
    </varray>
    <i name="volume">  20385.21054034 </i>
    <varray name="rec_basis" >
     <v>       0.05536853       0.00001508      -0.00000000 </v>
     <v>       0.00000000       0.05536240       0.00000000 </v>
     <v>       0.00000000      -0.00000000       0.01600320 </v>
    </varray>
   </crystal>
   <varray name="positions" >
    <v>       0.42622971       0.26074573       0.58167768 </v>
    <v>       0.41636698       0.74329350       0.57812924 </v>
    <v>       0.93573727       0.28940100       0.58201198 </v>
    <v>       0.94610965       0.80890996       0.57989028 </v>
    <v>       0.31126981       0.05954379       0.57964090 </v>
    <v>       0.30366584       0.57802181       0.57548730 </v>
    <v>       0.78531280       0.07477395       0.58164289 </v>
    <v>       0.10360717       0.19647026       0.56403304 </v>
    <v>       0.08505683       0.67603351       0.56397877 </v>
    <v>       0.60012214       0.19472705       0.56320860 </v>
    <v>       0.60799983       0.74142642       0.56317075 </v>
    <v>       0.36928798       0.01994709       0.56082207 </v>
    <v>       0.27357059       0.61167728       0.55141461 </v>
    <v>       0.85335132       0.05882407       0.56292747 </v>
    <v>       0.07008573       0.24740935       0.58520585 </v>
    <v>       0.01243068       0.69096464       0.58230800 </v>
    <v>       0.53601936       0.17974459       0.58270755 </v>
    <v>       0.54665040       0.69898076       0.58123069 </v>
    <v>       0.26450751       0.44527027       0.58383913 </v>
    <v>       0.17600078       0.01916140       0.57764758 </v>
    <v>       0.67626354       0.98671113       0.58064733 </v>
    <v>       0.41923695       0.32486453       0.56094410 </v>
    <v>       0.39589622       0.80617198       0.55799698 </v>
    <v>       0.89038276       0.25850904       0.55906733 </v>
    <v>       0.97361356       0.86987531       0.55950449 </v>
    <v>       0.21089084       0.40216301       0.56482214 </v>
    <v>       0.15454954       0.95821106       0.55721704 </v>
    <v>       0.68243137       0.91633782       0.56157839 </v>
    <v>       0.52875515       0.28648889       0.54621319 </v>
    <v>       0.51930185       0.80810300       0.54595313 </v>
    <v>       0.99312636       0.20166179       0.54543807 </v>
    <v>       0.06487980       0.78864631       0.54712176 </v>
    <v>       0.21047692       0.50348423       0.54218584 </v>
    <v>       0.27420294       0.95245980       0.54451369 </v>
    <v>       0.79419651       0.95781001       0.54818154 </v>
    <v>       0.43648944       0.28604639       0.67518522 </v>
    <v>       0.43151467       0.82111631       0.67165882 </v>
    <v>       0.97104370       0.27499261       0.68207575 </v>
    <v>       0.93492123       0.78987512       0.67547580 </v>
    <v>       0.29842743       0.04743489       0.67699997 </v>
    <v>       0.29828156       0.55104477       0.67574142 </v>
    <v>       0.79940938       0.05611389       0.67482369 </v>
    <v>       0.80704021       0.55315023       0.67611289 </v>
    <v>       0.08347134       0.16844806       0.64419977 </v>
    <v>       0.09522007       0.68721057       0.65383640 </v>
    <v>       0.58024635       0.17415433       0.64959715 </v>
    <v>       0.56117321       0.67411199       0.65706123 </v>
    <v>       0.18254767       0.41102080       0.64942408 </v>
    <v>       0.17280861       0.92173406       0.64675057 </v>
    <v>       0.67158642       0.42510313       0.65329491 </v>
    <v>       0.66682314       0.92786560       0.65028485 </v>
    <v>       0.07096999       0.17956608       0.67174715 </v>
    <v>       0.03789802       0.68973615       0.67618597 </v>
    <v>       0.53491668       0.18385905       0.67393246 </v>
    <v>       0.52306865       0.71813440       0.67935628 </v>
    <v>       0.21187275       0.43681551       0.67475398 </v>
    <v>       0.18961040       0.94835102       0.67287836 </v>
    <v>       0.71088688       0.44641403       0.67765318 </v>
    <v>       0.69031559       0.96373305       0.67515237 </v>
    <v>       0.42347967       0.33449845       0.65126155 </v>
    <v>       0.41773809       0.83982360       0.64462954 </v>
    <v>       0.92801450       0.31856479       0.66002453 </v>
    <v>       0.93485746       0.84284964       0.65220888 </v>
    <v>       0.33876499       0.07224873       0.65314358 </v>
    <v>       0.31716379       0.59069119       0.65112443 </v>
    <v>       0.83888934       0.07244201       0.64986356 </v>
    <v>       0.81651201       0.59271688       0.65105038 </v>
    <v>       0.99438246       0.25568328       0.63566553 </v>
    <v>       0.03476621       0.78521097       0.63712725 </v>
    <v>       0.51512969       0.26870179       0.63348034 </v>
    <v>       0.49797166       0.74998028       0.63329317 </v>
    <v>       0.26443298       0.99728100       0.63238210 </v>
    <v>       0.24690394       0.50758402       0.63256646 </v>
    <v>       0.76016911       0.99367945       0.63256182 </v>
    <v>       0.73273365       0.51423083       0.63490201 </v>
    <v>       0.44874502       0.30128397       0.76888902 </v>
    <v>       0.44874501       0.80128391       0.76888902 </v>
    <v>       0.94874497       0.30128397       0.76888902 </v>
    <v>       0.94874501       0.80128391       0.76888902 </v>
    <v>       0.30127600       0.05129450       0.76887296 </v>
    <v>       0.30127601       0.55129450       0.76887296 </v>
    <v>       0.80127594       0.05129450       0.76887296 </v>
    <v>       0.80127598       0.55129450       0.76887296 </v>
    <v>       0.07877100       0.17118050       0.74344197 </v>
    <v>       0.07877101       0.67118045       0.74344197 </v>
    <v>       0.57877100       0.17118050       0.74344197 </v>
    <v>       0.57877099       0.67118045       0.74344197 </v>
    <v>       0.17119950       0.42117448       0.74342103 </v>
    <v>       0.17119950       0.92117451       0.74342103 </v>
    <v>       0.67119951       0.42117448       0.74342103 </v>
    <v>       0.67119950       0.92117451       0.74342103 </v>
    <v>       0.05125600       0.19871499       0.76888902 </v>
    <v>       0.05125600       0.69871493       0.76888902 </v>
    <v>       0.55125603       0.19871499       0.76888902 </v>
    <v>       0.55125602       0.69871493       0.76888902 </v>
    <v>       0.19872349       0.44870397       0.76887205 </v>
    <v>       0.19872349       0.94870397       0.76887205 </v>
    <v>       0.69872352       0.44870397       0.76887205 </v>
    <v>       0.69872351       0.94870397       0.76887205 </v>
    <v>       0.42123152       0.32881747       0.74344197 </v>
    <v>       0.42123151       0.82881744       0.74344197 </v>
    <v>       0.92123147       0.32881747       0.74344197 </v>
    <v>       0.92123151       0.82881744       0.74344197 </v>
    <v>       0.32880050       0.07882500       0.74342103 </v>
    <v>       0.32880049       0.57882496       0.74342103 </v>
    <v>       0.82880048       0.07882500       0.74342103 </v>
    <v>       0.82880052       0.57882496       0.74342103 </v>
    <v>       0.00000350       0.25000148       0.72582199 </v>
    <v>       0.00000350       0.75000145       0.72582199 </v>
    <v>       0.50000351       0.25000148       0.72582199 </v>
    <v>       0.50000350       0.75000145       0.72582199 </v>
    <v>       0.25000050       0.00000000       0.72580398 </v>
    <v>       0.25000052       0.50000000       0.72580398 </v>
    <v>       0.75000050       0.00000000       0.72580398 </v>
    <v>       0.75000049       0.50000000       0.72580398 </v>
    <v>       0.78483120       0.50839019       0.51906158 </v>
    <v>       0.87067683       0.50703112       0.53225190 </v>
    <v>       0.75368380       0.62853960       0.53923902 </v>
    <v>       0.76770579       0.62857286       0.56691857 </v>
    <v>       0.67903090       0.45524751       0.55862376 </v>
    <v>       0.67159515       0.55083442       0.56420440 </v>
    <v>       0.80127572       0.42854647       0.57130641 </v>
    <v>       0.86887944       0.50135310       0.57202866 </v>
    <v>       0.86180279       0.38127246       0.54255139 </v>
    <v>       0.76419755       0.37796162       0.53878995 </v>
    <v>       0.77518187       0.38230450       0.49987208 </v>
    <v>       0.86347926       0.42006528       0.50062842 </v>
    <v>       0.89184441       0.61233915       0.53315730 </v>
    <v>       0.90819868       0.61024424       0.56127053 </v>
    <v>       0.86791424       0.69057827       0.54889189 </v>
    <v>       0.59631528       0.52359698       0.53447665 </v>
    <v>       0.66604422       0.48290257       0.51902056 </v>
    <v>       0.66990028       0.58073941       0.52410635 </v>
    <v>       0.72615921       0.48156690       0.59707249 </v>
    <v>       0.75045207       0.57389160       0.59319909 </v>
    <v>       0.81482365       0.51336653       0.60583828 </v>
    <v>       0.83482102       0.26472119       0.51792274 </v>
    <v>       0.84425640       0.27817441       0.49028196 </v>
    <v>       0.93960728       0.17553165       0.50302297 </v>
    <v>       0.97441187       0.40928328       0.51423664 </v>
    <v>       0.07363512       0.15296053       0.50343919 </v>
    <v>       0.10697028       0.38628404       0.51576478 </v>
    <v>       0.15930138       0.26076756       0.51097610 </v>
    <v>       0.99654486       0.22689324       0.56084332 </v>
    <v>       0.02944078       0.77265615       0.56089685 </v>
    <v>       0.50936341       0.25813951       0.56059180 </v>
    <v>       0.50334501       0.77209423       0.55925462 </v>
    <v>       0.24001519       0.50602950       0.55710313 </v>
    <v>       0.26263521       0.98692434       0.55812830 </v>
    <v>       0.76839367       0.98645343       0.56130074 </v>
    <v>       0.00609690       0.24342494       0.65239092 </v>
    <v>       0.01506204       0.76424749       0.65290580 </v>
    <v>       0.50210353       0.25397619       0.65032416 </v>
    <v>       0.49028834       0.75682624       0.65066640 </v>
    <v>       0.24930782       0.50002181       0.65000702 </v>
    <v>       0.25562734       0.99694802       0.65005043 </v>
    <v>       0.74409666       0.50939826       0.65175652 </v>
    <v>       0.75247541       0.99945487       0.64995233 </v>
    <v>       0.49998898       0.24999498       0.74327702 </v>
    <v>       0.49998903       0.74999496       0.74327702 </v>
    <v>       0.99998898       0.24999498       0.74327702 </v>
    <v>       0.99998903       0.74999496       0.74327702 </v>
    <v>       0.25000050       0.00000100       0.74325596 </v>
    <v>       0.25000052       0.50000100       0.74325596 </v>
    <v>       0.75000050       0.00000100       0.74325596 </v>
    <v>       0.75000049       0.50000100       0.74325596 </v>
    <v>       0.94547918       0.29202634       0.50792105 </v>
    <v>       0.97605367       0.22248054       0.50542366 </v>
    <v>       0.99478559       0.35227060       0.51208155 </v>
    <v>       0.05234753       0.20937255       0.50614433 </v>
    <v>       0.07022157       0.33982867       0.51243855 </v>
    <v>       0.10025703       0.26909139       0.50957684 </v>
    <v>       0.81316233       0.48808377       0.53320589 </v>
    <v>       0.78906984       0.60550855       0.55195445 </v>
    <v>       0.69250735       0.51084618       0.55242678 </v>
    <v>       0.80898988       0.48878656       0.57270219 </v>
    <v>       0.81535073       0.40224468       0.53241618 </v>
    <v>       0.82826400       0.38093772       0.50860283 </v>
    <v>       0.86946794       0.62955342       0.54876259 </v>
    <v>       0.65590202       0.52610815       0.53100690 </v>
    <v>       0.77284600       0.51707652       0.59315605 </v>
    <v>       0.86139383       0.30198662       0.50588152 </v>
    <v>       0.05913396       0.22223569       0.57114030 </v>
    <v>       0.04278813       0.70824987       0.56953054 </v>
    <v>       0.54915360       0.20551226       0.56888728 </v>
    <v>       0.55471242       0.72990057       0.56777634 </v>
    <v>       0.44647519       0.28279622       0.56845385 </v>
    <v>       0.43310417       0.77391485       0.56588601 </v>
    <v>       0.93806390       0.26108849       0.56785516 </v>
    <v>       0.97734264       0.81861941       0.56673683 </v>
    <v>       0.23687673       0.44836068       0.56931162 </v>
    <v>       0.19399065       0.98732423       0.56468051 </v>
    <v>       0.70334816       0.96361598       0.56769955 </v>
    <v>       0.31668115       0.02565079       0.56632879 </v>
    <v>       0.27386039       0.56907486       0.56167570 </v>
    <v>       0.80463190       0.04268317       0.56918257 </v>
    <v>       0.05581516       0.19438970       0.65660838 </v>
    <v>       0.05052423       0.71108902       0.66169668 </v>
    <v>       0.54076354       0.20180217       0.65858271 </v>
    <v>       0.52763791       0.71352072       0.66359281 </v>
    <v>       0.21334800       0.44718002       0.65912170 </v>
    <v>       0.20370798       0.95404665       0.65752153 </v>
    <v>       0.70576781       0.45659437       0.66151909 </v>
    <v>       0.70132293       0.96224765       0.65955679 </v>
    <v>       0.45010156       0.29398104       0.65995225 </v>
    <v>       0.44340524       0.80960462       0.65647231 </v>
    <v>       0.96550098       0.28166648       0.66610466 </v>
    <v>       0.95802724       0.80026640       0.66062121 </v>
    <v>       0.29833569       0.03977964       0.66112668 </v>
    <v>       0.29115426       0.55052555       0.66002783 </v>
    <v>       0.80019329       0.04560640       0.65934147 </v>
    <v>       0.79200031       0.55461532       0.66042421 </v>
    <v>       0.04586250       0.20411950       0.75272599 </v>
    <v>       0.04586250       0.70411946       0.75272599 </v>
    <v>       0.54586251       0.20411950       0.75272599 </v>
    <v>       0.54586250       0.70411946       0.75272599 </v>
    <v>       0.20411900       0.45410100       0.75270499 </v>
    <v>       0.20411899       0.95410095       0.75270499 </v>
    <v>       0.70411898       0.45410100       0.75270499 </v>
    <v>       0.70411896       0.95410095       0.75270499 </v>
    <v>       0.45414002       0.29588849       0.75272697 </v>
    <v>       0.45414001       0.79588852       0.75272697 </v>
    <v>       0.95414002       0.29588849       0.75272697 </v>
    <v>       0.95414006       0.79588852       0.75272697 </v>
    <v>       0.29588249       0.04590050       0.75270499 </v>
    <v>       0.29588248       0.54590053       0.75270499 </v>
    <v>       0.79588244       0.04590050       0.75270499 </v>
    <v>       0.79588248       0.54590053       0.75270499 </v>
    <v>       0.77582492       0.52137531       0.55233050 </v>
    <v>       0.50703702       0.99222349       0.55309299 </v>
    <v>       0.45801802       0.47700692       0.55494590 </v>
    <v>       0.99271517       0.01057765       0.55124722 </v>
    <v>       0.03420844       0.49072461       0.55828708 </v>
    <v>       0.24631406       0.24627879       0.55516322 </v>
    <v>       0.24116129       0.76954880       0.55153860 </v>
    <v>       0.74239229       0.22680856       0.55473974 </v>
    <v>       0.71589746       0.78785482       0.54472901 </v>
    <v>       0.00255696       0.99671027       0.65396387 </v>
    <v>       0.99896018       0.50616630       0.65666583 </v>
    <v>       0.49522400       0.00048677       0.65532260 </v>
    <v>       0.49452922       0.49764707       0.65523176 </v>
    <v>       0.25465578       0.24048013       0.65573534 </v>
    <v>       0.25400434       0.75290332       0.65396497 </v>
    <v>       0.74440684       0.24807610       0.65530343 </v>
    <v>       0.75744801       0.75652292       0.65382865 </v>
    <v>       0.15000888       0.10497560       0.60958250 </v>
    <v>       0.15202918       0.60742933       0.60887160 </v>
    <v>       0.64574621       0.10713702       0.61031659 </v>
    <v>       0.61047148       0.64008735       0.61504172 </v>
    <v>       0.36290321       0.38860928       0.61282454 </v>
    <v>       0.36198355       0.89141920       0.60876501 </v>
    <v>       0.88913706       0.36259142       0.61606225 </v>
    <v>       0.86106498       0.89240388       0.60808061 </v>
    <v>       0.11715321       0.35861792       0.61139988 </v>
    <v>       0.11373573       0.86996385       0.60812829 </v>
    <v>       0.61700524       0.36944731       0.60694110 </v>
    <v>       0.61707992       0.86624769       0.61199069 </v>
    <v>       0.39822706       0.14214275       0.60915260 </v>
    <v>       0.38512410       0.64073444       0.60742044 </v>
    <v>       0.88549822       0.13673937       0.61331853 </v>
    <v>       0.91481281       0.66515185       0.61447092 </v>
    <v>       0.00000000       0.00000000       0.75492797 </v>
    <v>       0.00000000       0.50000000       0.75492797 </v>
    <v>       0.50000000       0.00000000       0.75492797 </v>
    <v>       0.49999999       0.50000000       0.75492797 </v>
    <v>       0.25000050       0.25000000       0.75493902 </v>
    <v>       0.25000051       0.74999997       0.75493902 </v>
    <v>       0.75000047       0.25000000       0.75493902 </v>
    <v>       0.75000046       0.74999997       0.75493902 </v>
    <v>       0.13579050       0.11421000       0.70478299 </v>
    <v>       0.13579050       0.61420998       0.70478299 </v>
    <v>       0.63579045       0.11421000       0.70478299 </v>
    <v>       0.63579049       0.61420998       0.70478299 </v>
    <v>       0.36420952       0.38578999       0.70478299 </v>
    <v>       0.36420950       0.88578996       0.70478299 </v>
    <v>       0.86420954       0.38578999       0.70478299 </v>
    <v>       0.86420953       0.88578996       0.70478299 </v>
    <v>       0.11421799       0.36421899       0.70478098 </v>
    <v>       0.11421799       0.86421899       0.70478098 </v>
    <v>       0.61421800       0.36421899       0.70478098 </v>
    <v>       0.61421799       0.86421899       0.70478098 </v>
    <v>       0.38578201       0.13578149       0.70478202 </v>
    <v>       0.38578200       0.63578149       0.70478202 </v>
    <v>       0.88578199       0.13578149       0.70478202 </v>
    <v>       0.88578203       0.63578149       0.70478202 </v>
    <v>       0.13466700       0.11533200       0.80125603 </v>
    <v>       0.13466699       0.61533199       0.80125603 </v>
    <v>       0.63466699       0.11533200       0.80125603 </v>
    <v>       0.63466698       0.61533199       0.80125603 </v>
    <v>       0.36533300       0.38466799       0.80125603 </v>
    <v>       0.36533299       0.88466796       0.80125603 </v>
    <v>       0.86533295       0.38466799       0.80125603 </v>
    <v>       0.86533294       0.88466796       0.80125603 </v>
    <v>       0.11532850       0.36533700       0.80126500 </v>
    <v>       0.11532850       0.86533698       0.80126500 </v>
    <v>       0.61532850       0.36533700       0.80126500 </v>
    <v>       0.61532849       0.86533698       0.80126500 </v>
    <v>       0.38467151       0.13466300       0.80126500 </v>
    <v>       0.38467150       0.63466297       0.80126500 </v>
    <v>       0.88467149       0.13466300       0.80126500 </v>
    <v>       0.88467153       0.63466297       0.80126500 </v>
    <v>       0.99535231       0.00445703       0.60364344 </v>
    <v>       0.00906419       0.50528421       0.60694262 </v>
    <v>       0.50039636       0.99521942       0.60278359 </v>
    <v>       0.49530566       0.50063394       0.60322569 </v>
    <v>       0.25157144       0.24973910       0.60509496 </v>
    <v>       0.24410274       0.75595265       0.60316172 </v>
    <v>       0.75205265       0.25221589       0.60518886 </v>
    <v>       0.75066587       0.75479200       0.60470676 </v>
    <v>       0.00000050       0.00000050       0.70482896 </v>
    <v>       0.00000050       0.50000048       0.70482896 </v>
    <v>       0.50000048       0.00000050       0.70482896 </v>
    <v>       0.50000046       0.50000048       0.70482896 </v>
    <v>       0.24999999       0.24999947       0.70482499 </v>
    <v>       0.25000001       0.74999950       0.70482499 </v>
    <v>       0.74999999       0.24999947       0.70482499 </v>
    <v>       0.74999998       0.74999950       0.70482499 </v>
    <v>       0.00000000       0.00000000       0.80731797 </v>
    <v>       0.00000000       0.50000000       0.80731797 </v>
    <v>       0.50000000       0.00000000       0.80731797 </v>
    <v>       0.49999999       0.50000000       0.80731797 </v>
    <v>       0.24999999       0.25000000       0.80731797 </v>
    <v>       0.25000001       0.74999997       0.80731797 </v>
    <v>       0.74999999       0.25000000       0.80731797 </v>
    <v>       0.74999998       0.74999997       0.80731797 </v>
   </varray>
  </structure>
  <varray name="primitive_index" >
   <v type="int" >        1 </v>
   <v type="int" >        2 </v>
   <v type="int" >        3 </v>
   <v type="int" >        4 </v>
   <v type="int" >        5 </v>
   <v type="int" >        6 </v>
   <v type="int" >        7 </v>
   <v type="int" >        8 </v>
   <v type="int" >        9 </v>
   <v type="int" >       10 </v>
   <v type="int" >       11 </v>
   <v type="int" >       12 </v>
   <v type="int" >       13 </v>
   <v type="int" >       14 </v>
   <v type="int" >       15 </v>
   <v type="int" >       16 </v>
   <v type="int" >       17 </v>
   <v type="int" >       18 </v>
   <v type="int" >       19 </v>
   <v type="int" >       20 </v>
   <v type="int" >       21 </v>
   <v type="int" >       22 </v>
   <v type="int" >       23 </v>
   <v type="int" >       24 </v>
   <v type="int" >       25 </v>
   <v type="int" >       26 </v>
   <v type="int" >       27 </v>
   <v type="int" >       28 </v>
   <v type="int" >       29 </v>
   <v type="int" >       30 </v>
   <v type="int" >       31 </v>
   <v type="int" >       32 </v>
   <v type="int" >       33 </v>
   <v type="int" >       34 </v>
   <v type="int" >       35 </v>
   <v type="int" >       36 </v>
   <v type="int" >       37 </v>
   <v type="int" >       38 </v>
   <v type="int" >       39 </v>
   <v type="int" >       40 </v>
   <v type="int" >       41 </v>
   <v type="int" >       42 </v>
   <v type="int" >       43 </v>
   <v type="int" >       44 </v>
   <v type="int" >       45 </v>
   <v type="int" >       46 </v>
   <v type="int" >       47 </v>
   <v type="int" >       48 </v>
   <v type="int" >       49 </v>
   <v type="int" >       50 </v>
   <v type="int" >       51 </v>
   <v type="int" >       52 </v>
   <v type="int" >       53 </v>
   <v type="int" >       54 </v>
   <v type="int" >       55 </v>
   <v type="int" >       56 </v>
   <v type="int" >       57 </v>
   <v type="int" >       58 </v>
   <v type="int" >       59 </v>
   <v type="int" >       60 </v>
   <v type="int" >       61 </v>
   <v type="int" >       62 </v>
   <v type="int" >       63 </v>
   <v type="int" >       64 </v>
   <v type="int" >       65 </v>
   <v type="int" >       66 </v>
   <v type="int" >       67 </v>
   <v type="int" >       68 </v>
   <v type="int" >       69 </v>
   <v type="int" >       70 </v>
   <v type="int" >       71 </v>
   <v type="int" >       72 </v>
   <v type="int" >       73 </v>
   <v type="int" >       74 </v>
   <v type="int" >       75 </v>
   <v type="int" >       76 </v>
   <v type="int" >       77 </v>
   <v type="int" >       78 </v>
   <v type="int" >       79 </v>
   <v type="int" >       80 </v>
   <v type="int" >       81 </v>
   <v type="int" >       82 </v>
   <v type="int" >       83 </v>
   <v type="int" >       84 </v>
   <v type="int" >       85 </v>
   <v type="int" >       86 </v>
   <v type="int" >       87 </v>
   <v type="int" >       88 </v>
   <v type="int" >       89 </v>
   <v type="int" >       90 </v>
   <v type="int" >       91 </v>
   <v type="int" >       92 </v>
   <v type="int" >       93 </v>
   <v type="int" >       94 </v>
   <v type="int" >       95 </v>
   <v type="int" >       96 </v>
   <v type="int" >       97 </v>
   <v type="int" >       98 </v>
   <v type="int" >       99 </v>
   <v type="int" >      100 </v>
   <v type="int" >      101 </v>
   <v type="int" >      102 </v>
   <v type="int" >      103 </v>
   <v type="int" >      104 </v>
   <v type="int" >      105 </v>
   <v type="int" >      106 </v>
   <v type="int" >      107 </v>
   <v type="int" >      108 </v>
   <v type="int" >      109 </v>
   <v type="int" >      110 </v>
   <v type="int" >      111 </v>
   <v type="int" >      112 </v>
   <v type="int" >      113 </v>
   <v type="int" >      114 </v>
   <v type="int" >      115 </v>
   <v type="int" >      116 </v>
   <v type="int" >      117 </v>
   <v type="int" >      118 </v>
   <v type="int" >      119 </v>
   <v type="int" >      120 </v>
   <v type="int" >      121 </v>
   <v type="int" >      122 </v>
   <v type="int" >      123 </v>
   <v type="int" >      124 </v>
   <v type="int" >      125 </v>
   <v type="int" >      126 </v>
   <v type="int" >      127 </v>
   <v type="int" >      128 </v>
   <v type="int" >      129 </v>
   <v type="int" >      130 </v>
   <v type="int" >      131 </v>
   <v type="int" >      132 </v>
   <v type="int" >      133 </v>
   <v type="int" >      134 </v>
   <v type="int" >      135 </v>
   <v type="int" >      136 </v>
   <v type="int" >      137 </v>
   <v type="int" >      138 </v>
   <v type="int" >      139 </v>
   <v type="int" >      140 </v>
   <v type="int" >      141 </v>
   <v type="int" >      142 </v>
   <v type="int" >      143 </v>
   <v type="int" >      144 </v>
   <v type="int" >      145 </v>
   <v type="int" >      146 </v>
   <v type="int" >      147 </v>
   <v type="int" >      148 </v>
   <v type="int" >      149 </v>
   <v type="int" >      150 </v>
   <v type="int" >      151 </v>
   <v type="int" >      152 </v>
   <v type="int" >      153 </v>
   <v type="int" >      154 </v>
   <v type="int" >      155 </v>
   <v type="int" >      156 </v>
   <v type="int" >      157 </v>
   <v type="int" >      158 </v>
   <v type="int" >      159 </v>
   <v type="int" >      160 </v>
   <v type="int" >      161 </v>
   <v type="int" >      162 </v>
   <v type="int" >      163 </v>
   <v type="int" >      164 </v>
   <v type="int" >      165 </v>
   <v type="int" >      166 </v>
   <v type="int" >      167 </v>
   <v type="int" >      168 </v>
   <v type="int" >      169 </v>
   <v type="int" >      170 </v>
   <v type="int" >      171 </v>
   <v type="int" >      172 </v>
   <v type="int" >      173 </v>
   <v type="int" >      174 </v>
   <v type="int" >      175 </v>
   <v type="int" >      176 </v>
   <v type="int" >      177 </v>
   <v type="int" >      178 </v>
   <v type="int" >      179 </v>
   <v type="int" >      180 </v>
   <v type="int" >      181 </v>
   <v type="int" >      182 </v>
   <v type="int" >      183 </v>
   <v type="int" >      184 </v>
   <v type="int" >      185 </v>
   <v type="int" >      186 </v>
   <v type="int" >      187 </v>
   <v type="int" >      188 </v>
   <v type="int" >      189 </v>
   <v type="int" >      190 </v>
   <v type="int" >      191 </v>
   <v type="int" >      192 </v>
   <v type="int" >      193 </v>
   <v type="int" >      194 </v>
   <v type="int" >      195 </v>
   <v type="int" >      196 </v>
   <v type="int" >      197 </v>
   <v type="int" >      198 </v>
   <v type="int" >      199 </v>
   <v type="int" >      200 </v>
   <v type="int" >      201 </v>
   <v type="int" >      202 </v>
   <v type="int" >      203 </v>
   <v type="int" >      204 </v>
   <v type="int" >      205 </v>
   <v type="int" >      206 </v>
   <v type="int" >      207 </v>
   <v type="int" >      208 </v>
   <v type="int" >      209 </v>
   <v type="int" >      210 </v>
   <v type="int" >      211 </v>
   <v type="int" >      212 </v>
   <v type="int" >      213 </v>
   <v type="int" >      214 </v>
   <v type="int" >      215 </v>
   <v type="int" >      216 </v>
   <v type="int" >      217 </v>
   <v type="int" >      218 </v>
   <v type="int" >      219 </v>
   <v type="int" >      220 </v>
   <v type="int" >      221 </v>
   <v type="int" >      222 </v>
   <v type="int" >      223 </v>
   <v type="int" >      224 </v>
   <v type="int" >      225 </v>
   <v type="int" >      226 </v>
   <v type="int" >      227 </v>
   <v type="int" >      228 </v>
   <v type="int" >      229 </v>
   <v type="int" >      230 </v>
   <v type="int" >      231 </v>
   <v type="int" >      232 </v>
   <v type="int" >      233 </v>
   <v type="int" >      234 </v>
   <v type="int" >      235 </v>
   <v type="int" >      236 </v>
   <v type="int" >      237 </v>
   <v type="int" >      238 </v>
   <v type="int" >      239 </v>
   <v type="int" >      240 </v>
   <v type="int" >      241 </v>
   <v type="int" >      242 </v>
   <v type="int" >      243 </v>
   <v type="int" >      244 </v>
   <v type="int" >      245 </v>
   <v type="int" >      246 </v>
   <v type="int" >      247 </v>
   <v type="int" >      248 </v>
   <v type="int" >      249 </v>
   <v type="int" >      250 </v>
   <v type="int" >      251 </v>
   <v type="int" >      252 </v>
   <v type="int" >      253 </v>
   <v type="int" >      254 </v>
   <v type="int" >      255 </v>
   <v type="int" >      256 </v>
   <v type="int" >      257 </v>
   <v type="int" >      258 </v>
   <v type="int" >      259 </v>
   <v type="int" >      260 </v>
   <v type="int" >      261 </v>
   <v type="int" >      262 </v>
   <v type="int" >      263 </v>
   <v type="int" >      264 </v>
   <v type="int" >      265 </v>
   <v type="int" >      266 </v>
   <v type="int" >      267 </v>
   <v type="int" >      268 </v>
   <v type="int" >      269 </v>
   <v type="int" >      270 </v>
   <v type="int" >      271 </v>
   <v type="int" >      272 </v>
   <v type="int" >      273 </v>
   <v type="int" >      274 </v>
   <v type="int" >      275 </v>
   <v type="int" >      276 </v>
   <v type="int" >      277 </v>
   <v type="int" >      278 </v>
   <v type="int" >      279 </v>
   <v type="int" >      280 </v>
   <v type="int" >      281 </v>
   <v type="int" >      282 </v>
   <v type="int" >      283 </v>
   <v type="int" >      284 </v>
   <v type="int" >      285 </v>
   <v type="int" >      286 </v>
   <v type="int" >      287 </v>
   <v type="int" >      288 </v>
   <v type="int" >      289 </v>
   <v type="int" >      290 </v>
   <v type="int" >      291 </v>
   <v type="int" >      292 </v>
   <v type="int" >      293 </v>
   <v type="int" >      294 </v>
   <v type="int" >      295 </v>
   <v type="int" >      296 </v>
   <v type="int" >      297 </v>
   <v type="int" >      298 </v>
   <v type="int" >      299 </v>
   <v type="int" >      300 </v>
   <v type="int" >      301 </v>
   <v type="int" >      302 </v>
   <v type="int" >      303 </v>
   <v type="int" >      304 </v>
   <v type="int" >      305 </v>
   <v type="int" >      306 </v>
   <v type="int" >      307 </v>
   <v type="int" >      308 </v>
   <v type="int" >      309 </v>
   <v type="int" >      310 </v>
   <v type="int" >      311 </v>
   <v type="int" >      312 </v>
   <v type="int" >      313 </v>
   <v type="int" >      314 </v>
   <v type="int" >      315 </v>
   <v type="int" >      316 </v>
   <v type="int" >      317 </v>
   <v type="int" >      318 </v>
   <v type="int" >      319 </v>
   <v type="int" >      320 </v>
   <v type="int" >      321 </v>
   <v type="int" >      322 </v>
   <v type="int" >      323 </v>
   <v type="int" >      324 </v>
   <v type="int" >      325 </v>
  </varray>
 </primitive_cell>
 <kpoints>
  <generation param="Gamma">
   <v type="int" name="divisions">       3        3        1 </v>
   <v name="usershift">      0.00000000       0.00000000       0.00000000 </v>
   <v name="genvec1">      0.33333333       0.00000000       0.00000000 </v>
   <v name="genvec2">      0.00000000       0.33333333       0.00000000 </v>
   <v name="genvec3">      0.00000000       0.00000000       1.00000000 </v>
   <v name="shift">      0.00000000       0.00000000       0.00000000 </v>
  </generation>
  <varray name="kpointlist" >
   <v>       0.00000000       0.00000000       0.00000000 </v>
   <v>       0.33333333       0.00000000       0.00000000 </v>
   <v>       0.00000000       0.33333333       0.00000000 </v>
   <v>       0.33333333       0.33333333       0.00000000 </v>
   <v>      -0.33333333       0.33333333       0.00000000 </v>
  </varray>
  <varray name="weights" >
   <v>       0.11111111 </v>
   <v>       0.22222222 </v>
   <v>       0.22222222 </v>
   <v>       0.22222222 </v>
   <v>       0.22222222 </v>
  </varray>
 </kpoints>
 <parameters>
  <separator name="general" >
   <i type="string" name="SYSTEM">PSC</i>
   <i type="logical" name="LCOMPAT"> F  </i>
  </separator>
  <separator name="electronic" >
   <i type="string" name="PREC">normal</i>
   <i name="ENMAX">    500.00000000</i>
   <i name="ENAUG">    644.87300000</i>
   <i name="EDIFF">      0.00010000</i>
   <i type="int" name="IALGO">    38</i>
   <i type="int" name="IWAVPR">    10</i>
   <i type="int" name="NBANDS">   732</i>
   <i type="int" name="NBANDSLOW">    -1</i>
   <i type="int" name="NBANDSHIGH">    -1</i>
   <i name="NELECT">   1134.00000000</i>
   <i type="int" name="TURBO">     0</i>
   <i type="int" name="IRESTART">     0</i>
   <i type="int" name="NREBOOT">     0</i>
   <i type="int" name="NMIN">     0</i>
   <i name="EREF">      0.00000000</i>
   <separator name="electronic smearing" >
    <i type="int" name="ISMEAR">     0</i>
    <i name="SIGMA">      0.05000000</i>
    <i name="KSPACING">      0.50000000</i>
    <i type="logical" name="KGAMMA"> T  </i>
    <i type="logical" name="KBLOWUP"> T  </i>
   </separator>
   <separator name="electronic projectors" >
    <i type="logical" name="LREAL"> T  </i>
    <v name="ROPT">     -0.00050000     -0.00050000     -0.00050000     -0.00050000     -0.00050000</v>
    <i type="int" name="LMAXPAW">  -100</i>
    <i type="int" name="LMAXMIX">     2</i>
    <i type="logical" name="NLSPLINE"> F  </i>
   </separator>
   <separator name="electronic startup" >
    <i type="int" name="ISTART">     0</i>
    <i type="int" name="ICHARG">     1</i>
    <i type="int" name="INIWAV">     1</i>
   </separator>
   <separator name="electronic spin" >
    <i type="int" name="ISPIN">     1</i>
    <i type="logical" name="LNONCOLLINEAR"> F  </i>
    <v name="MAGMOM">      1.00000000      1.00000000      1.00000000      1.00000000      1.00000000      1.00000000      1.00000000      1.00000000      1.00000000      1.00000000      1.00000000      1.00000000      1.00000000      1.00000000      1.00000000      1.00000000      1.00000000      1.00000000      1.00000000      1.00000000
      1.00000000      1.00000000      1.00000000      1.00000000      1.00000000      1.00000000      1.00000000      1.00000000      1.00000000      1.00000000      1.00000000      1.00000000      1.00000000      1.00000000      1.00000000      1.00000000      1.00000000      1.00000000      1.00000000      1.00000000
      1.00000000      1.00000000      1.00000000      1.00000000      1.00000000      1.00000000      1.00000000      1.00000000      1.00000000      1.00000000      1.00000000      1.00000000      1.00000000      1.00000000      1.00000000      1.00000000      1.00000000      1.00000000      1.00000000      1.00000000
      1.00000000      1.00000000      1.00000000      1.00000000      1.00000000      1.00000000      1.00000000      1.00000000      1.00000000      1.00000000      1.00000000      1.00000000      1.00000000      1.00000000      1.00000000      1.00000000      1.00000000      1.00000000      1.00000000      1.00000000
      1.00000000      1.00000000      1.00000000      1.00000000      1.00000000      1.00000000      1.00000000      1.00000000      1.00000000      1.00000000      1.00000000      1.00000000      1.00000000      1.00000000      1.00000000      1.00000000      1.00000000      1.00000000      1.00000000      1.00000000
      1.00000000      1.00000000      1.00000000      1.00000000      1.00000000      1.00000000      1.00000000      1.00000000      1.00000000      1.00000000      1.00000000      1.00000000      1.00000000      1.00000000      1.00000000      1.00000000      1.00000000      1.00000000      1.00000000      1.00000000
      1.00000000      1.00000000      1.00000000      1.00000000      1.00000000      1.00000000      1.00000000      1.00000000      1.00000000      1.00000000      1.00000000      1.00000000      1.00000000      1.00000000      1.00000000      1.00000000      1.00000000      1.00000000      1.00000000      1.00000000
      1.00000000      1.00000000      1.00000000      1.00000000      1.00000000      1.00000000      1.00000000      1.00000000      1.00000000      1.00000000      1.00000000      1.00000000      1.00000000      1.00000000      1.00000000      1.00000000      1.00000000      1.00000000      1.00000000      1.00000000
      1.00000000      1.00000000      1.00000000      1.00000000      1.00000000      1.00000000      1.00000000      1.00000000      1.00000000      1.00000000      1.00000000      1.00000000      1.00000000      1.00000000      1.00000000      1.00000000      1.00000000      1.00000000      1.00000000      1.00000000
      1.00000000      1.00000000      1.00000000      1.00000000      1.00000000      1.00000000      1.00000000      1.00000000      1.00000000      1.00000000      1.00000000      1.00000000      1.00000000      1.00000000      1.00000000      1.00000000      1.00000000      1.00000000      1.00000000      1.00000000
      1.00000000      1.00000000      1.00000000      1.00000000      1.00000000      1.00000000      1.00000000      1.00000000      1.00000000      1.00000000      1.00000000      1.00000000      1.00000000      1.00000000      1.00000000      1.00000000      1.00000000      1.00000000      1.00000000      1.00000000
      1.00000000      1.00000000      1.00000000      1.00000000      1.00000000      1.00000000      1.00000000      1.00000000      1.00000000      1.00000000      1.00000000      1.00000000      1.00000000      1.00000000      1.00000000      1.00000000      1.00000000      1.00000000      1.00000000      1.00000000
      1.00000000      1.00000000      1.00000000      1.00000000      1.00000000      1.00000000      1.00000000      1.00000000      1.00000000      1.00000000      1.00000000      1.00000000      1.00000000      1.00000000      1.00000000      1.00000000      1.00000000      1.00000000      1.00000000      1.00000000
      1.00000000      1.00000000      1.00000000      1.00000000      1.00000000      1.00000000      1.00000000      1.00000000      1.00000000      1.00000000      1.00000000      1.00000000      1.00000000      1.00000000      1.00000000      1.00000000      1.00000000      1.00000000      1.00000000      1.00000000
      1.00000000      1.00000000      1.00000000      1.00000000      1.00000000      1.00000000      1.00000000      1.00000000      1.00000000      1.00000000      1.00000000      1.00000000      1.00000000      1.00000000      1.00000000      1.00000000      1.00000000      1.00000000      1.00000000      1.00000000
      1.00000000      1.00000000      1.00000000      1.00000000      1.00000000      1.00000000      1.00000000      1.00000000      1.00000000      1.00000000      1.00000000      1.00000000      1.00000000      1.00000000      1.00000000      1.00000000      1.00000000      1.00000000      1.00000000      1.00000000
      1.00000000      1.00000000      1.00000000      1.00000000      1.00000000</v>
    <i name="NUPDOWN">     -1.00000000</i>
    <i type="logical" name="LSORBIT"> F  </i>
    <v name="SAXIS">      0.00000000      0.00000000      1.00000000</v>
    <i type="logical" name="LSPIRAL"> F  </i>
    <v name="QSPIRAL">      0.00000000      0.00000000      0.00000000</v>
    <i type="logical" name="LZEROZ"> F  </i>
   </separator>
   <separator name="electronic exchange-correlation" >
    <i type="logical" name="LASPH"> F  </i>
    <i type="logical" name="LMETAGGA"> F  </i>
   </separator>
   <separator name="electronic convergence" >
    <i type="int" name="NELM">   600</i>
    <i type="int" name="NELMDL">     0</i>
    <i type="int" name="NELMIN">     2</i>
    <i name="ENINI">    500.00000000</i>
    <separator name="electronic convergence detail" >
     <i type="logical" name="LDIAG"> T  </i>
     <i type="logical" name="LSUBROT"> F  </i>
     <i name="WEIMIN">      0.00000000</i>
     <i name="EBREAK">      0.00000003</i>
     <i name="DEPER">      0.30000000</i>
     <i type="int" name="NRMM">     4</i>
     <i name="TIME">      0.40000000</i>
    </separator>
   </separator>
   <separator name="electronic mixer" >
    <i name="AMIX">      0.40000000</i>
    <i name="BMIX">      0.01000000</i>
    <i name="AMIN">      0.01000000</i>
    <i name="AMIX_MAG">      1.60000000</i>
    <i name="BMIX_MAG">      0.01000000</i>
    <separator name="electronic mixer details" >
     <i type="int" name="IMIX">     4</i>
     <i type="logical" name="MIXFIRST"> F  </i>
     <i type="int" name="MAXMIX">   -45</i>
     <i name="WC">    100.00000000</i>
     <i type="int" name="INIMIX">     1</i>
     <i type="int" name="MIXPRE">     1</i>
     <i type="int" name="MREMOVE">     5</i>
    </separator>
   </separator>
   <separator name="electronic dipolcorrection" >
    <i type="logical" name="LDIPOL"> T  </i>
    <i type="logical" name="LMONO"> F  </i>
    <i type="int" name="IDIPOL">     3</i>
    <i name="EPSILON">      1.00000000</i>
    <v name="DIPOL">   -100.00000000   -100.00000000   -100.00000000</v>
    <i name="EFIELD">      0.00000000</i>
   </separator>
  </separator>
  <separator name="grids" >
   <i type="int" name="NGX">   100</i>
   <i type="int" name="NGY">   100</i>
   <i type="int" name="NGZ">   350</i>
   <i type="int" name="NGXF">   200</i>
   <i type="int" name="NGYF">   200</i>
   <i type="int" name="NGZF">   700</i>
   <i type="logical" name="ADDGRID"> F  </i>
  </separator>
  <separator name="ionic" >
   <i type="int" name="NSW">     0</i>
   <i type="int" name="IBRION">    -1</i>
   <i type="int" name="MDALGO">     0</i>
   <i type="int" name="ISIF">     2</i>
   <i name="PSTRESS">      0.00000000</i>
   <i name="EDIFFG">      0.00100000</i>
   <i type="int" name="NFREE">     0</i>
   <i name="POTIM">      0.50000000</i>
   <i name="SMASS">     -3.00000000</i>
   <i name="SCALEE">      1.00000000</i>
  </separator>
  <separator name="ionic md" >
   <i name="TEBEG">      0.00010000</i>
   <i name="TEEND">      0.00010000</i>
   <i type="int" name="NBLOCK">     1</i>
   <i type="int" name="KBLOCK">     1</i>
   <i type="int" name="NPACO">   256</i>
   <i name="APACO">     16.00000000</i>
  </separator>
  <separator name="symmetry" >
   <i type="int" name="ISYM">     0</i>
   <i name="SYMPREC">      0.00001000</i>
  </separator>
  <separator name="dos" >
   <i type="int" name="LORBIT">     0</i>
   <v name="RWIGS">     -1.00000000     -1.00000000     -1.00000000     -1.00000000     -1.00000000</v>
   <i type="int" name="NEDOS">   301</i>
   <i name="EMIN">     10.00000000</i>
   <i name="EMAX">    -10.00000000</i>
   <i name="EFERMI">      0.00000000</i>
  </separator>
  <separator name="writing" >
   <i type="int" name="NWRITE">     2</i>
   <i type="logical" name="LWAVE"> F  </i>
   <i type="logical" name="LDOWNSAMPLE"> F  </i>
   <i type="logical" name="LCHARG"> T  </i>
   <i type="logical" name="LPARD"> F  </i>
   <i type="logical" name="LVTOT"> T  </i>
   <i type="logical" name="LVHAR"> F  </i>
   <i type="logical" name="LELF"> F  </i>
   <i type="logical" name="LOPTICS"> F  </i>
   <v name="STM">      0.00000000      0.00000000      0.00000000      0.00000000      0.00000000      0.00000000      0.00000000</v>
  </separator>
  <separator name="performance" >
   <i type="int" name="NPAR">     4</i>
   <i type="int" name="NSIM">     4</i>
   <i type="int" name="NBLK">    -1</i>
   <i type="logical" name="LPLANE"> T  </i>
   <i type="logical" name="LSCALAPACK"> T  </i>
   <i type="logical" name="LSCAAWARE"> F  </i>
   <i type="logical" name="LSCALU"> F  </i>
   <i type="logical" name="LASYNC"> F  </i>
   <i type="logical" name="LORBITALREAL"> F  </i>
  </separator>
  <separator name="miscellaneous" >
   <i type="int" name="IDIOT">     3</i>
   <i type="int" name="PHON_NSTRUCT">    -1</i>
   <i type="logical" name="LMUSIC"> F  </i>
   <v name="POMASS">      1.00000000     12.01100000     14.00100000    126.90400000    207.20000000</v>
   <v name="DARWINR">      0.00000000      0.00000000      0.00000000      0.00000000      0.00000000</v>
   <v name="DARWINV">      1.00000000      1.00000000      1.00000000      1.00000000      1.00000000</v>
   <i type="logical" name="LCORR"> T  </i>
  </separator>
  <i type="logical" name="GGA_COMPAT"> F  </i>
  <i type="logical" name="LBERRY"> F  </i>
  <i type="int" name="ICORELEVEL">     0</i>
  <i type="logical" name="LDAU"> F  </i>
  <i type="int" name="I_CONSTRAINED_M">     0</i>
  <separator name="electronic exchange-correlation" >
   <i type="string" name="GGA">--</i>
   <i type="int" name="VOSKOWN">     0</i>
   <i type="logical" name="LHFCALC"> F  </i>
   <i type="string" name="PRECFOCK"></i>
   <i type="logical" name="LSYMGRAD"> F  </i>
   <i type="logical" name="LHFONE"> F  </i>
   <i type="logical" name="LRHFCALC"> F  </i>
   <i type="logical" name="LTHOMAS"> F  </i>
   <i type="logical" name="LMODELHF"> F  </i>
   <i type="logical" name="LFOCKACE"> F  </i>
   <i name="ENCUT4O">     -1.00000000</i>
   <i type="int" name="EXXOEP">     0</i>
   <i type="int" name="FOURORBIT">     0</i>
   <i name="AEXX">      0.00000000</i>
   <i name="HFALPHA">      0.00000000</i>
   <i name="MCALPHA">      0.00000000</i>
   <i name="ALDAX">      1.00000000</i>
   <i name="AGGAX">      1.00000000</i>
   <i name="ALDAC">      1.00000000</i>
   <i name="AGGAC">      1.00000000</i>
   <i type="int" name="NKREDX">     1</i>
   <i type="int" name="NKREDY">     1</i>
   <i type="int" name="NKREDZ">     1</i>
   <i type="logical" name="SHIFTRED"> F  </i>
   <i type="logical" name="ODDONLY"> F  </i>
   <i type="logical" name="EVENONLY"> F  </i>
   <i type="int" name="LMAXFOCK">     0</i>
   <i type="int" name="NMAXFOCKAE">     0</i>
   <i type="logical" name="LFOCKAEDFT"> F  </i>
   <i name="HFSCREEN">      0.00000000</i>
   <i name="HFSCREENC">      0.00000000</i>
   <i type="int" name="NBANDSGWLOW">     0</i>
  </separator>
  <separator name="vdW DFT" >
   <i type="logical" name="LUSE_VDW"> F  </i>
   <i name="Zab_VDW">     -0.84910000</i>
   <i name="PARAM1">      0.12340000</i>
   <i name="PARAM2">      1.00000000</i>
   <i name="PARAM3">      0.00000000</i>
  </separator>
  <separator name="model GW" >
   <i type="int" name="MODEL_GW">     0</i>
   <i name="MODEL_EPS0">     37.63423484</i>
   <i name="MODEL_ALPHA">      1.00000000</i>
  </separator>
  <separator name="linear response parameters" >
   <i type="logical" name="LEPSILON"> F  </i>
   <i type="logical" name="LRPA"> F  </i>
   <i type="logical" name="LNABLA"> F  </i>
   <i type="logical" name="LVEL"> F  </i>
   <i type="int" name="KINTER">     0</i>
   <i name="CSHIFT">      0.10000000</i>
   <i name="OMEGAMAX">     -1.00000000</i>
   <i name="DEG_THRESHOLD">      0.00200000</i>
   <i name="RTIME">     -0.10000000</i>
   <i name="WPLASMAI">      0.00000000</i>
   <v name="DFIELD">      0.00000000      0.00000000      0.00000000</v>
   <v name="WPLASMA">      0.00000000      0.00000000      0.00000000      0.00000000      0.00000000      0.00000000      0.00000000      0.00000000      0.00000000</v>
  </separator>
  <separator name="orbital magnetization" >
   <i type="logical" name="NUCIND"> F  </i>
   <v name="MAGPOS">      0.00000000      0.00000000      0.00000000</v>
   <i type="logical" name="LNICSALL"> T  </i>
   <i type="logical" name="ORBITALMAG"> F  </i>
   <i type="logical" name="LMAGBLOCH"> F  </i>
   <i type="logical" name="LCHIMAG"> F  </i>
   <i type="logical" name="LGAUGE"> T  </i>
   <i type="int" name="MAGATOM">     0</i>
   <v name="MAGDIPOL">      0.00000000      0.00000000      0.00000000</v>
   <v name="AVECCONST">      0.00000000      0.00000000      0.00000000</v>
  </separator>
  <separator name="response functions" >
   <i type="logical" name="LFINITE_TEMPERATURE"> F  </i>
   <i type="logical" name="LADDER"> F  </i>
   <i type="logical" name="LRPAFORCE"> F  </i>
   <i type="logical" name="LFXC"> F  </i>
   <i type="logical" name="LHARTREE"> T  </i>
   <i type="int" name="IBSE">     0</i>
   <v type="int" name="KPOINT">    -1     0     0     0</v>
   <i type="logical" name="LTCTC"> F  </i>
   <i type="logical" name="LTCTE"> F  </i>
   <i type="logical" name="LTETE"> F  </i>
   <i type="logical" name="LTRIPLET"> F  </i>
   <i type="logical" name="LFXCEPS"> F  </i>
   <i type="logical" name="LFXHEG"> F  </i>
   <i type="int" name="NATURALO">     2</i>
   <i type="logical" name="LHOLEGF"> F  </i>
   <i type="logical" name="L2ORDER"> F  </i>
   <i type="logical" name="LDMP1"> F  </i>
   <i type="logical" name="LMP2LT"> F  </i>
   <i type="logical" name="LSMP2LT"> F  </i>
   <i type="logical" name="LGWLF"> F  </i>
   <i name="ENCUTGW">     -2.00000000</i>
   <i name="ENCUTGWSOFT">     -2.00000000</i>
   <i name="ENCUTLF">     -1.00000000</i>
   <i type="logical" name="LESF_SPLINES"> F  </i>
   <i type="int" name="LMAXMP2">    -1</i>
   <i name="SCISSOR">      0.00000000</i>
   <i type="int" name="NOMEGA">     0</i>
   <i type="int" name="NOMEGAR">     0</i>
   <i type="int" name="NBANDSGW">    -1</i>
   <i type="int" name="NBANDSO">    -1</i>
   <i type="int" name="NBANDSV">    -1</i>
   <i type="int" name="NELM">   600</i>
   <i type="int" name="NELMHF">     1</i>
   <i type="int" name="DIM">     3</i>
   <i type="int" name="IESPILON">     4</i>
   <i type="int" name="ANTIRES">     0</i>
   <i name="OMEGAMAX">    -30.00000000</i>
   <i name="OMEGAMIN">    -30.00000000</i>
   <i name="OMEGATL">   -200.00000000</i>
   <i type="int" name="OMEGAGRID">     0</i>
   <i name="CSHIFT">     -0.10000000</i>
   <i type="logical" name="LSELFENERGY"> F  </i>
   <i type="logical" name="LSPECTRAL"> F  </i>
   <i type="logical" name="LSPECTRALGW"> F  </i>
   <i type="logical" name="LSINGLES"> F  </i>
   <i type="logical" name="LFERMIGW"> F  </i>
   <i type="logical" name="ODDONLYGW"> F  </i>
   <i type="logical" name="EVENONLYGW"> F  </i>
   <i type="int" name="NKREDLFX">     1</i>
   <i type="int" name="NKREDLFY">     1</i>
   <i type="int" name="NKREDLFZ">     1</i>
   <i type="int" name="MAXMEM">  2800</i>
   <i type="int" name="TELESCOPE">     0</i>
   <i type="int" name="NTAUPAR">    -1</i>
   <i type="int" name="NOMEGAPAR">    -1</i>
   <i name="DAMP_NEWTON">      0.80000001</i>
   <i name="LAMBDA">      1.00000000</i>
  </separator>
  <separator name="External order field" >
   <i name="OFIELD_KAPPA">      0.00000000</i>
   <v name="OFIELD_K">      0.00000000      0.00000000      0.00000000</v>
   <i name="OFIELD_Q6_NEAR">      0.00000000</i>
   <i name="OFIELD_Q6_FAR">      0.00000000</i>
   <i name="OFIELD_A">      0.00000000</i>
  </separator>
 </parameters>
 <atominfo>
  <atoms>     325 </atoms>
  <types>       5 </types>
  <array name="atoms" >
   <dimension dim="1">ion</dimension>
   <field type="string">element</field>
   <field type="int">atomtype</field>
   <set>
    <rc><c>H </c><c>   1</c></rc>
    <rc><c>H </c><c>   1</c></rc>
    <rc><c>H </c><c>   1</c></rc>
    <rc><c>H </c><c>   1</c></rc>
    <rc><c>H </c><c>   1</c></rc>
    <rc><c>H </c><c>   1</c></rc>
    <rc><c>H </c><c>   1</c></rc>
    <rc><c>H </c><c>   1</c></rc>
    <rc><c>H </c><c>   1</c></rc>
    <rc><c>H </c><c>   1</c></rc>
    <rc><c>H </c><c>   1</c></rc>
    <rc><c>H </c><c>   1</c></rc>
    <rc><c>H </c><c>   1</c></rc>
    <rc><c>H </c><c>   1</c></rc>
    <rc><c>H </c><c>   1</c></rc>
    <rc><c>H </c><c>   1</c></rc>
    <rc><c>H </c><c>   1</c></rc>
    <rc><c>H </c><c>   1</c></rc>
    <rc><c>H </c><c>   1</c></rc>
    <rc><c>H </c><c>   1</c></rc>
    <rc><c>H </c><c>   1</c></rc>
    <rc><c>H </c><c>   1</c></rc>
    <rc><c>H </c><c>   1</c></rc>
    <rc><c>H </c><c>   1</c></rc>
    <rc><c>H </c><c>   1</c></rc>
    <rc><c>H </c><c>   1</c></rc>
    <rc><c>H </c><c>   1</c></rc>
    <rc><c>H </c><c>   1</c></rc>
    <rc><c>H </c><c>   1</c></rc>
    <rc><c>H </c><c>   1</c></rc>
    <rc><c>H </c><c>   1</c></rc>
    <rc><c>H </c><c>   1</c></rc>
    <rc><c>H </c><c>   1</c></rc>
    <rc><c>H </c><c>   1</c></rc>
    <rc><c>H </c><c>   1</c></rc>
    <rc><c>H </c><c>   1</c></rc>
    <rc><c>H </c><c>   1</c></rc>
    <rc><c>H </c><c>   1</c></rc>
    <rc><c>H </c><c>   1</c></rc>
    <rc><c>H </c><c>   1</c></rc>
    <rc><c>H </c><c>   1</c></rc>
    <rc><c>H </c><c>   1</c></rc>
    <rc><c>H </c><c>   1</c></rc>
    <rc><c>H </c><c>   1</c></rc>
    <rc><c>H </c><c>   1</c></rc>
    <rc><c>H </c><c>   1</c></rc>
    <rc><c>H </c><c>   1</c></rc>
    <rc><c>H </c><c>   1</c></rc>
    <rc><c>H </c><c>   1</c></rc>
    <rc><c>H </c><c>   1</c></rc>
    <rc><c>H </c><c>   1</c></rc>
    <rc><c>H </c><c>   1</c></rc>
    <rc><c>H </c><c>   1</c></rc>
    <rc><c>H </c><c>   1</c></rc>
    <rc><c>H </c><c>   1</c></rc>
    <rc><c>H </c><c>   1</c></rc>
    <rc><c>H </c><c>   1</c></rc>
    <rc><c>H </c><c>   1</c></rc>
    <rc><c>H </c><c>   1</c></rc>
    <rc><c>H </c><c>   1</c></rc>
    <rc><c>H </c><c>   1</c></rc>
    <rc><c>H </c><c>   1</c></rc>
    <rc><c>H </c><c>   1</c></rc>
    <rc><c>H </c><c>   1</c></rc>
    <rc><c>H </c><c>   1</c></rc>
    <rc><c>H </c><c>   1</c></rc>
    <rc><c>H </c><c>   1</c></rc>
    <rc><c>H </c><c>   1</c></rc>
    <rc><c>H </c><c>   1</c></rc>
    <rc><c>H </c><c>   1</c></rc>
    <rc><c>H </c><c>   1</c></rc>
    <rc><c>H </c><c>   1</c></rc>
    <rc><c>H </c><c>   1</c></rc>
    <rc><c>H </c><c>   1</c></rc>
    <rc><c>H </c><c>   1</c></rc>
    <rc><c>H </c><c>   1</c></rc>
    <rc><c>H </c><c>   1</c></rc>
    <rc><c>H </c><c>   1</c></rc>
    <rc><c>H </c><c>   1</c></rc>
    <rc><c>H </c><c>   1</c></rc>
    <rc><c>H </c><c>   1</c></rc>
    <rc><c>H </c><c>   1</c></rc>
    <rc><c>H </c><c>   1</c></rc>
    <rc><c>H </c><c>   1</c></rc>
    <rc><c>H </c><c>   1</c></rc>
    <rc><c>H </c><c>   1</c></rc>
    <rc><c>H </c><c>   1</c></rc>
    <rc><c>H </c><c>   1</c></rc>
    <rc><c>H </c><c>   1</c></rc>
    <rc><c>H </c><c>   1</c></rc>
    <rc><c>H </c><c>   1</c></rc>
    <rc><c>H </c><c>   1</c></rc>
    <rc><c>H </c><c>   1</c></rc>
    <rc><c>H </c><c>   1</c></rc>
    <rc><c>H </c><c>   1</c></rc>
    <rc><c>H </c><c>   1</c></rc>
    <rc><c>H </c><c>   1</c></rc>
    <rc><c>H </c><c>   1</c></rc>
    <rc><c>H </c><c>   1</c></rc>
    <rc><c>H </c><c>   1</c></rc>
    <rc><c>H </c><c>   1</c></rc>
    <rc><c>H </c><c>   1</c></rc>
    <rc><c>H </c><c>   1</c></rc>
    <rc><c>H </c><c>   1</c></rc>
    <rc><c>H </c><c>   1</c></rc>
    <rc><c>H </c><c>   1</c></rc>
    <rc><c>H </c><c>   1</c></rc>
    <rc><c>H </c><c>   1</c></rc>
    <rc><c>H </c><c>   1</c></rc>
    <rc><c>H </c><c>   1</c></rc>
    <rc><c>H </c><c>   1</c></rc>
    <rc><c>H </c><c>   1</c></rc>
    <rc><c>H </c><c>   1</c></rc>
    <rc><c>H </c><c>   1</c></rc>
    <rc><c>H </c><c>   1</c></rc>
    <rc><c>H </c><c>   1</c></rc>
    <rc><c>H </c><c>   1</c></rc>
    <rc><c>H </c><c>   1</c></rc>
    <rc><c>H </c><c>   1</c></rc>
    <rc><c>H </c><c>   1</c></rc>
    <rc><c>H </c><c>   1</c></rc>
    <rc><c>H </c><c>   1</c></rc>
    <rc><c>H </c><c>   1</c></rc>
    <rc><c>H </c><c>   1</c></rc>
    <rc><c>H </c><c>   1</c></rc>
    <rc><c>H </c><c>   1</c></rc>
    <rc><c>H </c><c>   1</c></rc>
    <rc><c>H </c><c>   1</c></rc>
    <rc><c>H </c><c>   1</c></rc>
    <rc><c>H </c><c>   1</c></rc>
    <rc><c>H </c><c>   1</c></rc>
    <rc><c>H </c><c>   1</c></rc>
    <rc><c>H </c><c>   1</c></rc>
    <rc><c>H </c><c>   1</c></rc>
    <rc><c>H </c><c>   1</c></rc>
    <rc><c>H </c><c>   1</c></rc>
    <rc><c>H </c><c>   1</c></rc>
    <rc><c>H </c><c>   1</c></rc>
    <rc><c>H </c><c>   1</c></rc>
    <rc><c>H </c><c>   1</c></rc>
    <rc><c>H </c><c>   1</c></rc>
    <rc><c>H </c><c>   1</c></rc>
    <rc><c>H </c><c>   1</c></rc>
    <rc><c>C </c><c>   2</c></rc>
    <rc><c>C </c><c>   2</c></rc>
    <rc><c>C </c><c>   2</c></rc>
    <rc><c>C </c><c>   2</c></rc>
    <rc><c>C </c><c>   2</c></rc>
    <rc><c>C </c><c>   2</c></rc>
    <rc><c>C </c><c>   2</c></rc>
    <rc><c>C </c><c>   2</c></rc>
    <rc><c>C </c><c>   2</c></rc>
    <rc><c>C </c><c>   2</c></rc>
    <rc><c>C </c><c>   2</c></rc>
    <rc><c>C </c><c>   2</c></rc>
    <rc><c>C </c><c>   2</c></rc>
    <rc><c>C </c><c>   2</c></rc>
    <rc><c>C </c><c>   2</c></rc>
    <rc><c>C </c><c>   2</c></rc>
    <rc><c>C </c><c>   2</c></rc>
    <rc><c>C </c><c>   2</c></rc>
    <rc><c>C </c><c>   2</c></rc>
    <rc><c>C </c><c>   2</c></rc>
    <rc><c>C </c><c>   2</c></rc>
    <rc><c>C </c><c>   2</c></rc>
    <rc><c>C </c><c>   2</c></rc>
    <rc><c>C </c><c>   2</c></rc>
    <rc><c>C </c><c>   2</c></rc>
    <rc><c>C </c><c>   2</c></rc>
    <rc><c>C </c><c>   2</c></rc>
    <rc><c>C </c><c>   2</c></rc>
    <rc><c>C </c><c>   2</c></rc>
    <rc><c>C </c><c>   2</c></rc>
    <rc><c>C </c><c>   2</c></rc>
    <rc><c>C </c><c>   2</c></rc>
    <rc><c>C </c><c>   2</c></rc>
    <rc><c>C </c><c>   2</c></rc>
    <rc><c>C </c><c>   2</c></rc>
    <rc><c>C </c><c>   2</c></rc>
    <rc><c>C </c><c>   2</c></rc>
    <rc><c>C </c><c>   2</c></rc>
    <rc><c>C </c><c>   2</c></rc>
    <rc><c>N </c><c>   3</c></rc>
    <rc><c>N </c><c>   3</c></rc>
    <rc><c>N </c><c>   3</c></rc>
    <rc><c>N </c><c>   3</c></rc>
    <rc><c>N </c><c>   3</c></rc>
    <rc><c>N </c><c>   3</c></rc>
    <rc><c>N </c><c>   3</c></rc>
    <rc><c>N </c><c>   3</c></rc>
    <rc><c>N </c><c>   3</c></rc>
    <rc><c>N </c><c>   3</c></rc>
    <rc><c>N </c><c>   3</c></rc>
    <rc><c>N </c><c>   3</c></rc>
    <rc><c>N </c><c>   3</c></rc>
    <rc><c>N </c><c>   3</c></rc>
    <rc><c>N </c><c>   3</c></rc>
    <rc><c>N </c><c>   3</c></rc>
    <rc><c>N </c><c>   3</c></rc>
    <rc><c>N </c><c>   3</c></rc>
    <rc><c>N </c><c>   3</c></rc>
    <rc><c>N </c><c>   3</c></rc>
    <rc><c>N </c><c>   3</c></rc>
    <rc><c>N </c><c>   3</c></rc>
    <rc><c>N </c><c>   3</c></rc>
    <rc><c>N </c><c>   3</c></rc>
    <rc><c>N </c><c>   3</c></rc>
    <rc><c>N </c><c>   3</c></rc>
    <rc><c>N </c><c>   3</c></rc>
    <rc><c>N </c><c>   3</c></rc>
    <rc><c>N </c><c>   3</c></rc>
    <rc><c>N </c><c>   3</c></rc>
    <rc><c>N </c><c>   3</c></rc>
    <rc><c>N </c><c>   3</c></rc>
    <rc><c>N </c><c>   3</c></rc>
    <rc><c>N </c><c>   3</c></rc>
    <rc><c>N </c><c>   3</c></rc>
    <rc><c>N </c><c>   3</c></rc>
    <rc><c>N </c><c>   3</c></rc>
    <rc><c>N </c><c>   3</c></rc>
    <rc><c>N </c><c>   3</c></rc>
    <rc><c>N </c><c>   3</c></rc>
    <rc><c>N </c><c>   3</c></rc>
    <rc><c>N </c><c>   3</c></rc>
    <rc><c>N </c><c>   3</c></rc>
    <rc><c>N </c><c>   3</c></rc>
    <rc><c>N </c><c>   3</c></rc>
    <rc><c>N </c><c>   3</c></rc>
    <rc><c>N </c><c>   3</c></rc>
    <rc><c>I </c><c>   4</c></rc>
    <rc><c>I </c><c>   4</c></rc>
    <rc><c>I </c><c>   4</c></rc>
    <rc><c>I </c><c>   4</c></rc>
    <rc><c>I </c><c>   4</c></rc>
    <rc><c>I </c><c>   4</c></rc>
    <rc><c>I </c><c>   4</c></rc>
    <rc><c>I </c><c>   4</c></rc>
    <rc><c>I </c><c>   4</c></rc>
    <rc><c>I </c><c>   4</c></rc>
    <rc><c>I </c><c>   4</c></rc>
    <rc><c>I </c><c>   4</c></rc>
    <rc><c>I </c><c>   4</c></rc>
    <rc><c>I </c><c>   4</c></rc>
    <rc><c>I </c><c>   4</c></rc>
    <rc><c>I </c><c>   4</c></rc>
    <rc><c>I </c><c>   4</c></rc>
    <rc><c>I </c><c>   4</c></rc>
    <rc><c>I </c><c>   4</c></rc>
    <rc><c>I </c><c>   4</c></rc>
    <rc><c>I </c><c>   4</c></rc>
    <rc><c>I </c><c>   4</c></rc>
    <rc><c>I </c><c>   4</c></rc>
    <rc><c>I </c><c>   4</c></rc>
    <rc><c>I </c><c>   4</c></rc>
    <rc><c>I </c><c>   4</c></rc>
    <rc><c>I </c><c>   4</c></rc>
    <rc><c>I </c><c>   4</c></rc>
    <rc><c>I </c><c>   4</c></rc>
    <rc><c>I </c><c>   4</c></rc>
    <rc><c>I </c><c>   4</c></rc>
    <rc><c>I </c><c>   4</c></rc>
    <rc><c>I </c><c>   4</c></rc>
    <rc><c>I </c><c>   4</c></rc>
    <rc><c>I </c><c>   4</c></rc>
    <rc><c>I </c><c>   4</c></rc>
    <rc><c>I </c><c>   4</c></rc>
    <rc><c>I </c><c>   4</c></rc>
    <rc><c>I </c><c>   4</c></rc>
    <rc><c>I </c><c>   4</c></rc>
    <rc><c>I </c><c>   4</c></rc>
    <rc><c>I </c><c>   4</c></rc>
    <rc><c>I </c><c>   4</c></rc>
    <rc><c>I </c><c>   4</c></rc>
    <rc><c>I </c><c>   4</c></rc>
    <rc><c>I </c><c>   4</c></rc>
    <rc><c>I </c><c>   4</c></rc>
    <rc><c>I </c><c>   4</c></rc>
    <rc><c>I </c><c>   4</c></rc>
    <rc><c>I </c><c>   4</c></rc>
    <rc><c>I </c><c>   4</c></rc>
    <rc><c>I </c><c>   4</c></rc>
    <rc><c>I </c><c>   4</c></rc>
    <rc><c>I </c><c>   4</c></rc>
    <rc><c>I </c><c>   4</c></rc>
    <rc><c>I </c><c>   4</c></rc>
    <rc><c>I </c><c>   4</c></rc>
    <rc><c>I </c><c>   4</c></rc>
    <rc><c>I </c><c>   4</c></rc>
    <rc><c>I </c><c>   4</c></rc>
    <rc><c>I </c><c>   4</c></rc>
    <rc><c>I </c><c>   4</c></rc>
    <rc><c>I </c><c>   4</c></rc>
    <rc><c>I </c><c>   4</c></rc>
    <rc><c>I </c><c>   4</c></rc>
    <rc><c>I </c><c>   4</c></rc>
    <rc><c>I </c><c>   4</c></rc>
    <rc><c>I </c><c>   4</c></rc>
    <rc><c>I </c><c>   4</c></rc>
    <rc><c>I </c><c>   4</c></rc>
    <rc><c>I </c><c>   4</c></rc>
    <rc><c>I </c><c>   4</c></rc>
    <rc><c>Pb</c><c>   5</c></rc>
    <rc><c>Pb</c><c>   5</c></rc>
    <rc><c>Pb</c><c>   5</c></rc>
    <rc><c>Pb</c><c>   5</c></rc>
    <rc><c>Pb</c><c>   5</c></rc>
    <rc><c>Pb</c><c>   5</c></rc>
    <rc><c>Pb</c><c>   5</c></rc>
    <rc><c>Pb</c><c>   5</c></rc>
    <rc><c>Pb</c><c>   5</c></rc>
    <rc><c>Pb</c><c>   5</c></rc>
    <rc><c>Pb</c><c>   5</c></rc>
    <rc><c>Pb</c><c>   5</c></rc>
    <rc><c>Pb</c><c>   5</c></rc>
    <rc><c>Pb</c><c>   5</c></rc>
    <rc><c>Pb</c><c>   5</c></rc>
    <rc><c>Pb</c><c>   5</c></rc>
    <rc><c>Pb</c><c>   5</c></rc>
    <rc><c>Pb</c><c>   5</c></rc>
    <rc><c>Pb</c><c>   5</c></rc>
    <rc><c>Pb</c><c>   5</c></rc>
    <rc><c>Pb</c><c>   5</c></rc>
    <rc><c>Pb</c><c>   5</c></rc>
    <rc><c>Pb</c><c>   5</c></rc>
    <rc><c>Pb</c><c>   5</c></rc>
   </set>
  </array>
  <array name="atomtypes" >
   <dimension dim="1">type</dimension>
   <field type="int">atomspertype</field>
   <field type="string">element</field>
   <field>mass</field>
   <field>valence</field>
   <field type="string">pseudopotential</field>
   <set>
    <rc><c> 143</c><c>H </c><c>      1.00000000</c><c>      1.00000000</c><c>  PAW_PBE H 15Jun2001                   </c></rc>
    <rc><c>  39</c><c>C </c><c>     12.01100000</c><c>      4.00000000</c><c>  PAW_PBE C 08Apr2002                   </c></rc>
    <rc><c>  47</c><c>N </c><c>     14.00100000</c><c>      5.00000000</c><c>  PAW_PBE N 08Apr2002                   </c></rc>
    <rc><c>  72</c><c>I </c><c>    126.90400000</c><c>      7.00000000</c><c>  PAW_PBE I 08Apr2002                   </c></rc>
    <rc><c>  24</c><c>Pb</c><c>    207.20000000</c><c>      4.00000000</c><c>  PAW_PBE Pb 08Apr2002                  </c></rc>
   </set>
  </array>
 </atominfo>
 <structure name="initialpos" >
  <crystal>
   <varray name="basis" >
    <v>      18.06080055       0.00000000       0.00000000 </v>
    <v>      -0.00491865      18.06279945       0.00000000 </v>
    <v>       0.00000000       0.00000000      62.48749924 </v>
   </varray>
   <i name="volume">  20385.21054034 </i>
   <varray name="rec_basis" >
    <v>       0.05536853       0.00001508      -0.00000000 </v>
    <v>       0.00000000       0.05536240       0.00000000 </v>
    <v>       0.00000000      -0.00000000       0.01600320 </v>
   </varray>
  </crystal>
  <varray name="positions" >
   <v>       0.42622971       0.26074573       0.58167768 </v>
   <v>       0.41636698       0.74329350       0.57812924 </v>
   <v>       0.93573727       0.28940100       0.58201198 </v>
   <v>       0.94610965       0.80890996       0.57989028 </v>
   <v>       0.31126981       0.05954379       0.57964090 </v>
   <v>       0.30366584       0.57802181       0.57548730 </v>
   <v>       0.78531280       0.07477395       0.58164289 </v>
   <v>       0.10360717       0.19647026       0.56403304 </v>
   <v>       0.08505683       0.67603351       0.56397877 </v>
   <v>       0.60012214       0.19472705       0.56320860 </v>
   <v>       0.60799983       0.74142642       0.56317075 </v>
   <v>       0.36928798       0.01994709       0.56082207 </v>
   <v>       0.27357059       0.61167728       0.55141461 </v>
   <v>       0.85335132       0.05882407       0.56292747 </v>
   <v>       0.07008573       0.24740935       0.58520585 </v>
   <v>       0.01243068       0.69096464       0.58230800 </v>
   <v>       0.53601936       0.17974459       0.58270755 </v>
   <v>       0.54665040       0.69898076       0.58123069 </v>
   <v>       0.26450751       0.44527027       0.58383913 </v>
   <v>       0.17600078       0.01916140       0.57764758 </v>
   <v>       0.67626354       0.98671113       0.58064733 </v>
   <v>       0.41923695       0.32486453       0.56094410 </v>
   <v>       0.39589622       0.80617198       0.55799698 </v>
   <v>       0.89038276       0.25850904       0.55906733 </v>
   <v>       0.97361356       0.86987531       0.55950449 </v>
   <v>       0.21089084       0.40216301       0.56482214 </v>
   <v>       0.15454954       0.95821106       0.55721704 </v>
   <v>       0.68243137       0.91633782       0.56157839 </v>
   <v>       0.52875515       0.28648889       0.54621319 </v>
   <v>       0.51930185       0.80810300       0.54595313 </v>
   <v>       0.99312636       0.20166179       0.54543807 </v>
   <v>       0.06487980       0.78864631       0.54712176 </v>
   <v>       0.21047692       0.50348423       0.54218584 </v>
   <v>       0.27420294       0.95245980       0.54451369 </v>
   <v>       0.79419651       0.95781001       0.54818154 </v>
   <v>       0.43648944       0.28604639       0.67518522 </v>
   <v>       0.43151467       0.82111631       0.67165882 </v>
   <v>       0.97104370       0.27499261       0.68207575 </v>
   <v>       0.93492123       0.78987512       0.67547580 </v>
   <v>       0.29842743       0.04743489       0.67699997 </v>
   <v>       0.29828156       0.55104477       0.67574142 </v>
   <v>       0.79940938       0.05611389       0.67482369 </v>
   <v>       0.80704021       0.55315023       0.67611289 </v>
   <v>       0.08347134       0.16844806       0.64419977 </v>
   <v>       0.09522007       0.68721057       0.65383640 </v>
   <v>       0.58024635       0.17415433       0.64959715 </v>
   <v>       0.56117321       0.67411199       0.65706123 </v>
   <v>       0.18254767       0.41102080       0.64942408 </v>
   <v>       0.17280861       0.92173406       0.64675057 </v>
   <v>       0.67158642       0.42510313       0.65329491 </v>
   <v>       0.66682314       0.92786560       0.65028485 </v>
   <v>       0.07096999       0.17956608       0.67174715 </v>
   <v>       0.03789802       0.68973615       0.67618597 </v>
   <v>       0.53491668       0.18385905       0.67393246 </v>
   <v>       0.52306865       0.71813440       0.67935628 </v>
   <v>       0.21187275       0.43681551       0.67475398 </v>
   <v>       0.18961040       0.94835102       0.67287836 </v>
   <v>       0.71088688       0.44641403       0.67765318 </v>
   <v>       0.69031559       0.96373305       0.67515237 </v>
   <v>       0.42347967       0.33449845       0.65126155 </v>
   <v>       0.41773809       0.83982360       0.64462954 </v>
   <v>       0.92801450       0.31856479       0.66002453 </v>
   <v>       0.93485746       0.84284964       0.65220888 </v>
   <v>       0.33876499       0.07224873       0.65314358 </v>
   <v>       0.31716379       0.59069119       0.65112443 </v>
   <v>       0.83888934       0.07244201       0.64986356 </v>
   <v>       0.81651201       0.59271688       0.65105038 </v>
   <v>       0.99438246       0.25568328       0.63566553 </v>
   <v>       0.03476621       0.78521097       0.63712725 </v>
   <v>       0.51512969       0.26870179       0.63348034 </v>
   <v>       0.49797166       0.74998028       0.63329317 </v>
   <v>       0.26443298       0.99728100       0.63238210 </v>
   <v>       0.24690394       0.50758402       0.63256646 </v>
   <v>       0.76016911       0.99367945       0.63256182 </v>
   <v>       0.73273365       0.51423083       0.63490201 </v>
   <v>       0.44874502       0.30128397       0.76888902 </v>
   <v>       0.44874501       0.80128391       0.76888902 </v>
   <v>       0.94874497       0.30128397       0.76888902 </v>
   <v>       0.94874501       0.80128391       0.76888902 </v>
   <v>       0.30127600       0.05129450       0.76887296 </v>
   <v>       0.30127601       0.55129450       0.76887296 </v>
   <v>       0.80127594       0.05129450       0.76887296 </v>
   <v>       0.80127598       0.55129450       0.76887296 </v>
   <v>       0.07877100       0.17118050       0.74344197 </v>
   <v>       0.07877101       0.67118045       0.74344197 </v>
   <v>       0.57877100       0.17118050       0.74344197 </v>
   <v>       0.57877099       0.67118045       0.74344197 </v>
   <v>       0.17119950       0.42117448       0.74342103 </v>
   <v>       0.17119950       0.92117451       0.74342103 </v>
   <v>       0.67119951       0.42117448       0.74342103 </v>
   <v>       0.67119950       0.92117451       0.74342103 </v>
   <v>       0.05125600       0.19871499       0.76888902 </v>
   <v>       0.05125600       0.69871493       0.76888902 </v>
   <v>       0.55125603       0.19871499       0.76888902 </v>
   <v>       0.55125602       0.69871493       0.76888902 </v>
   <v>       0.19872349       0.44870397       0.76887205 </v>
   <v>       0.19872349       0.94870397       0.76887205 </v>
   <v>       0.69872352       0.44870397       0.76887205 </v>
   <v>       0.69872351       0.94870397       0.76887205 </v>
   <v>       0.42123152       0.32881747       0.74344197 </v>
   <v>       0.42123151       0.82881744       0.74344197 </v>
   <v>       0.92123147       0.32881747       0.74344197 </v>
   <v>       0.92123151       0.82881744       0.74344197 </v>
   <v>       0.32880050       0.07882500       0.74342103 </v>
   <v>       0.32880049       0.57882496       0.74342103 </v>
   <v>       0.82880048       0.07882500       0.74342103 </v>
   <v>       0.82880052       0.57882496       0.74342103 </v>
   <v>       0.00000350       0.25000148       0.72582199 </v>
   <v>       0.00000350       0.75000145       0.72582199 </v>
   <v>       0.50000351       0.25000148       0.72582199 </v>
   <v>       0.50000350       0.75000145       0.72582199 </v>
   <v>       0.25000050       0.00000000       0.72580398 </v>
   <v>       0.25000052       0.50000000       0.72580398 </v>
   <v>       0.75000050       0.00000000       0.72580398 </v>
   <v>       0.75000049       0.50000000       0.72580398 </v>
   <v>       0.78483120       0.50839019       0.51906158 </v>
   <v>       0.87067683       0.50703112       0.53225190 </v>
   <v>       0.75368380       0.62853960       0.53923902 </v>
   <v>       0.76770579       0.62857286       0.56691857 </v>
   <v>       0.67903090       0.45524751       0.55862376 </v>
   <v>       0.67159515       0.55083442       0.56420440 </v>
   <v>       0.80127572       0.42854647       0.57130641 </v>
   <v>       0.86887944       0.50135310       0.57202866 </v>
   <v>       0.86180279       0.38127246       0.54255139 </v>
   <v>       0.76419755       0.37796162       0.53878995 </v>
   <v>       0.77518187       0.38230450       0.49987208 </v>
   <v>       0.86347926       0.42006528       0.50062842 </v>
   <v>       0.89184441       0.61233915       0.53315730 </v>
   <v>       0.90819868       0.61024424       0.56127053 </v>
   <v>       0.86791424       0.69057827       0.54889189 </v>
   <v>       0.59631528       0.52359698       0.53447665 </v>
   <v>       0.66604422       0.48290257       0.51902056 </v>
   <v>       0.66990028       0.58073941       0.52410635 </v>
   <v>       0.72615921       0.48156690       0.59707249 </v>
   <v>       0.75045207       0.57389160       0.59319909 </v>
   <v>       0.81482365       0.51336653       0.60583828 </v>
   <v>       0.83482102       0.26472119       0.51792274 </v>
   <v>       0.84425640       0.27817441       0.49028196 </v>
   <v>       0.93960728       0.17553165       0.50302297 </v>
   <v>       0.97441187       0.40928328       0.51423664 </v>
   <v>       0.07363512       0.15296053       0.50343919 </v>
   <v>       0.10697028       0.38628404       0.51576478 </v>
   <v>       0.15930138       0.26076756       0.51097610 </v>
   <v>       0.99654486       0.22689324       0.56084332 </v>
   <v>       0.02944078       0.77265615       0.56089685 </v>
   <v>       0.50936341       0.25813951       0.56059180 </v>
   <v>       0.50334501       0.77209423       0.55925462 </v>
   <v>       0.24001519       0.50602950       0.55710313 </v>
   <v>       0.26263521       0.98692434       0.55812830 </v>
   <v>       0.76839367       0.98645343       0.56130074 </v>
   <v>       0.00609690       0.24342494       0.65239092 </v>
   <v>       0.01506204       0.76424749       0.65290580 </v>
   <v>       0.50210353       0.25397619       0.65032416 </v>
   <v>       0.49028834       0.75682624       0.65066640 </v>
   <v>       0.24930782       0.50002181       0.65000702 </v>
   <v>       0.25562734       0.99694802       0.65005043 </v>
   <v>       0.74409666       0.50939826       0.65175652 </v>
   <v>       0.75247541       0.99945487       0.64995233 </v>
   <v>       0.49998898       0.24999498       0.74327702 </v>
   <v>       0.49998903       0.74999496       0.74327702 </v>
   <v>       0.99998898       0.24999498       0.74327702 </v>
   <v>       0.99998903       0.74999496       0.74327702 </v>
   <v>       0.25000050       0.00000100       0.74325596 </v>
   <v>       0.25000052       0.50000100       0.74325596 </v>
   <v>       0.75000050       0.00000100       0.74325596 </v>
   <v>       0.75000049       0.50000100       0.74325596 </v>
   <v>       0.94547918       0.29202634       0.50792105 </v>
   <v>       0.97605367       0.22248054       0.50542366 </v>
   <v>       0.99478559       0.35227060       0.51208155 </v>
   <v>       0.05234753       0.20937255       0.50614433 </v>
   <v>       0.07022157       0.33982867       0.51243855 </v>
   <v>       0.10025703       0.26909139       0.50957684 </v>
   <v>       0.81316233       0.48808377       0.53320589 </v>
   <v>       0.78906984       0.60550855       0.55195445 </v>
   <v>       0.69250735       0.51084618       0.55242678 </v>
   <v>       0.80898988       0.48878656       0.57270219 </v>
   <v>       0.81535073       0.40224468       0.53241618 </v>
   <v>       0.82826400       0.38093772       0.50860283 </v>
   <v>       0.86946794       0.62955342       0.54876259 </v>
   <v>       0.65590202       0.52610815       0.53100690 </v>
   <v>       0.77284600       0.51707652       0.59315605 </v>
   <v>       0.86139383       0.30198662       0.50588152 </v>
   <v>       0.05913396       0.22223569       0.57114030 </v>
   <v>       0.04278813       0.70824987       0.56953054 </v>
   <v>       0.54915360       0.20551226       0.56888728 </v>
   <v>       0.55471242       0.72990057       0.56777634 </v>
   <v>       0.44647519       0.28279622       0.56845385 </v>
   <v>       0.43310417       0.77391485       0.56588601 </v>
   <v>       0.93806390       0.26108849       0.56785516 </v>
   <v>       0.97734264       0.81861941       0.56673683 </v>
   <v>       0.23687673       0.44836068       0.56931162 </v>
   <v>       0.19399065       0.98732423       0.56468051 </v>
   <v>       0.70334816       0.96361598       0.56769955 </v>
   <v>       0.31668115       0.02565079       0.56632879 </v>
   <v>       0.27386039       0.56907486       0.56167570 </v>
   <v>       0.80463190       0.04268317       0.56918257 </v>
   <v>       0.05581516       0.19438970       0.65660838 </v>
   <v>       0.05052423       0.71108902       0.66169668 </v>
   <v>       0.54076354       0.20180217       0.65858271 </v>
   <v>       0.52763791       0.71352072       0.66359281 </v>
   <v>       0.21334800       0.44718002       0.65912170 </v>
   <v>       0.20370798       0.95404665       0.65752153 </v>
   <v>       0.70576781       0.45659437       0.66151909 </v>
   <v>       0.70132293       0.96224765       0.65955679 </v>
   <v>       0.45010156       0.29398104       0.65995225 </v>
   <v>       0.44340524       0.80960462       0.65647231 </v>
   <v>       0.96550098       0.28166648       0.66610466 </v>
   <v>       0.95802724       0.80026640       0.66062121 </v>
   <v>       0.29833569       0.03977964       0.66112668 </v>
   <v>       0.29115426       0.55052555       0.66002783 </v>
   <v>       0.80019329       0.04560640       0.65934147 </v>
   <v>       0.79200031       0.55461532       0.66042421 </v>
   <v>       0.04586250       0.20411950       0.75272599 </v>
   <v>       0.04586250       0.70411946       0.75272599 </v>
   <v>       0.54586251       0.20411950       0.75272599 </v>
   <v>       0.54586250       0.70411946       0.75272599 </v>
   <v>       0.20411900       0.45410100       0.75270499 </v>
   <v>       0.20411899       0.95410095       0.75270499 </v>
   <v>       0.70411898       0.45410100       0.75270499 </v>
   <v>       0.70411896       0.95410095       0.75270499 </v>
   <v>       0.45414002       0.29588849       0.75272697 </v>
   <v>       0.45414001       0.79588852       0.75272697 </v>
   <v>       0.95414002       0.29588849       0.75272697 </v>
[...]
   <v>       0.60012214       0.19472705       0.56320860 </v>
   <v>       0.60799983       0.74142642       0.56317075 </v>
   <v>       0.36928798       0.01994709       0.56082207 </v>
   <v>       0.27357059       0.61167728       0.55141461 </v>
   <v>       0.85335132       0.05882407       0.56292747 </v>
   <v>       0.07008573       0.24740935       0.58520585 </v>
   <v>       0.01243068       0.69096464       0.58230800 </v>
   <v>       0.53601936       0.17974459       0.58270755 </v>
   <v>       0.54665040       0.69898076       0.58123069 </v>
   <v>       0.26450751       0.44527027       0.58383913 </v>
   <v>       0.17600078       0.01916140       0.57764758 </v>
   <v>       0.67626354       0.98671113       0.58064733 </v>
   <v>       0.41923695       0.32486453       0.56094410 </v>
   <v>       0.39589622       0.80617198       0.55799698 </v>
   <v>       0.89038276       0.25850904       0.55906733 </v>
   <v>       0.97361356       0.86987531       0.55950449 </v>
   <v>       0.21089084       0.40216301       0.56482214 </v>
   <v>       0.15454954       0.95821106       0.55721704 </v>
   <v>       0.68243137       0.91633782       0.56157839 </v>
   <v>       0.52875515       0.28648889       0.54621319 </v>
   <v>       0.51930185       0.80810300       0.54595313 </v>
   <v>       0.99312636       0.20166179       0.54543807 </v>
   <v>       0.06487980       0.78864631       0.54712176 </v>
   <v>       0.21047692       0.50348423       0.54218584 </v>
   <v>       0.27420294       0.95245980       0.54451369 </v>
   <v>       0.79419651       0.95781001       0.54818154 </v>
   <v>       0.43648944       0.28604639       0.67518522 </v>
   <v>       0.43151467       0.82111631       0.67165882 </v>
   <v>       0.97104370       0.27499261       0.68207575 </v>
   <v>       0.93492123       0.78987512       0.67547580 </v>
   <v>       0.29842743       0.04743489       0.67699997 </v>
   <v>       0.29828156       0.55104477       0.67574142 </v>
   <v>       0.79940938       0.05611389       0.67482369 </v>
   <v>       0.80704021       0.55315023       0.67611289 </v>
   <v>       0.08347134       0.16844806       0.64419977 </v>
   <v>       0.09522007       0.68721057       0.65383640 </v>
   <v>       0.58024635       0.17415433       0.64959715 </v>
   <v>       0.56117321       0.67411199       0.65706123 </v>
   <v>       0.18254767       0.41102080       0.64942408 </v>
   <v>       0.17280861       0.92173406       0.64675057 </v>
   <v>       0.67158642       0.42510313       0.65329491 </v>
   <v>       0.66682314       0.92786560       0.65028485 </v>
   <v>       0.07096999       0.17956608       0.67174715 </v>
   <v>       0.03789802       0.68973615       0.67618597 </v>
   <v>       0.53491668       0.18385905       0.67393246 </v>
   <v>       0.52306865       0.71813440       0.67935628 </v>
   <v>       0.21187275       0.43681551       0.67475398 </v>
   <v>       0.18961040       0.94835102       0.67287836 </v>
   <v>       0.71088688       0.44641403       0.67765318 </v>
   <v>       0.69031559       0.96373305       0.67515237 </v>
   <v>       0.42347967       0.33449845       0.65126155 </v>
   <v>       0.41773809       0.83982360       0.64462954 </v>
   <v>       0.92801450       0.31856479       0.66002453 </v>
   <v>       0.93485746       0.84284964       0.65220888 </v>
   <v>       0.33876499       0.07224873       0.65314358 </v>
   <v>       0.31716379       0.59069119       0.65112443 </v>
   <v>       0.83888934       0.07244201       0.64986356 </v>
   <v>       0.81651201       0.59271688       0.65105038 </v>
   <v>       0.99438246       0.25568328       0.63566553 </v>
   <v>       0.03476621       0.78521097       0.63712725 </v>
   <v>       0.51512969       0.26870179       0.63348034 </v>
   <v>       0.49797166       0.74998028       0.63329317 </v>
   <v>       0.26443298       0.99728100       0.63238210 </v>
   <v>       0.24690394       0.50758402       0.63256646 </v>
   <v>       0.76016911       0.99367945       0.63256182 </v>
   <v>       0.73273365       0.51423083       0.63490201 </v>
   <v>       0.44874502       0.30128397       0.76888902 </v>
   <v>       0.44874501       0.80128391       0.76888902 </v>
   <v>       0.94874497       0.30128397       0.76888902 </v>
   <v>       0.94874501       0.80128391       0.76888902 </v>
   <v>       0.30127600       0.05129450       0.76887296 </v>
   <v>       0.30127601       0.55129450       0.76887296 </v>
   <v>       0.80127594       0.05129450       0.76887296 </v>
   <v>       0.80127598       0.55129450       0.76887296 </v>
   <v>       0.07877100       0.17118050       0.74344197 </v>
   <v>       0.07877101       0.67118045       0.74344197 </v>
   <v>       0.57877100       0.17118050       0.74344197 </v>
   <v>       0.57877099       0.67118045       0.74344197 </v>
   <v>       0.17119950       0.42117448       0.74342103 </v>
   <v>       0.17119950       0.92117451       0.74342103 </v>
   <v>       0.67119951       0.42117448       0.74342103 </v>
   <v>       0.67119950       0.92117451       0.74342103 </v>
   <v>       0.05125600       0.19871499       0.76888902 </v>
   <v>       0.05125600       0.69871493       0.76888902 </v>
   <v>       0.55125603       0.19871499       0.76888902 </v>
   <v>       0.55125602       0.69871493       0.76888902 </v>
   <v>       0.19872349       0.44870397       0.76887205 </v>
   <v>       0.19872349       0.94870397       0.76887205 </v>
   <v>       0.69872352       0.44870397       0.76887205 </v>
   <v>       0.69872351       0.94870397       0.76887205 </v>
   <v>       0.42123152       0.32881747       0.74344197 </v>
   <v>       0.42123151       0.82881744       0.74344197 </v>
   <v>       0.92123147       0.32881747       0.74344197 </v>
   <v>       0.92123151       0.82881744       0.74344197 </v>
   <v>       0.32880050       0.07882500       0.74342103 </v>
   <v>       0.32880049       0.57882496       0.74342103 </v>
   <v>       0.82880048       0.07882500       0.74342103 </v>
   <v>       0.82880052       0.57882496       0.74342103 </v>
   <v>       0.00000350       0.25000148       0.72582199 </v>
   <v>       0.00000350       0.75000145       0.72582199 </v>
   <v>       0.50000351       0.25000148       0.72582199 </v>
   <v>       0.50000350       0.75000145       0.72582199 </v>
   <v>       0.25000050       0.00000000       0.72580398 </v>
   <v>       0.25000052       0.50000000       0.72580398 </v>
   <v>       0.75000050       0.00000000       0.72580398 </v>
   <v>       0.75000049       0.50000000       0.72580398 </v>
   <v>       0.78483120       0.50839019       0.51906158 </v>
   <v>       0.87067683       0.50703112       0.53225190 </v>
   <v>       0.75368380       0.62853960       0.53923902 </v>
   <v>       0.76770579       0.62857286       0.56691857 </v>
   <v>       0.67903090       0.45524751       0.55862376 </v>
   <v>       0.67159515       0.55083442       0.56420440 </v>
   <v>       0.80127572       0.42854647       0.57130641 </v>
   <v>       0.86887944       0.50135310       0.57202866 </v>
   <v>       0.86180279       0.38127246       0.54255139 </v>
   <v>       0.76419755       0.37796162       0.53878995 </v>
   <v>       0.77518187       0.38230450       0.49987208 </v>
   <v>       0.86347926       0.42006528       0.50062842 </v>
   <v>       0.89184441       0.61233915       0.53315730 </v>
   <v>       0.90819868       0.61024424       0.56127053 </v>
   <v>       0.86791424       0.69057827       0.54889189 </v>
   <v>       0.59631528       0.52359698       0.53447665 </v>
   <v>       0.66604422       0.48290257       0.51902056 </v>
   <v>       0.66990028       0.58073941       0.52410635 </v>
   <v>       0.72615921       0.48156690       0.59707249 </v>
   <v>       0.75045207       0.57389160       0.59319909 </v>
   <v>       0.81482365       0.51336653       0.60583828 </v>
   <v>       0.83482102       0.26472119       0.51792274 </v>
   <v>       0.84425640       0.27817441       0.49028196 </v>
   <v>       0.93960728       0.17553165       0.50302297 </v>
   <v>       0.97441187       0.40928328       0.51423664 </v>
   <v>       0.07363512       0.15296053       0.50343919 </v>
   <v>       0.10697028       0.38628404       0.51576478 </v>
   <v>       0.15930138       0.26076756       0.51097610 </v>
   <v>       0.99654486       0.22689324       0.56084332 </v>
   <v>       0.02944078       0.77265615       0.56089685 </v>
   <v>       0.50936341       0.25813951       0.56059180 </v>
   <v>       0.50334501       0.77209423       0.55925462 </v>
   <v>       0.24001519       0.50602950       0.55710313 </v>
   <v>       0.26263521       0.98692434       0.55812830 </v>
   <v>       0.76839367       0.98645343       0.56130074 </v>
   <v>       0.00609690       0.24342494       0.65239092 </v>
   <v>       0.01506204       0.76424749       0.65290580 </v>
   <v>       0.50210353       0.25397619       0.65032416 </v>
   <v>       0.49028834       0.75682624       0.65066640 </v>
   <v>       0.24930782       0.50002181       0.65000702 </v>
   <v>       0.25562734       0.99694802       0.65005043 </v>
   <v>       0.74409666       0.50939826       0.65175652 </v>
   <v>       0.75247541       0.99945487       0.64995233 </v>
   <v>       0.49998898       0.24999498       0.74327702 </v>
   <v>       0.49998903       0.74999496       0.74327702 </v>
   <v>       0.99998898       0.24999498       0.74327702 </v>
   <v>       0.99998903       0.74999496       0.74327702 </v>
   <v>       0.25000050       0.00000100       0.74325596 </v>
   <v>       0.25000052       0.50000100       0.74325596 </v>
   <v>       0.75000050       0.00000100       0.74325596 </v>
   <v>       0.75000049       0.50000100       0.74325596 </v>
   <v>       0.94547918       0.29202634       0.50792105 </v>
   <v>       0.97605367       0.22248054       0.50542366 </v>
   <v>       0.99478559       0.35227060       0.51208155 </v>
   <v>       0.05234753       0.20937255       0.50614433 </v>
   <v>       0.07022157       0.33982867       0.51243855 </v>
   <v>       0.10025703       0.26909139       0.50957684 </v>
   <v>       0.81316233       0.48808377       0.53320589 </v>
   <v>       0.78906984       0.60550855       0.55195445 </v>
   <v>       0.69250735       0.51084618       0.55242678 </v>
   <v>       0.80898988       0.48878656       0.57270219 </v>
   <v>       0.81535073       0.40224468       0.53241618 </v>
   <v>       0.82826400       0.38093772       0.50860283 </v>
   <v>       0.86946794       0.62955342       0.54876259 </v>
   <v>       0.65590202       0.52610815       0.53100690 </v>
   <v>       0.77284600       0.51707652       0.59315605 </v>
   <v>       0.86139383       0.30198662       0.50588152 </v>
   <v>       0.05913396       0.22223569       0.57114030 </v>
   <v>       0.04278813       0.70824987       0.56953054 </v>
   <v>       0.54915360       0.20551226       0.56888728 </v>
   <v>       0.55471242       0.72990057       0.56777634 </v>
   <v>       0.44647519       0.28279622       0.56845385 </v>
   <v>       0.43310417       0.77391485       0.56588601 </v>
   <v>       0.93806390       0.26108849       0.56785516 </v>
   <v>       0.97734264       0.81861941       0.56673683 </v>
   <v>       0.23687673       0.44836068       0.56931162 </v>
   <v>       0.19399065       0.98732423       0.56468051 </v>
   <v>       0.70334816       0.96361598       0.56769955 </v>
   <v>       0.31668115       0.02565079       0.56632879 </v>
   <v>       0.27386039       0.56907486       0.56167570 </v>
   <v>       0.80463190       0.04268317       0.56918257 </v>
   <v>       0.05581516       0.19438970       0.65660838 </v>
   <v>       0.05052423       0.71108902       0.66169668 </v>
   <v>       0.54076354       0.20180217       0.65858271 </v>
   <v>       0.52763791       0.71352072       0.66359281 </v>
   <v>       0.21334800       0.44718002       0.65912170 </v>
   <v>       0.20370798       0.95404665       0.65752153 </v>
   <v>       0.70576781       0.45659437       0.66151909 </v>
   <v>       0.70132293       0.96224765       0.65955679 </v>
   <v>       0.45010156       0.29398104       0.65995225 </v>
   <v>       0.44340524       0.80960462       0.65647231 </v>
   <v>       0.96550098       0.28166648       0.66610466 </v>
   <v>       0.95802724       0.80026640       0.66062121 </v>
   <v>       0.29833569       0.03977964       0.66112668 </v>
   <v>       0.29115426       0.55052555       0.66002783 </v>
   <v>       0.80019329       0.04560640       0.65934147 </v>
   <v>       0.79200031       0.55461532       0.66042421 </v>
   <v>       0.04586250       0.20411950       0.75272599 </v>
   <v>       0.04586250       0.70411946       0.75272599 </v>
   <v>       0.54586251       0.20411950       0.75272599 </v>
   <v>       0.54586250       0.70411946       0.75272599 </v>
   <v>       0.20411900       0.45410100       0.75270499 </v>
   <v>       0.20411899       0.95410095       0.75270499 </v>
   <v>       0.70411898       0.45410100       0.75270499 </v>
   <v>       0.70411896       0.95410095       0.75270499 </v>
   <v>       0.45414002       0.29588849       0.75272697 </v>
   <v>       0.45414001       0.79588852       0.75272697 </v>
   <v>       0.95414002       0.29588849       0.75272697 </v>
   <v>       0.95414006       0.79588852       0.75272697 </v>
   <v>       0.29588249       0.04590050       0.75270499 </v>
   <v>       0.29588248       0.54590053       0.75270499 </v>
   <v>       0.79588244       0.04590050       0.75270499 </v>
   <v>       0.79588248       0.54590053       0.75270499 </v>
   <v>       0.77582492       0.52137531       0.55233050 </v>
   <v>       0.50703702       0.99222349       0.55309299 </v>
   <v>       0.45801802       0.47700692       0.55494590 </v>
   <v>       0.99271517       0.01057765       0.55124722 </v>
   <v>       0.03420844       0.49072461       0.55828708 </v>
   <v>       0.24631406       0.24627879       0.55516322 </v>
   <v>       0.24116129       0.76954880       0.55153860 </v>
   <v>       0.74239229       0.22680856       0.55473974 </v>
   <v>       0.71589746       0.78785482       0.54472901 </v>
   <v>       0.00255696       0.99671027       0.65396387 </v>
   <v>       0.99896018       0.50616630       0.65666583 </v>
   <v>       0.49522400       0.00048677       0.65532260 </v>
   <v>       0.49452922       0.49764707       0.65523176 </v>
   <v>       0.25465578       0.24048013       0.65573534 </v>
   <v>       0.25400434       0.75290332       0.65396497 </v>
   <v>       0.74440684       0.24807610       0.65530343 </v>
   <v>       0.75744801       0.75652292       0.65382865 </v>
   <v>       0.15000888       0.10497560       0.60958250 </v>
   <v>       0.15202918       0.60742933       0.60887160 </v>
   <v>       0.64574621       0.10713702       0.61031659 </v>
   <v>       0.61047148       0.64008735       0.61504172 </v>
   <v>       0.36290321       0.38860928       0.61282454 </v>
   <v>       0.36198355       0.89141920       0.60876501 </v>
   <v>       0.88913706       0.36259142       0.61606225 </v>
   <v>       0.86106498       0.89240388       0.60808061 </v>
   <v>       0.11715321       0.35861792       0.61139988 </v>
   <v>       0.11373573       0.86996385       0.60812829 </v>
   <v>       0.61700524       0.36944731       0.60694110 </v>
   <v>       0.61707992       0.86624769       0.61199069 </v>
   <v>       0.39822706       0.14214275       0.60915260 </v>
   <v>       0.38512410       0.64073444       0.60742044 </v>
   <v>       0.88549822       0.13673937       0.61331853 </v>
   <v>       0.91481281       0.66515185       0.61447092 </v>
   <v>       0.00000000       0.00000000       0.75492797 </v>
   <v>       0.00000000       0.50000000       0.75492797 </v>
   <v>       0.50000000       0.00000000       0.75492797 </v>
   <v>       0.49999999       0.50000000       0.75492797 </v>
   <v>       0.25000050       0.25000000       0.75493902 </v>
   <v>       0.25000051       0.74999997       0.75493902 </v>
   <v>       0.75000047       0.25000000       0.75493902 </v>
   <v>       0.75000046       0.74999997       0.75493902 </v>
   <v>       0.13579050       0.11421000       0.70478299 </v>
   <v>       0.13579050       0.61420998       0.70478299 </v>
   <v>       0.63579045       0.11421000       0.70478299 </v>
   <v>       0.63579049       0.61420998       0.70478299 </v>
   <v>       0.36420952       0.38578999       0.70478299 </v>
   <v>       0.36420950       0.88578996       0.70478299 </v>
   <v>       0.86420954       0.38578999       0.70478299 </v>
   <v>       0.86420953       0.88578996       0.70478299 </v>
   <v>       0.11421799       0.36421899       0.70478098 </v>
   <v>       0.11421799       0.86421899       0.70478098 </v>
   <v>       0.61421800       0.36421899       0.70478098 </v>
   <v>       0.61421799       0.86421899       0.70478098 </v>
   <v>       0.38578201       0.13578149       0.70478202 </v>
   <v>       0.38578200       0.63578149       0.70478202 </v>
   <v>       0.88578199       0.13578149       0.70478202 </v>
   <v>       0.88578203       0.63578149       0.70478202 </v>
   <v>       0.13466700       0.11533200       0.80125603 </v>
   <v>       0.13466699       0.61533199       0.80125603 </v>
   <v>       0.63466699       0.11533200       0.80125603 </v>
   <v>       0.63466698       0.61533199       0.80125603 </v>
   <v>       0.36533300       0.38466799       0.80125603 </v>
   <v>       0.36533299       0.88466796       0.80125603 </v>
   <v>       0.86533295       0.38466799       0.80125603 </v>
   <v>       0.86533294       0.88466796       0.80125603 </v>
   <v>       0.11532850       0.36533700       0.80126500 </v>
   <v>       0.11532850       0.86533698       0.80126500 </v>
   <v>       0.61532850       0.36533700       0.80126500 </v>
   <v>       0.61532849       0.86533698       0.80126500 </v>
   <v>       0.38467151       0.13466300       0.80126500 </v>
   <v>       0.38467150       0.63466297       0.80126500 </v>
   <v>       0.88467149       0.13466300       0.80126500 </v>
   <v>       0.88467153       0.63466297       0.80126500 </v>
   <v>       0.99535231       0.00445703       0.60364344 </v>
   <v>       0.00906419       0.50528421       0.60694262 </v>
   <v>       0.50039636       0.99521942       0.60278359 </v>
   <v>       0.49530566       0.50063394       0.60322569 </v>
   <v>       0.25157144       0.24973910       0.60509496 </v>
   <v>       0.24410274       0.75595265       0.60316172 </v>
   <v>       0.75205265       0.25221589       0.60518886 </v>
   <v>       0.75066587       0.75479200       0.60470676 </v>
   <v>       0.00000050       0.00000050       0.70482896 </v>
   <v>       0.00000050       0.50000048       0.70482896 </v>
   <v>       0.50000048       0.00000050       0.70482896 </v>
   <v>       0.50000046       0.50000048       0.70482896 </v>
   <v>       0.24999999       0.24999947       0.70482499 </v>
   <v>       0.25000001       0.74999950       0.70482499 </v>
   <v>       0.74999999       0.24999947       0.70482499 </v>
   <v>       0.74999998       0.74999950       0.70482499 </v>
   <v>       0.00000000       0.00000000       0.80731797 </v>
   <v>       0.00000000       0.50000000       0.80731797 </v>
   <v>       0.50000000       0.00000000       0.80731797 </v>
   <v>       0.49999999       0.50000000       0.80731797 </v>
   <v>       0.24999999       0.25000000       0.80731797 </v>
   <v>       0.25000001       0.74999997       0.80731797 </v>
   <v>       0.74999999       0.25000000       0.80731797 </v>
   <v>       0.74999998       0.74999997       0.80731797 </v>
  </varray>
 </structure>
</modeling>
