 vasp.6.2.1 16May21 (build Nov 15 2021 14:57:28) complex                         
 executed on             LinuxPGI date 2023.07.30  22:16:39
 running on    4 total cores
 distrk:  each k-point on    4 cores,    1 groups
 distr:  one band on NCORE=   1 cores,    4 groups


--------------------------------------------------------------------------------------------------------


 INCAR:
   SYSTEM = PSC
   ISTART = 1
   ICHARG = 1
   PREC = Normal
   ENCUT = 500
   GGA_COMPAT = F
   NELM = 600
   ISYM = 0
   LREAL = Auto
   ISMEAR = 0
   SIGMA = 0.05
   AMIN = 0.01
   BMIX = 0.01
   LVTOT = T
   LWAVE = F
   LDIPOL = T
   IDIPOL = 3
   LVDW = T
   IVDW = 12

 POTCAR:    PAW_PBE H 15Jun2001                   
 POTCAR:    PAW_PBE C 08Apr2002                   
 POTCAR:    PAW_PBE N 08Apr2002                   
 POTCAR:    PAW_PBE I 08Apr2002                   
 POTCAR:    PAW_PBE Pb 08Apr2002                  
 WARNING: For LVTOT=.TRUE., VASP.5.x writes the TOTAL local potential to the
     file LOCPOT. If you want only the Hartree contributions, use LVHAR=.TRUE.
     instead. 

 POTCAR:    PAW_PBE H 15Jun2001                   
   SHA256 =  030f79b5d3ab3cf0e668861823c8fb652ff669f3e15e46930bd03bfd63a607b6 H/POTCAR              
   COPYR  = (c) Copyright 15Jun2001 Georg Kresse                                                    
   COPYR  = This file is part of the software VASP. Any use, copying, and all other rights are regul
   COPYR  = If you do not have a valid VASP license, you may not use, copy or distribute this file. 
   VRHFIN =H: ultrasoft test                                                                        
   LEXCH  = PE                                                                                      
   EATOM  =    12.4884 eV,    0.9179 Ry                                                             
                                                                                                    
   TITEL  = PAW_PBE H 15Jun2001                                                                     
   LULTRA =        F    use ultrasoft PP ?                                                          
   IUNSCR =        0    unscreen: 0-lin 1-nonlin 2-no                                               
   RPACOR =    0.000    partial core radius                                                         
   POMASS =    1.000; ZVAL   =    1.000    mass and valenz                                          
   RCORE  =    1.100    outmost cutoff radius                                                       
   RWIGS  =    0.700; RWIGS  =    0.370    wigner-seitz radius (au A)                               
   ENMAX  =  250.000; ENMIN  =  200.000 eV                                                          
   RCLOC  =    0.701    cutoff for local pot                                                        
   LCOR   =        T    correct aug charges                                                         
   LPAW   =        T    paw PP                                                                      
   EAUG   =  400.000                                                                                
   RMAX   =    1.123    core radius for proj-oper                                                   
   RAUG   =    1.200    factor for augmentation sphere                                              
   RDEP   =    1.112    radius for radial grids                                                     
   RDEPT  =    0.926    core radius for aug-charge                                                  
                                                                                                    
   Atomic configuration                                                                             
    2 entries                                                                                       
     n  l   j            E        occ.                                                              
     1  0  0.50        -6.4927   1.0000                                                             
     2  1  0.50        -3.4015   0.0000                                                             
   Description                                                                                      
     l       E           TYP  RCUT    TYP  RCUT                                                     
     0     -6.4927494     23  1.100                                                                 
     0      6.8029130     23  1.100                                                                 
     1     -4.0817478     23  1.100                                                                 
  local pseudopotential read in
  atomic valenz-charges read in
  non local Contribution for L=            0  read in
    real space projection operators read in
  non local Contribution for L=            0  read in
    real space projection operators read in
  non local Contribution for L=            1  read in
    real space projection operators read in
    PAW grid and wavefunctions read in
 
   number of l-projection  operators is LMAX  =            3
   number of lm-projection operators is LMMAX =            5
 
 POTCAR:    PAW_PBE C 08Apr2002                   
   SHA256 =  253f7b50bb8d59471dbedb8285d89021f4a42ed1a2c5d38a03a736e69125dd95 C/POTCAR              
   COPYR  = (c) Copyright 08Apr2002 Georg Kresse                                                    
   COPYR  = This file is part of the software VASP. Any use, copying, and all other rights are regul
   COPYR  = If you do not have a valid VASP license, you may not use, copy or distribute this file. 
   VRHFIN =C: s2p2                                                                                  
   LEXCH  = PE                                                                                      
   EATOM  =   147.1560 eV,   10.8157 Ry                                                             
                                                                                                    
   TITEL  = PAW_PBE C 08Apr2002                                                                     
   LULTRA =        F    use ultrasoft PP ?                                                          
   IUNSCR =        1    unscreen: 0-lin 1-nonlin 2-no                                               
   RPACOR =    1.200    partial core radius                                                         
   POMASS =   12.011; ZVAL   =    4.000    mass and valenz                                          
   RCORE  =    1.500    outmost cutoff radius                                                       
   RWIGS  =    1.630; RWIGS  =    0.863    wigner-seitz radius (au A)                               
   ENMAX  =  400.000; ENMIN  =  300.000 eV                                                          
   ICORE  =        2    local potential                                                             
   LCOR   =        T    correct aug charges                                                         
   LPAW   =        T    paw PP                                                                      
   EAUG   =  644.873                                                                                
   DEXC   =    0.000                                                                                
   RMAX   =    1.529    core radius for proj-oper                                                   
   RAUG   =    1.300    factor for augmentation sphere                                              
   RDEP   =    1.501    radius for radial grids                                                     
   RDEPT  =    1.300    core radius for aug-charge                                                  
                                                                                                    
   Atomic configuration                                                                             
    4 entries                                                                                       
     n  l   j            E        occ.                                                              
     1  0  0.50      -273.3789   2.0000                                                             
     2  0  0.50       -13.7508   2.0000                                                             
     2  1  0.50        -5.2854   2.0000                                                             
     3  2  1.50        -5.4423   0.0000                                                             
   Description                                                                                      
     l       E           TYP  RCUT    TYP  RCUT                                                     
     0    -13.7508458     23  1.200                                                                 
     0     -8.2022199     23  1.200                                                                 
     1     -5.2854383     23  1.500                                                                 
     1     34.0145650     23  1.500                                                                 
     2     -5.4423304      7  1.500                                                                 
  local pseudopotential read in
  partial core-charges read in
  partial kinetic energy density read in
  atomic valenz-charges read in
  non local Contribution for L=            0  read in
    real space projection operators read in
  non local Contribution for L=            0  read in
    real space projection operators read in
  non local Contribution for L=            1  read in
    real space projection operators read in
  non local Contribution for L=            1  read in
    real space projection operators read in
    PAW grid and wavefunctions read in
 
   number of l-projection  operators is LMAX  =            4
   number of lm-projection operators is LMMAX =            8
 
 POTCAR:    PAW_PBE N 08Apr2002                   
   SHA256 =  e053789ff3a61a86a1b75d8a110fcc91f86041011e7b0817c7c99e4e8a6349d7 N/POTCAR              
   COPYR  = (c) Copyright 08Apr2002 Georg Kresse                                                    
   COPYR  = This file is part of the software VASP. Any use, copying, and all other rights are regul
   COPYR  = If you do not have a valid VASP license, you may not use, copy or distribute this file. 
   VRHFIN =N: s2p3                                                                                  
   LEXCH  = PE                                                                                      
   EATOM  =   264.5486 eV,   19.4438 Ry                                                             
                                                                                                    
   TITEL  = PAW_PBE N 08Apr2002                                                                     
   LULTRA =        F    use ultrasoft PP ?                                                          
   IUNSCR =        1    unscreen: 0-lin 1-nonlin 2-no                                               
   RPACOR =    1.200    partial core radius                                                         
   POMASS =   14.001; ZVAL   =    5.000    mass and valenz                                          
   RCORE  =    1.500    outmost cutoff radius                                                       
   RWIGS  =    1.400; RWIGS  =    0.741    wigner-seitz radius (au A)                               
   ENMAX  =  400.000; ENMIN  =  300.000 eV                                                          
   ICORE  =        2    local potential                                                             
   LCOR   =        T    correct aug charges                                                         
   LPAW   =        T    paw PP                                                                      
   EAUG   =  627.112                                                                                
   DEXC   =    0.000                                                                                
   RMAX   =    1.529    core radius for proj-oper                                                   
   RAUG   =    1.300    factor for augmentation sphere                                              
   RDEP   =    1.514    radius for radial grids                                                     
   RDEPT  =    1.338    core radius for aug-charge                                                  
                                                                                                    
   Atomic configuration                                                                             
    4 entries                                                                                       
     n  l   j            E        occ.                                                              
     1  0  0.50      -384.7179   2.0000                                                             
     2  0  0.50       -18.5828   2.0000                                                             
     2  1  0.50        -7.0898   3.0000                                                             
     3  2  1.50        -6.8029   0.0000                                                             
   Description                                                                                      
     l       E           TYP  RCUT    TYP  RCUT                                                     
     0    -18.5828119     23  1.200                                                                 
     0    -13.5018863     23  1.200                                                                 
     1     -7.0897853     23  1.500                                                                 
     1      9.5240782     23  1.500                                                                 
     2     -6.8029130      7  1.500                                                                 
  local pseudopotential read in
  partial core-charges read in
  partial kinetic energy density read in
  atomic valenz-charges read in
  non local Contribution for L=            0  read in
    real space projection operators read in
  non local Contribution for L=            0  read in
    real space projection operators read in
  non local Contribution for L=            1  read in
    real space projection operators read in
  non local Contribution for L=            1  read in
    real space projection operators read in
    PAW grid and wavefunctions read in
 
   number of l-projection  operators is LMAX  =            4
   number of lm-projection operators is LMMAX =            8
 
 POTCAR:    PAW_PBE I 08Apr2002                   
   SHA256 =  e40f3f59b681c1fc3e3091736183c4589116986673d2b852a5012aec72758799 I/POTCAR              
   COPYR  = (c) Copyright 08Apr2002 Georg Kresse                                                    
   COPYR  = This file is part of the software VASP. Any use, copying, and all other rights are regul
   COPYR  = If you do not have a valid VASP license, you may not use, copy or distribute this file. 
   VRHFIN =I : s2p5                                                                                 
   LEXCH  = PE                                                                                      
   EATOM  =   315.8678 eV,   23.2156 Ry                                                             
                                                                                                    
   TITEL  = PAW_PBE I 08Apr2002                                                                     
   LULTRA =        F    use ultrasoft PP ?                                                          
   IUNSCR =        1    unscreen: 0-lin 1-nonlin 2-no                                               
   RPACOR =    2.200    partial core radius                                                         
   POMASS =  126.904; ZVAL   =    7.000    mass and valenz                                          
   RCORE  =    2.300    outmost cutoff radius                                                       
   RWIGS  =    2.810; RWIGS  =    1.487    wigner-seitz radius (au A)                               
   ENMAX  =  175.647; ENMIN  =  131.735 eV                                                          
   ICORE  =        3    local potential                                                             
   LCOR   =        T    correct aug charges                                                         
   LPAW   =        T    paw PP                                                                      
   EAUG   =  370.139                                                                                
   DEXC   =    0.000                                                                                
   RMAX   =    2.359    core radius for proj-oper                                                   
   RAUG   =    1.300    factor for augmentation sphere                                              
   RDEP   =    2.392    radius for radial grids                                                     
   RDEPT  =    2.170    core radius for aug-charge                                                  
                                                                                                    
   Atomic configuration                                                                             
   13 entries                                                                                       
     n  l   j            E        occ.                                                              
     1  0  0.50    -32976.3739   2.0000                                                             
     2  0  0.50     -5094.5933   2.0000                                                             
     2  1  1.50     -4572.0131   6.0000                                                             
     3  0  0.50     -1028.2813   2.0000                                                             
     3  1  1.50      -859.0250   6.0000                                                             
     3  2  2.50      -605.7620  10.0000                                                             
     4  0  0.50      -180.5540   2.0000                                                             
     4  1  1.50      -127.5306   6.0000                                                             
     4  2  2.50       -50.2720  10.0000                                                             
     5  0  0.50       -17.4058   2.0000                                                             
     5  1  0.50        -7.0851   5.0000                                                             
     5  2  1.50        -7.0750   0.0000                                                             
     4  3  2.50        -7.0750   0.0000                                                             
   Description                                                                                      
     l       E           TYP  RCUT    TYP  RCUT                                                     
     0    -17.4058016     23  2.300                                                                 
     0    -18.7663842     23  2.300                                                                 
     1     -7.0850686     23  2.300                                                                 
     1     -4.2150896     23  2.300                                                                 
     2     -7.0750295     23  2.300                                                                 
     3     -1.3605826     23  2.300                                                                 
  local pseudopotential read in
  partial core-charges read in
  partial kinetic energy density read in
  atomic valenz-charges read in
  non local Contribution for L=            0  read in
    real space projection operators read in
  non local Contribution for L=            0  read in
    real space projection operators read in
  non local Contribution for L=            1  read in
    real space projection operators read in
  non local Contribution for L=            1  read in
    real space projection operators read in
  non local Contribution for L=            2  read in
    real space projection operators read in
    PAW grid and wavefunctions read in
 
   number of l-projection  operators is LMAX  =            5
   number of lm-projection operators is LMMAX =           13
 
 POTCAR:    PAW_PBE Pb 08Apr2002                  
   SHA256 =  797118a27cf1bcd06b9881c67a26cdde129e3cd1a551dd4a281f9681ce847303 Pb/POTCAR             
   COPYR  = (c) Copyright 08Apr2002 Georg Kresse                                                    
   COPYR  = This file is part of the software VASP. Any use, copying, and all other rights are regul
   COPYR  = If you do not have a valid VASP license, you may not use, copy or distribute this file. 
   VRHFIN =Pb:                                                                                      
   LEXCH  = PE                                                                                      
   EATOM  =    96.9868 eV,    7.1283 Ry                                                             
                                                                                                    
   TITEL  = PAW_PBE Pb 08Apr2002                                                                    
   LULTRA =        F    use ultrasoft PP ?                                                          
   IUNSCR =        1    unscreen: 0-lin 1-nonlin 2-no                                               
   RPACOR =    2.200    partial core radius                                                         
   POMASS =  207.200; ZVAL   =    4.000    mass and valenz                                          
   RCORE  =    3.100    outmost cutoff radius                                                       
   RWIGS  =    3.260; RWIGS  =    1.725    wigner-seitz radius (au A)                               
   ENMAX  =   97.973; ENMIN  =   73.480 eV                                                          
   ICORE  =        3    local potential                                                             
   LCOR   =        T    correct aug charges                                                         
   LPAW   =        T    paw PP                                                                      
   EAUG   =  234.873                                                                                
   DEXC   =    0.000                                                                                
   RMAX   =    3.158    core radius for proj-oper                                                   
   RAUG   =    1.300    factor for augmentation sphere                                              
   RDEP   =    3.202    radius for radial grids                                                     
   RDEPT  =    2.659    core radius for aug-charge                                                  
                                                                                                    
   Atomic configuration                                                                             
   17 entries                                                                                       
     n  l   j            E        occ.                                                              
     1  0  0.50    -88091.8466   2.0000                                                             
     2  0  0.50    -15753.4197   2.0000                                                             
     2  1  1.50    -13508.1797   6.0000                                                             
     3  0  0.50     -3781.7194   2.0000                                                             
     3  1  1.50     -3138.2529   6.0000                                                             
     3  2  2.50     -2483.2977  10.0000                                                             
     4  0  0.50      -856.2895   2.0000                                                             
     4  1  1.50      -645.4943   6.0000                                                             
     4  2  2.50      -401.8768  10.0000                                                             
     4  3  3.50      -132.9059  14.0000                                                             
     5  0  0.50      -144.0950   2.0000                                                             
     5  1  1.50       -85.7879   6.0000                                                             
     5  2  2.50       -21.1769  10.0000                                                             
     6  0  0.50       -12.0372   2.0000                                                             
     6  1  1.50        -3.4971   2.0000                                                             
     6  2  2.50        -1.3606   0.0000                                                             
     5  3  2.50        -2.7212   0.0000                                                             
   Description                                                                                      
     l       E           TYP  RCUT    TYP  RCUT                                                     
     0    -12.0371566     23  3.100                                                                 
     0    -13.3977392     23  3.100                                                                 
     1     -3.4971341     23  3.100                                                                 
     1     -5.4423304     23  3.100                                                                 
     2     -1.3605826     23  3.100                                                                 
     3     -1.3605826     23  3.100                                                                 
  local pseudopotential read in
  partial core-charges read in
  partial kinetic energy density read in
  atomic valenz-charges read in
  non local Contribution for L=            0  read in
    real space projection operators read in
  non local Contribution for L=            0  read in
    real space projection operators read in
  non local Contribution for L=            1  read in
    real space projection operators read in
  non local Contribution for L=            1  read in
    real space projection operators read in
  non local Contribution for L=            2  read in
    real space projection operators read in
    PAW grid and wavefunctions read in
 
   number of l-projection  operators is LMAX  =            5
   number of lm-projection operators is LMMAX =           13
 
 Optimization of the real space projectors (new method)

 maximal supplied QI-value         = 34.20
 optimisation between [QCUT,QGAM] = [ 11.29, 22.57] = [ 35.68,142.71] Ry 
 Optimized for a Real-space Cutoff    1.16 Angstroem

   l    n(q)    QCUT    max X(q) W(low)/X(q) W(high)/X(q)  e(spline) 
   0      8    11.287    19.460    0.40E-03    0.73E-03    0.16E-06
   0      8    11.287    12.209    0.38E-03    0.70E-03    0.15E-06
   1      7    11.287     4.655    0.22E-03    0.25E-04    0.22E-06
 Optimization of the real space projectors (new method)

 maximal supplied QI-value         = 25.13
 optimisation between [QCUT,QGAM] = [ 11.31, 22.87] = [ 35.82,146.48] Ry 
 Optimized for a Real-space Cutoff    1.00 Angstroem

   l    n(q)    QCUT    max X(q) W(low)/X(q) W(high)/X(q)  e(spline) 
   0      7    11.310   115.676    0.43E-03    0.13E-02    0.19E-06
   0      7    11.310    87.132    0.43E-03    0.13E-02    0.18E-06
   1      6    11.310     4.429    0.42E-03    0.74E-03    0.11E-06
   1      6    11.310     2.733    0.34E-03    0.55E-03    0.92E-07
 Optimization of the real space projectors (new method)

 maximal supplied QI-value         = 25.13
 optimisation between [QCUT,QGAM] = [ 11.31, 22.87] = [ 35.82,146.48] Ry 
 Optimized for a Real-space Cutoff    1.27 Angstroem

   l    n(q)    QCUT    max X(q) W(low)/X(q) W(high)/X(q)  e(spline) 
   0      9    11.310    79.467    0.75E-04    0.16E-03    0.36E-06
   0      9    11.310    66.151    0.74E-04    0.16E-03    0.36E-06
   1      8    11.310    17.416    0.35E-03    0.12E-03    0.95E-06
   1      8    11.310    12.382    0.37E-03    0.13E-03    0.98E-06
 Optimization of the real space projectors (new method)

 maximal supplied QI-value         = 16.25
 optimisation between [QCUT,QGAM] = [ 11.38, 22.75] = [ 36.24,144.96] Ry 
 Optimized for a Real-space Cutoff    1.31 Angstroem

   l    n(q)    QCUT    max X(q) W(low)/X(q) W(high)/X(q)  e(spline) 
   0      9    11.376   194.483    0.24E-03    0.23E-03    0.67E-07
   0      9    11.376   190.334    0.23E-03    0.22E-03    0.65E-07
   1      8    11.376   116.687    0.25E-03    0.63E-04    0.16E-06
   1      8    11.376    88.696    0.25E-03    0.61E-04    0.16E-06
   2      8    11.376     4.877    0.17E-03    0.14E-03    0.29E-07
 Optimization of the real space projectors (new method)

 maximal supplied QI-value         = 12.09
 optimisation between [QCUT,QGAM] = [ 11.37, 22.86] = [ 36.19,146.31] Ry 
 Optimized for a Real-space Cutoff    1.66 Angstroem

   l    n(q)    QCUT    max X(q) W(low)/X(q) W(high)/X(q)  e(spline) 
   0     11    11.369   135.111    0.12E-03    0.69E-04    0.19E-05
   0     11    11.369   146.850    0.11E-03    0.65E-04    0.18E-05
   1     11    11.369   148.016    0.17E-03    0.32E-03    0.89E-06
   1     11    11.369   122.989    0.17E-03    0.32E-03    0.91E-06
   2     10    11.369     8.916    0.12E-03    0.45E-04    0.33E-06
  PAW_PBE H 15Jun2001                   :
 energy of atom  1       EATOM=  -12.4884
 kinetic energy error for atom=    0.0020 (will be added to EATOM!!)
  PAW_PBE C 08Apr2002                   :
 energy of atom  2       EATOM= -147.1560
 kinetic energy error for atom=    0.0076 (will be added to EATOM!!)
  PAW_PBE N 08Apr2002                   :
 energy of atom  3       EATOM= -264.5486
 kinetic energy error for atom=    0.0138 (will be added to EATOM!!)
  PAW_PBE I 08Apr2002                   :
 energy of atom  4       EATOM= -315.8678
 kinetic energy error for atom=    0.0009 (will be added to EATOM!!)
  PAW_PBE Pb 08Apr2002                  :
 energy of atom  5       EATOM=  -96.9868
 kinetic energy error for atom=    0.0000 (will be added to EATOM!!)
 
 
 POSCAR:  H  C  N  I Pb
  positions in cartesian coordinates
  No initial velocities read in
 exchange correlation table for  LEXCH =        8
   RHO(1)=    0.500       N(1)  =     2000
   RHO(2)=  100.500       N(2)  =     4000
 


--------------------------------------------------------------------------------------------------------


 ion  position               nearest neighbor table
   1  0.466  0.339  0.563- 187 1.02
   2  0.438  0.823  0.575- 188 1.03
   3  0.924  0.281  0.577- 189 1.03
   4  0.935  0.818  0.573- 190 1.03
   5  0.322  0.078  0.571- 194 1.03
   6  0.348  0.543  0.556- 195 1.02
   7  0.807  0.092  0.566- 196 1.02
   8  0.109  0.251  0.556- 183 1.03
   9  0.075  0.675  0.577- 184 1.02
  10  0.551  0.156  0.561- 185 1.02
  11  0.504  0.644  0.557- 186 1.02
  12  0.376  0.015  0.557- 194 1.02
  13  0.295  0.623  0.551- 195 1.03
  14  0.877  0.033  0.556- 196 1.03
  15  0.060  0.286  0.578- 183 1.03
  16  0.986  0.697  0.585- 184 1.03
  17  0.572  0.248  0.567- 185 1.02
  18  0.447  0.686  0.575- 186 1.03
  19  0.273  0.436  0.572- 191 1.03
  20  0.188  0.058  0.572- 192 1.02
  21  0.686  0.032  0.575- 193 1.02
  22  0.382  0.298  0.555- 187 1.03
  23  0.496  0.869  0.557- 188 1.03
  24  0.882  0.237  0.555- 189 1.02
  25  0.989  0.868  0.555- 190 1.03
  26  0.177  0.446  0.570- 191 1.01
  27  0.153  0.980  0.559- 192 1.02
  28  0.681  0.937  0.569- 193 1.02
  29  0.430  0.183  0.552- 146 1.09
  30  0.544  0.759  0.543- 147 1.09
  31  0.998  0.215  0.539- 144 1.09
  32  0.084  0.779  0.555- 145 1.10
  33  0.182  0.563  0.556- 148 1.10
  34  0.271  0.940  0.548- 149 1.09
  35  0.799  0.929  0.557- 150 1.10
  36  0.443  0.301  0.672- 205 1.02
  37  0.451  0.807  0.674- 206 1.02
  38  0.945  0.284  0.675- 207 1.02
  39  0.920  0.736  0.669- 208 1.02
  40  0.301  0.053  0.673- 209 1.03
  41  0.295  0.560  0.674- 210 1.03
  42  0.805  0.056  0.674- 211 1.03
  43  0.843  0.470  0.662- 212 1.02
  44  0.086  0.169  0.648- 197 1.02
  45  0.113  0.711  0.653- 198 1.02
  46  0.580  0.171  0.650- 199 1.02
  47  0.571  0.669  0.647- 200 1.02
  48  0.185  0.412  0.649- 201 1.02
  49  0.169  0.924  0.647- 202 1.01
  50  0.642  0.473  0.656- 203 1.02
  51  0.675  0.920  0.652- 204 1.02
  52  0.052  0.186  0.674- 197 1.03
  53  0.041  0.667  0.667- 198 1.02
  54  0.546  0.201  0.674- 199 1.02
  55  0.548  0.698  0.673- 200 1.03
  56  0.204  0.448  0.674- 201 1.03
  57  0.198  0.951  0.673- 202 1.03
  58  0.714  0.414  0.663- 203 1.03
  59  0.703  0.953  0.677- 204 1.03
  60  0.419  0.325  0.646- 205 1.02
  61  0.423  0.835  0.648- 206 1.02
  62  0.924  0.320  0.650- 207 1.02
  63  0.917  0.819  0.655- 208 1.02
  64  0.328  0.079  0.647- 209 1.02
  65  0.323  0.587  0.648- 210 1.03
  66  0.829  0.079  0.648- 211 1.02
  67  0.850  0.558  0.651- 212 1.02
  68  0.010  0.252  0.631- 151 1.09
  69  0.039  0.812  0.644- 152 1.10
  70  0.503  0.247  0.630- 153 1.09
  71  0.495  0.752  0.630- 154 1.09
  72  0.248  0.001  0.630- 156 1.09
  73  0.259  0.494  0.631- 155 1.09
  74  0.751  0.996  0.632- 158 1.09
  75  0.723  0.570  0.647- 157 1.09
  76  0.449  0.301  0.769- 221 1.02
  77  0.449  0.801  0.769- 222 1.02
  78  0.949  0.301  0.769- 223 1.02
  79  0.949  0.801  0.769- 224 1.02
  80  0.301  0.051  0.769- 225 1.02
  81  0.301  0.551  0.769- 226 1.02
  82  0.801  0.051  0.769- 227 1.02
  83  0.801  0.551  0.769- 228 1.02
  84  0.079  0.171  0.743- 213 1.02
  85  0.079  0.671  0.743- 214 1.02
  86  0.579  0.171  0.743- 215 1.02
  87  0.579  0.671  0.743- 216 1.02
  88  0.171  0.421  0.743- 217 1.02
  89  0.171  0.921  0.743- 218 1.02
  90  0.671  0.421  0.743- 219 1.02
  91  0.671  0.921  0.743- 220 1.02
  92  0.051  0.199  0.769- 213 1.02
  93  0.051  0.699  0.769- 214 1.02
  94  0.551  0.199  0.769- 215 1.02
  95  0.551  0.699  0.769- 216 1.02
  96  0.199  0.449  0.769- 217 1.02
  97  0.199  0.949  0.769- 218 1.02
  98  0.699  0.449  0.769- 219 1.02
  99  0.699  0.949  0.769- 220 1.02
 100  0.421  0.329  0.743- 221 1.02
 101  0.421  0.829  0.743- 222 1.02
 102  0.921  0.329  0.743- 223 1.02
 103  0.921  0.829  0.743- 224 1.02
 104  0.329  0.079  0.743- 225 1.02
 105  0.329  0.579  0.743- 226 1.02
 106  0.829  0.079  0.743- 227 1.02
 107  0.829  0.579  0.743- 228 1.02
 108  0.000  0.250  0.726- 161 1.09
 109  0.000  0.750  0.726- 162 1.09
 110  0.500  0.250  0.726- 159 1.09
 111  0.500  0.750  0.726- 160 1.09
 112  0.250  0.000  0.726- 163 1.09
 113  0.250  0.500  0.726- 164 1.09
 114  0.750  0.000  0.726- 165 1.09
 115  0.750  0.500  0.726- 166 1.09
 116  0.720  0.444  0.539- 173 1.10
 117  0.741  0.496  0.516- 173 1.09
 118  0.663  0.553  0.556- 174 1.09
 119  0.710  0.639  0.555- 174 1.10
 120  0.853  0.509  0.567- 175 1.10
 121  0.793  0.579  0.577- 175 1.10
 122  0.878  0.560  0.531- 176 1.10
 123  0.808  0.620  0.521- 176 1.10
 124  0.873  0.461  0.518- 177 1.10
 125  0.862  0.425  0.544- 177 1.10
 126  0.873  0.326  0.519- 178 1.10
 127  0.784  0.324  0.530- 178 1.10
 128  0.638  0.552  0.518- 179 1.10
 129  0.695  0.633  0.514- 179 1.10
 130  0.612  0.638  0.529- 179 1.10
 131  0.763  0.466  0.595- 180 1.10
 132  0.755  0.413  0.572- 180 1.10
 133  0.687  0.483  0.578- 180 1.10
 134  0.819  0.692  0.557- 181 1.10
 135  0.897  0.693  0.540- 181 1.10
 136  0.898  0.634  0.563- 181 1.10
 137  0.820  0.381  0.485- 182 1.10
 138  0.787  0.292  0.491- 182 1.10
 139  0.662  0.303  0.518- 168 1.09
 140  0.733  0.461  0.471- 169 1.09
 141  0.535  0.354  0.517- 170 1.09
 142  0.605  0.512  0.469- 171 1.10
 143  0.506  0.460  0.492- 172 1.09
 144  0.995  0.241  0.554-  31 1.09 189 1.31 183 1.32
 145  0.033  0.770  0.564-  32 1.10 184 1.31 190 1.32
 146  0.467  0.228  0.557-  29 1.09 185 1.31 187 1.31
 147  0.502  0.757  0.555-  30 1.09 188 1.31 186 1.31
 148  0.234  0.534  0.559-  33 1.10 195 1.31 191 1.32
 149  0.265  0.992  0.557-  34 1.09 192 1.31 194 1.32
 150  0.779  0.983  0.563-  35 1.10 196 1.31 193 1.32
 151  0.005  0.245  0.649-  68 1.09 197 1.31 207 1.31
 152  0.016  0.767  0.653-  69 1.10 198 1.31 208 1.31
 153  0.500  0.248  0.647-  70 1.09 205 1.31 199 1.31
 154  0.497  0.752  0.648-  71 1.09 206 1.31 200 1.31
 155  0.255  0.498  0.648-  73 1.09 210 1.31 201 1.31
 156  0.249  0.002  0.647-  72 1.09 209 1.31 202 1.32
 157  0.745  0.519  0.653-  75 1.09 203 1.31 212 1.32
 158  0.752  1.000  0.650-  74 1.09 211 1.31 204 1.32
 159  0.500  0.250  0.743- 110 1.09 221 1.31 215 1.31
 160  0.500  0.750  0.743- 111 1.09 222 1.31 216 1.31
 161  1.000  0.250  0.743- 108 1.09 223 1.31 213 1.31
 162  1.000  0.750  0.743- 109 1.09 224 1.31 214 1.31
 163  0.250  0.000  0.743- 112 1.09 225 1.31 218 1.31
 164  0.250  0.500  0.743- 113 1.09 226 1.31 217 1.31
 165  0.750  0.000  0.743- 114 1.09 227 1.31 220 1.31
 166  0.750  0.500  0.743- 115 1.09 228 1.31 219 1.31
 167  0.707  0.379  0.495- 169 1.40 168 1.41 182 1.51
 168  0.650  0.349  0.507- 139 1.09 170 1.39 167 1.41
 169  0.689  0.437  0.481- 140 1.09 167 1.40 171 1.41
 170  0.578  0.378  0.507- 141 1.09 168 1.39 172 1.40
 171  0.617  0.466  0.480- 142 1.10 172 1.39 169 1.41
 172  0.562  0.437  0.493- 143 1.09 171 1.39 170 1.40
 173  0.764  0.477  0.531- 117 1.09 116 1.10 177 1.52 229 1.52
 174  0.699  0.587  0.546- 118 1.09 119 1.10 179 1.52 229 1.52
 175  0.795  0.527  0.568- 121 1.10 120 1.10 180 1.51 229 1.53
 176  0.832  0.596  0.535- 122 1.10 123 1.10 181 1.52 229 1.53
 177  0.834  0.432  0.528- 124 1.10 125 1.10 173 1.52 178 1.53
 178  0.819  0.355  0.519- 127 1.10 126 1.10 177 1.53 182 1.54
 179  0.660  0.603  0.525- 128 1.10 129 1.10 130 1.10 174 1.52
 180  0.747  0.469  0.578- 131 1.10 133 1.10 132 1.10 175 1.51
 181  0.862  0.657  0.550- 136 1.10 134 1.10 135 1.10 176 1.52
 182  0.785  0.350  0.496- 137 1.10 138 1.10 167 1.51 178 1.54
 183  0.058  0.259  0.564-   8 1.03  15 1.03 144 1.32
 184  0.030  0.709  0.575-   9 1.02  16 1.03 145 1.31
 185  0.535  0.210  0.562-  17 1.02  10 1.02 146 1.31
 186  0.482  0.692  0.563-  11 1.02  18 1.03 147 1.31
 187  0.438  0.294  0.558-   1 1.02  22 1.03 146 1.31
 188  0.475  0.820  0.562-  23 1.03   2 1.03 147 1.31
 189  0.930  0.252  0.563-  24 1.02   3 1.03 144 1.31
 190  0.979  0.818  0.562-   4 1.03  25 1.03 145 1.32
 191  0.228  0.465  0.566-  26 1.01  19 1.03 148 1.32
 192  0.198  0.011  0.563-  27 1.02  20 1.02 149 1.31
 193  0.709  0.985  0.569-  28 1.02  21 1.02 150 1.32
 194  0.324  0.032  0.561-  12 1.02   5 1.03 149 1.32
 195  0.297  0.568  0.555-   6 1.02  13 1.03 148 1.31
 196  0.824  0.040  0.562-   7 1.02  14 1.03 150 1.31
 197  0.050  0.197  0.658-  44 1.02  52 1.03 151 1.31
 198  0.058  0.710  0.658-  53 1.02  45 1.02 152 1.31
 199  0.544  0.204  0.658-  46 1.02  54 1.02 153 1.31
 200  0.540  0.703  0.657-  47 1.02  55 1.03 154 1.31
 201  0.213  0.450  0.658-  48 1.02  56 1.03 155 1.31
 202  0.202  0.956  0.657-  49 1.01  57 1.03 156 1.32
 203  0.698  0.466  0.658-  50 1.02  58 1.03 157 1.31
 204  0.708  0.954  0.660-  51 1.02  59 1.03 158 1.32
 205  0.452  0.294  0.656-  60 1.02  36 1.02 153 1.31
 206  0.455  0.801  0.657-  61 1.02  37 1.02 154 1.31
 207  0.956  0.286  0.659-  62 1.02  38 1.02 151 1.31
 208  0.947  0.774  0.660-  63 1.02  39 1.02 152 1.31
 209  0.295  0.047  0.656-  64 1.02  40 1.03 156 1.31
 210  0.293  0.551  0.658-  41 1.03  65 1.03 155 1.31
 211  0.797  0.048  0.658-  66 1.02  42 1.03 158 1.31
 212  0.817  0.515  0.656-  67 1.02  43 1.02 157 1.32
 213  0.046  0.204  0.753-  92 1.02  84 1.02 161 1.31
 214  0.046  0.704  0.753-  93 1.02  85 1.02 162 1.31
 215  0.546  0.204  0.753-  94 1.02  86 1.02 159 1.31
 216  0.546  0.704  0.753-  95 1.02  87 1.02 160 1.31
 217  0.204  0.454  0.753-  96 1.02  88 1.02 164 1.31
 218  0.204  0.954  0.753-  97 1.02  89 1.02 163 1.31
 219  0.704  0.454  0.753-  98 1.02  90 1.02 166 1.31
 220  0.704  0.954  0.753-  99 1.02  91 1.02 165 1.31
 221  0.454  0.296  0.753-  76 1.02 100 1.02 159 1.31
 222  0.454  0.796  0.753-  77 1.02 101 1.02 160 1.31
 223  0.954  0.296  0.753-  78 1.02 102 1.02 161 1.31
 224  0.954  0.796  0.753-  79 1.02 103 1.02 162 1.31
 225  0.296  0.046  0.753-  80 1.02 104 1.02 163 1.31
 226  0.296  0.546  0.753-  81 1.02 105 1.02 164 1.31
 227  0.796  0.046  0.753-  82 1.02 106 1.02 165 1.31
 228  0.796  0.546  0.753-  83 1.02 107 1.02 166 1.31
 229  0.773  0.547  0.545- 173 1.52 174 1.52 175 1.53 176 1.53
 230  0.518  0.011  0.553- 304 3.27
 231  0.489  0.496  0.553- 305 3.19
 232  0.010  0.007  0.550- 302 3.36
 233  0.025  0.500  0.554- 303 3.13
 234  0.251  0.235  0.553- 306 3.22
 235  0.254  0.762  0.552- 307 3.18
 236  0.735  0.212  0.556- 308 3.17
 237  0.699  0.796  0.555- 309 3.23
 238  0.999  0.988  0.654- 302 3.13 310 3.20
 239  0.013  0.499  0.655- 311 3.10 303 3.21
 240  0.495  0.004  0.655- 312 3.11 304 3.11
 241  0.500  0.495  0.654- 313 3.16 305 3.17
 242  0.252  0.246  0.655- 314 3.13 306 3.16
 243  0.254  0.755  0.654- 315 3.16 307 3.20
 244  0.747  0.269  0.655- 316 3.13 308 3.14
 245  0.747  0.740  0.655- 317 3.15 309 3.17
 246  0.130  0.123  0.607- 306 3.20 302 3.21
 247  0.152  0.608  0.608- 307 3.20 303 3.24
 248  0.639  0.114  0.611- 308 3.17 304 3.20
 249  0.632  0.618  0.607- 305 3.20 309 3.21
 250  0.361  0.389  0.606- 306 3.19 305 3.23
 251  0.369  0.887  0.607- 304 3.20 307 3.23
 252  0.888  0.368  0.608- 303 3.26 308 3.32
 253  0.867  0.883  0.606- 309 3.20 302 3.22
 254  0.122  0.365  0.609- 306 3.20 303 3.28
 255  0.123  0.875  0.607- 307 3.21 302 3.25
 256  0.596  0.347  0.601- 305 3.22 308 3.24
 257  0.617  0.867  0.615- 309 3.11 304 3.21
 258  0.388  0.134  0.607- 306 3.19 304 3.20
 259  0.386  0.636  0.609- 307 3.25 305 3.27
 260  0.884  0.137  0.611- 302 3.19 308 3.25
 261  0.896  0.640  0.613- 303 3.21 309 3.51
 262  0.000  0.000  0.755- 310 3.13 318 3.27
 263  0.000  0.500  0.755- 311 3.13 319 3.27
 264  0.500  0.000  0.755- 312 3.13 320 3.27
 265  0.500  0.500  0.755- 313 3.13 321 3.27
 266  0.250  0.250  0.755- 314 3.13 322 3.27
 267  0.250  0.750  0.755- 315 3.13 323 3.27
 268  0.750  0.250  0.755- 316 3.13 324 3.27
 269  0.750  0.750  0.755- 317 3.13 325 3.27
 270  0.136  0.114  0.705- 310 3.20 314 3.20
 271  0.136  0.614  0.705- 311 3.20 315 3.20
 272  0.636  0.114  0.705- 312 3.20 316 3.20
 273  0.636  0.614  0.705- 313 3.20 317 3.20
 274  0.364  0.386  0.705- 313 3.20 314 3.20
 275  0.364  0.886  0.705- 312 3.20 315 3.20
 276  0.864  0.386  0.705- 311 3.20 316 3.20
 277  0.864  0.886  0.705- 310 3.20 317 3.20
 278  0.114  0.364  0.705- 314 3.21 311 3.21
 279  0.114  0.864  0.705- 315 3.21 310 3.21
 280  0.614  0.364  0.705- 316 3.21 313 3.21
 281  0.614  0.864  0.705- 317 3.21 312 3.21
 282  0.386  0.136  0.705- 314 3.21 312 3.21
 283  0.386  0.636  0.705- 315 3.21 313 3.21
 284  0.886  0.136  0.705- 316 3.21 310 3.21
 285  0.886  0.636  0.705- 317 3.21 311 3.21
 286  0.135  0.115  0.801- 318 3.22 322 3.22
 287  0.135  0.615  0.801- 319 3.22 323 3.22
 288  0.635  0.115  0.801- 320 3.22 324 3.22
 289  0.635  0.615  0.801- 321 3.22 325 3.22
 290  0.365  0.385  0.801- 321 3.22 322 3.22
 291  0.365  0.885  0.801- 320 3.22 323 3.22
 292  0.865  0.385  0.801- 319 3.22 324 3.22
 293  0.865  0.885  0.801- 318 3.22 325 3.22
 294  0.115  0.365  0.801- 319 3.23 322 3.23
 295  0.115  0.865  0.801- 318 3.23 323 3.23
 296  0.615  0.365  0.801- 321 3.23 324 3.23
 297  0.615  0.865  0.801- 320 3.23 325 3.23
 298  0.385  0.135  0.801- 320 3.23 322 3.23
 299  0.385  0.635  0.801- 321 3.23 323 3.23
 300  0.885  0.135  0.801- 318 3.23 324 3.23
 301  0.885  0.635  0.801- 319 3.23 325 3.23
 302  0.998  0.004  0.604- 238 3.13 260 3.19 246 3.21 253 3.22 255 3.25 232 3.36
 303  0.006  0.504  0.604- 233 3.13 239 3.21 261 3.21 247 3.24 252 3.26 254 3.28
 304  0.505  0.001  0.605- 240 3.11 248 3.20 258 3.20 251 3.20 257 3.21 230 3.27
 305  0.502  0.499  0.604- 241 3.17 231 3.19 249 3.20 256 3.22 250 3.23 259 3.27
 306  0.254  0.249  0.604- 242 3.16 258 3.19 250 3.19 254 3.20 246 3.20 234 3.22
 307  0.251  0.753  0.603- 235 3.18 247 3.20 243 3.20 255 3.21 251 3.23 259 3.25
 308  0.747  0.251  0.605- 244 3.14 248 3.17 236 3.17 256 3.24 260 3.25 252 3.32
 309  0.744  0.756  0.604- 257 3.11 245 3.17 253 3.20 249 3.21 237 3.23 261 3.51
 310  0.000  0.000  0.705- 262 3.13 238 3.20 270 3.20 277 3.20 279 3.21 284 3.21
 311  0.000  0.500  0.705- 239 3.10 263 3.13 271 3.20 276 3.20 278 3.21 285 3.21
 312  0.500  0.000  0.705- 240 3.11 264 3.13 272 3.20 275 3.20 281 3.21 282 3.21
 313  0.500  0.500  0.705- 265 3.13 241 3.16 273 3.20 274 3.20 280 3.21 283 3.21
 314  0.250  0.250  0.705- 266 3.13 242 3.13 270 3.20 274 3.20 282 3.21 278 3.21
 315  0.250  0.750  0.705- 267 3.13 243 3.16 271 3.20 275 3.20 283 3.21 279 3.21
 316  0.750  0.250  0.705- 244 3.13 268 3.13 272 3.20 276 3.20 284 3.21 280 3.21
 317  0.750  0.750  0.705- 269 3.13 245 3.15 273 3.20 277 3.20 285 3.21 281 3.21
 318  0.000  0.000  0.807- 286 3.22 293 3.22 300 3.23 295 3.23 262 3.27
 319  0.000  0.500  0.807- 287 3.22 292 3.22 301 3.23 294 3.23 263 3.27
 320  0.500  0.000  0.807- 288 3.22 291 3.22 298 3.23 297 3.23 264 3.27
 321  0.500  0.500  0.807- 289 3.22 290 3.22 299 3.23 296 3.23 265 3.27
 322  0.250  0.250  0.807- 290 3.22 286 3.22 294 3.23 298 3.23 266 3.27
 323  0.250  0.750  0.807- 291 3.22 287 3.22 299 3.23 295 3.23 267 3.27
 324  0.750  0.250  0.807- 292 3.22 288 3.22 296 3.23 300 3.23 268 3.27
 325  0.750  0.750  0.807- 293 3.22 289 3.22 297 3.23 301 3.23 269 3.27
 

IMPORTANT INFORMATION: All symmetrisations will be switched off!
NOSYMM: (Re-)initialisation of all symmetry stuff for point group C_1.


----------------------------------------------------------------------------------------

                                     Primitive cell                                     

  volume of cell :   20385.2105

  direct lattice vectors                    reciprocal lattice vectors
    18.060800552  0.000000000  0.000000000     0.055368531  0.000015077 -0.000000000
    -0.004918649 18.062799454  0.000000000     0.000000000  0.055362404  0.000000000
     0.000000000  0.000000000 62.487499237     0.000000000 -0.000000000  0.016003201

  length of vectors
    18.060800552 18.062800123 62.487499237     0.055368533  0.055362404  0.016003201

  position of ions in fractional coordinates (direct lattice)
     0.465714184  0.339312119  0.563157804
     0.438091140  0.823438674  0.574776950
     0.923683972  0.280704662  0.576962201
     0.935123140  0.817848348  0.572583274
     0.321628806  0.078442194  0.570602409
     0.347662222  0.543195385  0.556406637
     0.806547415  0.092357708  0.565656962
     0.108661226  0.250807198  0.556465853
     0.074716588  0.675095292  0.576914890
     0.550645300  0.155860204  0.560830984
     0.504134568  0.643703626  0.556677260
     0.376177141  0.014947548  0.556976209
     0.294658422  0.622993727  0.551243495
     0.877006028  0.032796649  0.556441007
     0.059598811  0.285707403  0.578117462
     0.986199743  0.697042611  0.585496196
     0.572003832  0.247858182  0.567261347
     0.447460143  0.685551930  0.575380586
     0.272718028  0.436308098  0.572133110
     0.187663745  0.057857016  0.572082258
     0.685850443  0.032062157  0.575328146
     0.381793314  0.298272253  0.555201990
     0.496131467  0.869255993  0.556937200
     0.882109218  0.236542262  0.555081543
     0.989123558  0.867970263  0.554606472
     0.176802583  0.445778290  0.569662523
     0.152649987  0.979946763  0.559498808
     0.680965074  0.936918631  0.569199723
     0.429674731  0.182833785  0.552135519
     0.543981044  0.758956365  0.542673483
     0.998417468  0.215181829  0.538502605
     0.084064014  0.779156977  0.554702073
     0.182343581  0.563389608  0.556421228
     0.270963539  0.940295229  0.548357420
     0.799047070  0.929404970  0.556988907
     0.443118421  0.300666946  0.671816928
     0.451238597  0.806696470  0.673753350
     0.945143941  0.283542961  0.674522730
     0.920390984  0.735543065  0.668726161
     0.300768379  0.052883512  0.672570863
     0.294976664  0.560446453  0.673815313
     0.805029638  0.055743709  0.674196005
     0.842988772  0.469836408  0.662378761
     0.086448510  0.168743847  0.648243548
     0.112702741  0.710557872  0.653230202
     0.579661920  0.170847492  0.649772785
     0.571232768  0.669472917  0.647494070
     0.185187089  0.411517835  0.648949378
     0.169334280  0.923803002  0.647472642
     0.642283903  0.473462185  0.655591331
     0.674671171  0.919911726  0.651698951
     0.052316544  0.185715735  0.673755914
     0.040833095  0.667101403  0.667035698
     0.545701803  0.201127028  0.674415348
     0.547922608  0.698233885  0.673175598
     0.203547595  0.447921455  0.674150463
     0.197702395  0.950623159  0.672963947
     0.713593664  0.414315928  0.663279576
     0.703447229  0.952583169  0.676525877
     0.419336724  0.324967379  0.645860931
     0.423464749  0.835390068  0.648382370
     0.923748782  0.320039268  0.649506801
     0.916852613  0.819477579  0.655115406
     0.327990251  0.079377023  0.647005080
     0.323222709  0.586825189  0.648231278
     0.829333866  0.079093302  0.647976405
     0.849667162  0.557504724  0.651160391
     0.010430032  0.251583060  0.631334160
     0.039122763  0.812450892  0.643738497
     0.503063851  0.247129917  0.629904065
     0.494890995  0.751717377  0.630310274
     0.247761765  0.001266176  0.629543885
     0.259047027  0.493973089  0.630955850
     0.750920934  0.995978313  0.632159704
     0.722789731  0.570442853  0.646621092
     0.448745018  0.301283966  0.768889017
     0.448745007  0.801283913  0.768889017
     0.948744965  0.301283966  0.768889017
     0.948745007  0.801283913  0.768889017
     0.301275995  0.051294496  0.768872961
     0.301276011  0.551294499  0.768872961
     0.801275943  0.051294496  0.768872961
     0.801275984  0.551294499  0.768872961
     0.078771004  0.171180501  0.743441971
     0.078771006  0.671180448  0.743441971
     0.578771004  0.171180501  0.743441971
     0.578770992  0.671180448  0.743441971
     0.171199499  0.421174482  0.743421032
     0.171199501  0.921174508  0.743421032
     0.671199512  0.421174482  0.743421032
     0.671199501  0.921174508  0.743421032
     0.051256000  0.198714991  0.768889017
     0.051256002  0.698714925  0.768889017
     0.551256027  0.198714991  0.768889017
     0.551256016  0.698714925  0.768889017
     0.198723491  0.448703970  0.768872046
     0.198723493  0.948703970  0.768872046
     0.698723518  0.448703970  0.768872046
     0.698723507  0.948703970  0.768872046
     0.421231519  0.328817467  0.743441971
     0.421231508  0.828817440  0.743441971
     0.921231466  0.328817467  0.743441971
     0.921231508  0.828817440  0.743441971
     0.328800503  0.078824997  0.743421032
     0.328800492  0.578824964  0.743421032
     0.828800477  0.078824997  0.743421032
     0.828800519  0.578824964  0.743421032
     0.000003500  0.250001478  0.725821992
     0.000003500  0.750001452  0.725821992
     0.500003506  0.250001478  0.725821992
     0.500003495  0.750001452  0.725821992
     0.250000502  0.000000000  0.725803983
     0.250000517  0.500000000  0.725803983
     0.750000502  0.000000000  0.725803983
     0.750000490  0.500000000  0.725803983
     0.720199414  0.444273133  0.539109904
     0.741310540  0.496054375  0.516072215
     0.663050179  0.552619511  0.556262382
     0.709718327  0.638721318  0.554909756
     0.853146826  0.509090180  0.567221911
     0.793117402  0.578976229  0.576855551
     0.878080251  0.559547625  0.530847082
     0.808477780  0.620027658  0.520822188
     0.872964290  0.461114017  0.517639240
     0.862364686  0.425321345  0.543643770
     0.872852022  0.325751266  0.518545732
     0.784091649  0.323854984  0.529905670
     0.638497740  0.552021101  0.517779466
     0.694887660  0.632523501  0.513586488
     0.612397356  0.638253055  0.528648400
     0.763144089  0.466469341  0.595193448
     0.754681031  0.413263300  0.571669028
     0.687403334  0.482630612  0.577925956
     0.818766454  0.691798426  0.556910888
     0.896867125  0.692774128  0.539852972
     0.897709064  0.633975543  0.562538662
     0.820169349  0.380643718  0.484847403
     0.786597706  0.291864803  0.491345742
     0.662270905  0.302892395  0.518107839
     0.732664942  0.461080121  0.470732000
     0.535071603  0.354295288  0.516746178
     0.604824615  0.511547597  0.468848109
     0.505775592  0.460075222  0.492447403
     0.995256414  0.241078350  0.554178592
     0.033122242  0.769559094  0.563825602
     0.466749435  0.227575733  0.556969311
     0.502102388  0.757192288  0.555303389
     0.234344487  0.533773159  0.559355408
     0.264671808  0.992241816  0.557189326
     0.778811102  0.983259579  0.562532618
     0.005181455  0.244764474  0.648604643
     0.015886037  0.767453363  0.653435627
     0.499792671  0.248095006  0.647329120
     0.496793812  0.752061671  0.647681851
     0.255234958  0.498253188  0.648325718
     0.248782315  0.001520449  0.647027057
     0.744595258  0.519012294  0.653192109
     0.752258992  0.999527743  0.649613329
     0.499988984  0.249994984  0.743277021
     0.499989025  0.749994958  0.743277021
     0.999988984  0.249994984  0.743277021
     0.999989025  0.749994958  0.743277021
     0.250000502  0.000001000  0.743255960
     0.250000517  0.500001003  0.743255960
     0.750000502  0.000001000  0.743255960
     0.750000491  0.500001003  0.743255960
     0.706758527  0.378900655  0.494666994
     0.649704357  0.348881412  0.507351232
     0.689214478  0.437196341  0.480793003
     0.578175708  0.377520892  0.506521599
     0.616827444  0.465799074  0.479820427
     0.561634608  0.436586105  0.492769611
     0.763564465  0.477356016  0.531350173
     0.698805751  0.587012832  0.546255498
     0.794937973  0.526857399  0.567864740
     0.832489329  0.596302429  0.535440835
     0.833682504  0.432175173  0.528192559
     0.819362061  0.355143061  0.518844986
     0.660386961  0.602577225  0.525149775
     0.746611184  0.468960231  0.578346572
     0.862213661  0.656801785  0.549932015
     0.785279218  0.350482080  0.496293936
     0.057935625  0.259024500  0.563570912
     0.029952825  0.709297274  0.575413674
     0.535183033  0.210092896  0.561533761
     0.482492158  0.691864265  0.562542325
     0.437731255  0.294208625  0.557716714
     0.475054139  0.819813003  0.562253937
     0.929720742  0.251832529  0.562787003
     0.979034790  0.818270994  0.562188922
     0.228116590  0.465006791  0.566204984
     0.197876957  0.011089843  0.563287286
     0.709465465  0.985369032  0.568990575
     0.324338331  0.031580187  0.561353672
     0.296906623  0.567872503  0.555157974
     0.823884572  0.040046229  0.561833382
     0.049653472  0.196774636  0.657684768
     0.058159582  0.710267221  0.657705646
     0.544483782  0.204416298  0.658065642
     0.540377752  0.703390214  0.656886756
     0.212950388  0.449567951  0.657958260
     0.202427410  0.956129128  0.656680600
     0.697901890  0.465556627  0.657779269
     0.708110618  0.954488159  0.660166404
     0.451607119  0.293882045  0.655737601
     0.455037246  0.800740783  0.657483678
     0.955552921  0.285525013  0.658501581
     0.946702176  0.774453705  0.659601411
     0.295240266  0.046762239  0.656318894
     0.293184353  0.551041810  0.657619874
     0.797214279  0.048139804  0.658077852
     0.816816048  0.514576495  0.655729237
     0.045862501  0.204119496  0.752725994
     0.045862500  0.704119456  0.752725994
     0.545862507  0.204119496  0.752725994
     0.545862496  0.704119456  0.752725994
     0.204119002  0.454101003  0.752704994
     0.204118991  0.954100951  0.752704994
     0.704118976  0.454101003  0.752704994
     0.704118964  0.954100951  0.752704994
     0.454140018  0.295888490  0.752726971
     0.454140007  0.795888516  0.752726971
     0.954140018  0.295888490  0.752726971
     0.954140060  0.795888516  0.752726971
     0.295882492  0.045900498  0.752704994
     0.295882481  0.545900528  0.752704994
     0.795882439  0.045900498  0.752704994
     0.795882481  0.545900528  0.752704994
     0.772558162  0.546520267  0.545011963
     0.517557445  0.011253740  0.553298594
     0.488952967  0.495570590  0.552763819
     0.010271386  0.007471538  0.550095744
     0.024926922  0.500185267  0.554328097
     0.251100035  0.235111180  0.552853681
     0.254177438  0.761566683  0.552195285
     0.735036301  0.212336416  0.555816004
     0.699412474  0.796452607  0.555312485
     0.998866304  0.988294057  0.653681892
     0.012838819  0.498659730  0.655427175
     0.495172259  0.004005164  0.655159482
     0.500287521  0.494631318  0.654316662
     0.252363150  0.246263903  0.654704679
     0.254023589  0.755049335  0.654303293
     0.747289445  0.269054559  0.655097336
     0.747335178  0.740421731  0.654532404
     0.129595448  0.122567425  0.607252867
     0.151780622  0.607587674  0.607706021
     0.639213477  0.114164235  0.611495231
     0.631894239  0.618348902  0.606899280
     0.360855096  0.389493299  0.605637370
     0.369400757  0.886578919  0.607328138
     0.888337917  0.367974487  0.607784345
     0.867390071  0.882583189  0.606110121
     0.121733006  0.365386819  0.609035450
     0.123392406  0.875301488  0.606729874
     0.596107104  0.347463213  0.601452207
     0.617099463  0.867057549  0.614574766
     0.387673632  0.133984677  0.607297736
     0.385938265  0.635945479  0.609464674
     0.883984957  0.136878757  0.611094394
     0.895760403  0.639795698  0.613351621
     0.000000000  0.000000000  0.754927972
     0.000000000  0.500000000  0.754927972
     0.500000000  0.000000000  0.754927972
     0.499999989  0.500000000  0.754927972
     0.250000496  0.250000000  0.754939022
     0.250000511  0.749999974  0.754939022
     0.750000470  0.250000000  0.754939022
     0.750000458  0.749999974  0.754939022
     0.135790500  0.114209997  0.704782994
     0.135790502  0.614209984  0.704782994
     0.635790447  0.114209997  0.704782994
     0.635790488  0.614209984  0.704782994
     0.364209516  0.385789989  0.704782994
     0.364209505  0.885789963  0.704782994
     0.864209542  0.385789989  0.704782994
     0.864209531  0.885789963  0.704782994
     0.114217990  0.364218986  0.704780979
     0.114217992  0.864218986  0.704780979
     0.614218004  0.364218986  0.704780979
     0.614217992  0.864218986  0.704780979
     0.385782012  0.135781489  0.704782017
     0.385782001  0.635781489  0.704782017
     0.885781985  0.135781489  0.704782017
     0.885782027  0.635781489  0.704782017
     0.134667000  0.115332001  0.801256025
     0.134666989  0.615331988  0.801256025
     0.634666987  0.115332001  0.801256025
     0.634666976  0.615331988  0.801256025
     0.365333002  0.384667985  0.801256025
     0.365332990  0.884667959  0.801256025
     0.865332949  0.384667985  0.801256025
     0.865332938  0.884667959  0.801256025
     0.115328503  0.365337004  0.801264999
     0.115328505  0.865336978  0.801264999
     0.615328503  0.365337004  0.801264999
     0.615328492  0.865336978  0.801264999
     0.384671513  0.134662996  0.801264999
     0.384671501  0.634662970  0.801264999
     0.884671486  0.134662996  0.801264999
     0.884671528  0.634662970  0.801264999
     0.997663035  0.003867419  0.603797158
     0.005838711  0.504156446  0.604167166
     0.504595136  0.001018038  0.605469063
     0.502079976  0.498654081  0.603676163
     0.253845912  0.248731535  0.604213013
     0.251418945  0.752999042  0.603052075
     0.746561030  0.251060231  0.605137759
     0.743725558  0.756042618  0.604012900
     0.000000500  0.000000500  0.704828963
     0.000000500  0.500000475  0.704828963
     0.500000475  0.000000500  0.704828963
     0.500000464  0.500000475  0.704828963
     0.249999994  0.249999472  0.704824995
     0.250000010  0.749999498  0.704824995
     0.749999994  0.249999472  0.704824995
     0.749999983  0.749999498  0.704824995
     0.000000000  0.000000000  0.807317968
     0.000000000  0.500000000  0.807317968
     0.500000000  0.000000000  0.807317968
     0.499999989  0.500000000  0.807317968
     0.249999994  0.250000000  0.807317968
     0.250000010  0.749999974  0.807317968
     0.749999994  0.250000000  0.807317968
     0.749999983  0.749999974  0.807317968

  ion indices of the primitive-cell ions
   primitive index   ion index
                 1           1
                 2           2
                 3           3
                 4           4
                 5           5
                 6           6
                 7           7
                 8           8
                 9           9
                10          10
                11          11
                12          12
                13          13
                14          14
                15          15
                16          16
                17          17
                18          18
                19          19
                20          20
                21          21
                22          22
                23          23
                24          24
                25          25
                26          26
                27          27
                28          28
                29          29
                30          30
                31          31
                32          32
                33          33
                34          34
                35          35
                36          36
                37          37
                38          38
                39          39
                40          40
                41          41
                42          42
                43          43
                44          44
                45          45
                46          46
                47          47
                48          48
                49          49
                50          50
                51          51
                52          52
                53          53
                54          54
                55          55
                56          56
                57          57
                58          58
                59          59
                60          60
                61          61
                62          62
                63          63
                64          64
                65          65
                66          66
                67          67
                68          68
                69          69
                70          70
                71          71
                72          72
                73          73
                74          74
                75          75
                76          76
                77          77
                78          78
                79          79
                80          80
                81          81
                82          82
                83          83
                84          84
                85          85
                86          86
                87          87
                88          88
                89          89
                90          90
                91          91
                92          92
                93          93
                94          94
                95          95
                96          96
                97          97
                98          98
                99          99
               100         100
               101         101
               102         102
               103         103
               104         104
               105         105
               106         106
               107         107
               108         108
               109         109
               110         110
               111         111
               112         112
               113         113
               114         114
               115         115
               116         116
               117         117
               118         118
               119         119
               120         120
               121         121
               122         122
               123         123
               124         124
               125         125
               126         126
               127         127
               128         128
               129         129
               130         130
               131         131
               132         132
               133         133
               134         134
               135         135
               136         136
               137         137
               138         138
               139         139
               140         140
               141         141
               142         142
               143         143
               144         144
               145         145
               146         146
               147         147
               148         148
               149         149
               150         150
               151         151
               152         152
               153         153
               154         154
               155         155
               156         156
               157         157
               158         158
               159         159
               160         160
               161         161
               162         162
               163         163
               164         164
               165         165
               166         166
               167         167
               168         168
               169         169
               170         170
               171         171
               172         172
               173         173
               174         174
               175         175
               176         176
               177         177
               178         178
               179         179
               180         180
               181         181
               182         182
               183         183
               184         184
               185         185
               186         186
               187         187
               188         188
               189         189
               190         190
               191         191
               192         192
               193         193
               194         194
               195         195
               196         196
               197         197
               198         198
               199         199
               200         200
               201         201
               202         202
               203         203
               204         204
               205         205
               206         206
               207         207
               208         208
               209         209
               210         210
               211         211
               212         212
               213         213
               214         214
               215         215
               216         216
               217         217
               218         218
               219         219
               220         220
               221         221
               222         222
               223         223
               224         224
               225         225
               226         226
               227         227
               228         228
               229         229
               230         230
               231         231
               232         232
               233         233
               234         234
               235         235
               236         236
               237         237
               238         238
               239         239
               240         240
               241         241
               242         242
               243         243
               244         244
               245         245
               246         246
               247         247
               248         248
               249         249
               250         250
               251         251
               252         252
               253         253
               254         254
               255         255
               256         256
               257         257
               258         258
               259         259
               260         260
               261         261
               262         262
               263         263
               264         264
               265         265
               266         266
               267         267
               268         268
               269         269
               270         270
               271         271
               272         272
               273         273
               274         274
               275         275
               276         276
               277         277
               278         278
               279         279
               280         280
               281         281
               282         282
               283         283
               284         284
               285         285
               286         286
               287         287
               288         288
               289         289
               290         290
               291         291
               292         292
               293         293
               294         294
               295         295
               296         296
               297         297
               298         298
               299         299
               300         300
               301         301
               302         302
               303         303
               304         304
               305         305
               306         306
               307         307
               308         308
               309         309
               310         310
               311         311
               312         312
               313         313
               314         314
               315         315
               316         316
               317         317
               318         318
               319         319
               320         320
               321         321
               322         322
               323         323
               324         324
               325         325

----------------------------------------------------------------------------------------

 
 
 KPOINTS: Automatic Mesh                          

Automatic generation of k-mesh.
 Grid dimensions read from file:
 generate k-points for:    3    3    1

 Generating k-lattice:

  Cartesian coordinates                     Fractional coordinates (reciprocal lattice)
     0.018456177  0.000005026 -0.000000000     0.333333333  0.000000000  0.000000000
     0.000000000  0.018454135  0.000000000     0.000000000  0.333333333  0.000000000
     0.000000000 -0.000000000  0.016003201     0.000000000  0.000000000  1.000000000

  Length of vectors
     0.018456178  0.018454135  0.016003201

  Shift w.r.t. Gamma in fractional coordinates (k-lattice)
     0.000000000  0.000000000  0.000000000

 
 Subroutine IBZKPT returns following result:
 ===========================================
 
 Found      5 irreducible k-points:
 
 Following reciprocal coordinates:
            Coordinates               Weight
  0.000000  0.000000  0.000000      1.000000
  0.333333  0.000000  0.000000      2.000000
  0.000000  0.333333  0.000000      2.000000
  0.333333  0.333333  0.000000      2.000000
 -0.333333  0.333333  0.000000      2.000000
 
 Following cartesian coordinates:
            Coordinates               Weight
  0.000000  0.000000  0.000000      1.000000
  0.018456  0.000005  0.000000      2.000000
  0.000000  0.018454  0.000000      2.000000
  0.018456  0.018459  0.000000      2.000000
 -0.018456  0.018449  0.000000      2.000000
 


--------------------------------------------------------------------------------------------------------




 Dimension of arrays:
   k-points           NKPTS =      5   k-points in BZ     NKDIM =      5   number of bands    NBANDS=    732
   number of dos      NEDOS =    301   number of ions     NIONS =    325
   non local maximal  LDIM  =      5   non local SUM 2l+1 LMDIM =     13
   total plane-waves  NPLWV = ******
   max r-space proj   IRMAX =   3336   max aug-charges    IRDMAX=  19845
   dimension x,y,z NGX =   100 NGY =  100 NGZ =  350
   dimension x,y,z NGXF=   200 NGYF=  200 NGZF=  700
   support grid    NGXF=   200 NGYF=  200 NGZF=  700
   ions per type =             143  39  47  72  24
   NGX,Y,Z   is equivalent  to a cutoff of   9.20,  9.20,  9.31 a.u.
   NGXF,Y,Z  is equivalent  to a cutoff of  18.41, 18.41, 18.62 a.u.

 SYSTEM =  PSC                                     
 POSCAR =   H  C  N  I Pb                          

 Startparameter for this run:
   NWRITE =      2    write-flag & timer
   PREC   = normal    normal or accurate (medium, high low for compatibility)
   ISTART =      0    job   : 0-new  1-cont  2-samecut
   ICHARG =      1    charge: 1-file 2-atom 10-const
   ISPIN  =      1    spin polarized calculation?
   LNONCOLLINEAR =      F non collinear calculations
   LSORBIT =      F    spin-orbit coupling
   INIWAV =      1    electr: 0-lowe 1-rand  2-diag
   LASPH  =      F    aspherical Exc in radial PAW
 Electronic Relaxation 1
   ENCUT  =  500.0 eV  36.75 Ry    6.06 a.u.  32.93 32.93113.93*2*pi/ulx,y,z
   ENINI  =  500.0     initial cutoff
   ENAUG  =  644.9 eV  augmentation charge cutoff
   NELM   =    600;   NELMIN=  2; NELMDL=  0     # of ELM steps 
   EDIFF  = 0.1E-03   stopping-criterion for ELM
   LREAL  =      T    real-space projection
   NLSPLINE    = F    spline interpolate recip. space projectors
   LCOMPAT=      F    compatible to vasp.4.4
   GGA_COMPAT  = F    GGA compatible to vasp.4.4-vasp.4.6
   LMAXPAW     = -100 max onsite density
   LMAXMIX     =    2 max onsite mixed and CHGCAR
   VOSKOWN=      0    Vosko Wilk Nusair interpolation
   ROPT   =   -0.00050  -0.00050  -0.00050  -0.00050
   ROPT   =   -0.00050
 Ionic relaxation
   EDIFFG = 0.1E-02   stopping-criterion for IOM
   NSW    =      0    number of steps for IOM
   NBLOCK =      1;   KBLOCK =      1    inner block; outer block 
   IBRION =     -1    ionic relax: 0-MD 1-quasi-New 2-CG
   NFREE  =      0    steps in history (QN), initial steepest desc. (CG)
   ISIF   =      2    stress and relaxation
   IWAVPR =     10    prediction:  0-non 1-charg 2-wave 3-comb
   ISYM   =      0    0-nonsym 1-usesym 2-fastsym
   LCORR  =      T    Harris-Foulkes like correction to forces

   POTIM  = 0.5000    time-step for ionic-motion
   TEIN   =    0.0    initial temperature
   TEBEG  =    0.0;   TEEND  =   0.0 temperature during run
   SMASS  =  -3.00    Nose mass-parameter (am)
   estimated Nose-frequenzy (Omega)   =  0.10E-29 period in steps = 0.13E+47 mass=  -0.745E-26a.u.
   SCALEE = 1.0000    scale energy and forces
   NPACO  =    256;   APACO  = 16.0  distance and # of slots for P.C.
   PSTRESS=    0.0 pullay stress

  Mass of Ions in am
   POMASS =   1.00 12.01 14.00126.90207.20
  Ionic Valenz
   ZVAL   =   1.00  4.00  5.00  7.00  4.00
  Atomic Wigner-Seitz radii
   RWIGS  =  -1.00 -1.00 -1.00 -1.00 -1.00
  virtual crystal weights 
   VCA    =   1.00  1.00  1.00  1.00  1.00
   NELECT =    1134.0000    total number of electrons
   NUPDOWN=      -1.0000    fix difference up-down

 DOS related values:
   EMIN   =  10.00;   EMAX   =-10.00  energy-range for DOS
   EFERMI =   0.00
   ISMEAR =     0;   SIGMA  =   0.05  broadening in eV -4-tet -1-fermi 0-gaus

 Electronic relaxation 2 (details)
   IALGO  =     38    algorithm
   LDIAG  =      T    sub-space diagonalisation (order eigenvalues)
   LSUBROT=      F    optimize rotation matrix (better conditioning)
   TURBO    =      0    0=normal 1=particle mesh
   IRESTART =      0    0=no restart 2=restart with 2 vectors
   NREBOOT  =      0    no. of reboots
   NMIN     =      0    reboot dimension
   EREF     =   0.00    reference energy to select bands
   IMIX   =      4    mixing-type and parameters
     AMIX     =   0.40;   BMIX     =  0.01
     AMIX_MAG =   1.60;   BMIX_MAG =  0.01
     AMIN     =   0.01
     WC   =   100.;   INIMIX=   1;  MIXPRE=   1;  MAXMIX= -45

 Intra band minimization:
   WEIMIN = 0.0000     energy-eigenvalue tresh-hold
   EBREAK =  0.34E-07  absolut break condition
   DEPER  =   0.30     relativ break condition  

   TIME   =   0.40     timestep for ELM

  volume/ion in A,a.u.               =      62.72       423.28
  Fermi-wavevector in a.u.,A,eV,Ry     =   0.624944  1.180972  5.313816  0.390554
  Thomas-Fermi vector in A             =   1.685677
 
 Write flags
   LWAVE        =      F    write WAVECAR
   LDOWNSAMPLE  =      F    k-point downsampling of WAVECAR
   LCHARG       =      T    write CHGCAR
   LVTOT        =      T    write LOCPOT, total local potential
   LVHAR        =      F    write LOCPOT, Hartree potential only
   LELF         =      F    write electronic localiz. function (ELF)
   LORBIT       =      0    0 simple, 1 ext, 2 COOP (PROOUT), +10 PAW based schemes


 Dipole corrections
   LMONO  =      F    monopole corrections only (constant potential shift)
   LDIPOL =      T    correct potential (dipole corrections)
   IDIPOL =      3    1-x, 2-y, 3-z, 4-all directions 
   EPSILON=  1.0000000 bulk dielectric constant

 Exchange correlation treatment:
   GGA     =    --    GGA type
   LEXCH   =     8    internal setting for exchange type
   VOSKOWN=      0    Vosko Wilk Nusair interpolation
   LHFCALC =     F    Hartree Fock is set to
   LHFONE  =     F    Hartree Fock one center treatment
   AEXX    =    0.0000 exact exchange contribution

 Linear response parameters
   LEPSILON=     F    determine dielectric tensor
   LRPA    =     F    only Hartree local field effects (RPA)
   LNABLA  =     F    use nabla operator in PAW spheres
   LVEL    =     F    velocity operator in full k-point grid
   LINTERFAST=   F  fast interpolation
   KINTER  =     0    interpolate to denser k-point grid
   CSHIFT  =0.1000    complex shift for real part using Kramers Kronig
   OMEGAMAX=  -1.0    maximum frequency
   DEG_THRESHOLD= 0.2000000E-02 threshold for treating states as degnerate
   RTIME   =   -0.100 relaxation time in fs
  (WPLASMAI=    0.000 imaginary part of plasma frequency in eV, 0.658/RTIME)
   DFIELD  = 0.0000000 0.0000000 0.0000000 field for delta impulse in time
 
 Orbital magnetization related:
   ORBITALMAG=     F  switch on orbital magnetization
   LCHIMAG   =     F  perturbation theory with respect to B field
   DQ        =  0.001000  dq finite difference perturbation B field
   LLRAUG    =     F  two centre corrections for induced B field



--------------------------------------------------------------------------------------------------------


 Static calculation
 charge density and potential will be updated during run
 non-spin polarized calculation
 Variant of blocked Davidson
 Davidson routine will perform the subspace rotation
 perform sub-space diagonalisation
    after iterative eigenvector-optimisation
 modified Broyden-mixing scheme, WC =      100.0
 initial mixing is a Kerker type mixing with AMIX =  0.4000 and BMIX =      0.0100
 Hartree-type preconditioning will be used
 using additional bands           165
 real space projection scheme for non local part
[...]
     13.54561      0.00000     45.35368         0.004412     -0.007605      0.014216
     13.54315      9.03140     45.35368        -0.006654      0.000981     -0.012738
     13.00519      8.02482     33.68763        -0.001163      0.041760     -0.021608
     13.38622      8.96013     32.24806        -0.018194      0.053467     -0.112506
     11.97250      9.98186     34.75945        -0.084922     -0.001844      0.026572
     12.81494     11.53710     34.67492         0.018053     -0.003528     -0.000561
     15.40601      9.19559     35.44428        -0.040849      0.019091     -0.001849
     14.32149     10.45793     36.04626        -0.027954     -0.045673      0.003515
     15.85608     10.10700     33.17131        -0.016042      0.032751      0.050577
     14.59871     11.19944     32.54488        -0.021767     -0.072608      0.014624
     15.76417      8.32901     32.34598        -0.021060      0.053363      0.030876
     15.57290      7.68249     33.97094         0.013214     -0.046160     -0.097454
     15.76280      5.88398     32.40263        -0.016363      0.024336     -0.002805
     14.15973      5.84973     33.11248        -0.025219     -0.041517      0.062681
     11.52907      9.97105     32.35474        -0.004233      0.043456     -0.058704
     12.54712     11.42515     32.09274         0.031192      0.030742     -0.003766
     11.05725     11.52864     33.03392         0.134132     -0.048666     -0.004459
     13.78070      8.42574     37.19215        -0.069277     -0.016077      0.041549
     13.62811      7.46469     35.72217        -0.009919      0.049339     -0.000409
     12.41268      8.71766     36.11315         0.097408     -0.059600      0.043851
     14.78417     12.49582     34.79997         0.018275     -0.005167     -0.047413
     16.19473     12.51344     33.73406        -0.031303      0.000344      0.045628
     16.21023     11.45137     35.15163        -0.054983      0.019640      0.005882
     14.81104      6.87549     30.29690         0.078361      0.063132     -0.093971
     14.20515      5.27190     30.70297        -0.002277      0.021046      0.019356
     11.95965      5.47108     32.37526        -0.023335     -0.002634      0.030410
     13.23025      8.32840     29.41487        -0.041638     -0.019229      0.012785
      9.66208      6.39956     32.29018        -0.004853      0.018401     -0.012159
     10.92110      9.23998     29.29715        -0.006693     -0.096468      0.101366
      9.13245      8.31025     30.77181         0.110248     -0.093450      0.001325
     17.97394      4.35455     34.62923         0.230108      0.093062      0.367428
      0.59443     13.90039     35.23205         0.005203      0.053021     -0.012633
      8.42875      4.11065     34.80362        -0.296243     -0.051377      0.063492
      9.06465     13.67701     34.69952         0.118975     -0.316187     -0.142056
      4.22982      9.64144     34.95272        -0.108365     -0.205988     -0.032957
      4.77530     17.92266     34.81737         0.242267     -0.012233      0.054740
     14.06112     17.76042     35.15126        -0.165856     -0.067939     -0.044875
      0.09238      4.42113     40.52968        -0.028575      0.004360      0.197654
      0.28314     13.86236     40.83156        -0.073897      0.093936     -0.077089
      9.02544      4.48129     40.44998         0.043593      0.003104      0.034576
      8.96879     13.58434     40.47202         0.062698     -0.058931      0.164196
      4.60730      8.99985     40.51225        -0.107540     -0.073045     -0.030548
      4.49320      0.02746     40.43110        -0.372756     -0.315384     -0.016704
     13.44543      9.37481     40.81634         0.196012     -0.401855      0.120141
     13.58148     18.05427     40.59271        -0.297427     -0.270279      0.079407
      9.02897      4.51561     46.44552         0.008468      0.007565      0.020748
      9.02651     13.54701     46.44552         0.020686     -0.005202      0.036717
     18.05937      4.51561     46.44552         0.015242      0.005511      0.034525
     18.05691     13.54701     46.44552         0.017273      0.000677     -0.001142
      4.51521      0.00002     46.44421        -0.002754     -0.005793      0.047539
      4.51275      9.03142     46.44421        -0.006717     -0.006822      0.037986
     13.54561      0.00002     46.44421        -0.014057     -0.016105      0.033985
     13.54315      9.03142     46.44421        -0.011261     -0.006540      0.011810
     12.76276      6.84401     30.91050        -0.085206      0.019009     -0.026355
     11.73246      6.30177     31.70311         0.161119     -0.030995     -0.081529
     12.44561      7.89699     30.04355        -0.235656      0.074120      0.000013
     10.44046      6.81908     31.65127        -0.032757      0.051812     -0.042149
     11.13811      8.41364     29.98278         0.486966      0.115556     -0.253200
     10.14142      7.88597     30.79194        -0.307612     -0.063812      0.199534
     13.78824      8.62239     33.20274        -0.036509      0.129311      0.081764
     12.61810     10.60310     34.13414         0.022983      0.065398     -0.073577
     14.35462      9.51652     35.48445        -0.005272     -0.058362     -0.060871
     15.03249     10.77089     33.45836        -0.132688      0.001612     -0.160060
     15.05485      7.80629     33.00543         0.185768     -0.028032     -0.026234
     14.79659      6.41488     32.42133        -0.048542     -0.118981     -0.052578
     11.92415     10.88423     32.81530        -0.081483     -0.027454      0.018733
     13.48209      8.47073     36.13943        -0.027631     -0.022780     -0.028273
     15.56904     11.86368     34.36388         0.038936     -0.039704     -0.067192
     14.18105      6.33069     31.01217        -0.022554      0.034388      0.107621
      1.04509      4.67871     35.21614        -0.117202      0.125705     -0.093759
      0.53748     12.81189     35.95616        -0.159443     -0.088484      0.110420
      9.66480      3.79487     35.08884         0.017992      0.010366     -0.088376
      8.71079     12.49701     35.15186        -0.056954     -0.064439      0.046644
      7.90433      5.31423     34.85032        -0.004877     -0.169656     -0.052871
      8.57583     14.80812     35.13384        -0.080186      0.339840      0.148442
     16.79026      4.54880     35.16715         0.106303      0.156194     -0.174225
     17.67813     14.78026     35.12978         0.133321      0.005448     -0.151773
      4.11768      8.39932     35.38073         0.477687      0.278454     -0.099652
      3.57376      0.20031     35.19841         0.053709      0.013897     -0.059126
     12.80867     17.79852     35.55480         0.390091      0.386431      0.028401
      5.85765      0.57043     35.07759        -0.478540      0.119202      0.033837
      5.35958     10.25737     34.69043        -0.212170      0.037962     -0.047453
     14.87982      0.72335     35.10756        -0.115070     -0.043986     -0.067507
      0.89581      3.55430     41.09708         0.165983     -0.154688      0.020040
      1.04692     12.82941     41.09838        -0.069932     -0.044470      0.082397
      9.83281      3.69233     41.12088        -0.040641      0.045678      0.080797
      9.75620     12.70520     41.04721         0.030292      0.012331      0.522806
      3.84384      8.12046     41.11417        -0.106450     -0.083679      0.291592
      3.65130     17.27037     41.03433         0.337762      0.306012      0.249537
     12.60238      8.40926     41.10298         0.033912      0.013783     -0.015396
     12.78435     17.24073     41.25215         0.181598      0.202303      0.238039
      8.15494      5.30833     40.97540        -0.123461      0.091458      0.172857
      8.21440     14.46362     41.08451        -0.088531      0.080135      0.122489
     17.25665      5.15738     41.14812         0.088533     -0.064982     -0.066196
     17.09439     13.98880     41.21684         0.035068     -0.073095      0.037955
      5.33205      0.84466     41.01173         0.111012      0.128155      0.366807
      5.29243      9.95336     41.09302         0.298211      0.374039      0.086730
     14.39809      0.86954     41.12164         0.234024      0.208434      0.163582
     14.74982      9.29469     40.97488        -0.029310     -0.099974      0.078735
      0.82731      3.68697     47.03596         0.017938     -0.027802     -0.089051
      0.82485     12.71837     47.03596         0.023726     -0.023620     -0.067185
      9.85771      3.68697     47.03596         0.024816     -0.030437     -0.077499
      9.85525     12.71837     47.03596         0.013668     -0.016938     -0.077242
      3.68432      8.20234     47.03465        -0.006558     -0.010545     -0.063710
      3.68186     17.23373     47.03465        -0.010722     -0.005805     -0.063670
     12.71472      8.20234     47.03465        -0.005764     -0.010908     -0.052196
     12.71226     17.23373     47.03465        -0.008260     -0.002997     -0.074109
      8.20068      5.34457     47.03603        -0.022645      0.016358     -0.080598
      8.19822     14.37597     47.03603        -0.025602      0.023861     -0.082580
     17.23108      5.34457     47.03603        -0.027967      0.018102     -0.100363
     17.22862     14.37597     47.03603        -0.022909      0.026896     -0.066041
      5.34365      0.82909     47.03465         0.011980      0.013693     -0.067099
      5.34119      9.86049     47.03465         0.018053      0.015352     -0.062474
     14.37405      0.82909     47.03465         0.023561      0.025178     -0.069571
     14.37159      9.86049     47.03465         0.022940      0.021379     -0.064469
     13.95033      9.87169     34.05643         0.207209      0.041942      0.061226
      9.34745      0.20327     34.57425         0.001419      0.014154     -0.007201
      8.82844      8.95139     34.54083        -0.012173      0.022567      0.015258
      0.18547      0.13496     34.37411        -0.000987      0.013121      0.015493
      0.44774      9.03475     34.63858        -0.013817     -0.004413      0.034406
      4.53391      4.24677     34.54644        -0.004407     -0.010394      0.010984
      4.58690     13.75603     34.50530        -0.025623      0.028500      0.040781
     13.27430      3.83539     34.73155        -0.006009     -0.017934     -0.007351
     12.62803     14.38616     34.70009         0.038464     -0.028401     -0.005963
     18.03546     17.85136     40.84695        -0.022201     -0.018205      0.016675
      0.22943      9.00719     40.95601         0.017095      0.003108     -0.037946
      8.94319      0.07234     40.93928         0.006894     -0.000772     -0.028094
      9.03316      8.93443     40.88661         0.009587      0.018865     -0.037364
      4.55667      4.44822     40.91086         0.005171      0.007591     -0.028598
      4.58416     13.63830     40.88578        -0.037962     -0.012062     -0.013658
     13.49532      4.85988     40.93539         0.002533     -0.015055     -0.000709
     13.49383     13.37409     40.90009         0.011758     -0.006020      0.006240
      2.33999      2.21391     37.94571         0.007891     -0.014936      0.004005
      2.73829     10.97473     37.97403        -0.025714     -0.015167     -0.015467
     11.54415      2.06213     38.21081        -0.001688      0.007680      0.008164
     11.40947     11.16911     37.92362        -0.037684      0.002588      0.012883
      6.51542      7.03534     37.84476         0.033202     -0.011576     -0.018027
      6.66731     16.01410     37.95042         0.010774     -0.037084     -0.013737
     16.04228      6.64665     37.97892         0.034802     -0.002918      0.002865
     15.66142     15.94192     37.87431        -0.012334     -0.022478      0.011315
      2.19680      6.59991     38.05710         0.006720     -0.001286     -0.023250
      2.22426     15.81040     37.91303        -0.003816     -0.002882     -0.030061
     10.76446      6.27616     37.58324         0.026335      0.024774     -0.032550
     11.14105     15.66149     38.40324        -0.024628      0.013332     -0.020661
      7.00104      2.42014     37.94852        -0.000280      0.021129     -0.011017
      6.96723     11.48696     38.08392         0.000860     -0.025581     -0.041814
     15.96480      2.47241     38.18576        -0.033802     -0.044142     -0.000144
     16.17500     11.55650     38.32681        -0.057482      0.029820     -0.156936
      0.00000      0.00000     47.17356        -0.001238      0.006179      0.331732
     -0.00246      9.03140     47.17356        -0.002824     -0.003267      0.478862
      9.03040      0.00000     47.17356         0.001375      0.000810      0.424081
      9.02794      9.03140     47.17356        -0.003473      0.000229      0.397638
      4.51398      4.51570     47.17425        -0.001492     -0.005258      0.421277
      4.51152     13.54710     47.17425         0.003004      0.001050      0.408763
     13.54438      4.51570     47.17425         0.007354     -0.001365      0.403167
     13.54192     13.54710     47.17425        -0.001789     -0.001570      0.409427
      2.45192      2.06295     44.04013        -0.011797     -0.030876     -0.040885
      2.44946     11.09435     44.04013         0.052532     -0.025634     -0.025618
     11.48232      2.06295     44.04013         0.027268      0.011418     -0.068524
     11.47986     11.09435     44.04013        -0.083680      0.042377     -0.046114
      6.57602      6.96845     44.04013         0.008589     -0.036511     -0.077805
      6.57356     15.99985     44.04013         0.017726      0.009807     -0.036196
     15.60642      6.96845     44.04013         0.019495     -0.026212     -0.090062
     15.60396     15.99985     44.04013        -0.037444      0.046575     -0.040917
      2.06108      6.57881     44.04000         0.041751     -0.022549     -0.030244
      2.05862     15.61021     44.04000         0.044970      0.069087     -0.037881
     11.09148      6.57881     44.04000        -0.026383     -0.037964     -0.006205
     11.08902     15.61021     44.04000        -0.030515     -0.004841     -0.035328
      6.96686      2.45259     44.04007        -0.016111     -0.012821     -0.053966
      6.96440     11.48399     44.04007        -0.010039      0.004852     -0.063110
     15.99726      2.45259     44.04007         0.021030      0.018788     -0.085057
     15.99481     11.48399     44.04007         0.037877      0.030988     -0.114256
      2.43163      2.08322     50.06849         0.002414     -0.017390      0.020718
      2.42917     11.11462     50.06849         0.015784     -0.006042      0.024322
     11.46203      2.08322     50.06849         0.012851     -0.009443      0.021989
     11.45957     11.11462     50.06849         0.009308     -0.011041      0.023662
      6.59631      6.94818     50.06849        -0.011524      0.008631      0.023338
      6.59385     15.97958     50.06849        -0.008965      0.011859      0.022404
     15.62671      6.94818     50.06849        -0.016286      0.001050      0.021190
     15.62425     15.97958     50.06849        -0.003859      0.019435      0.023950
      2.08113      6.59901     50.06905        -0.005361     -0.017401      0.022811
      2.07867     15.63041     50.06905        -0.017440     -0.001367      0.022792
     11.11153      6.59901     50.06905        -0.008046     -0.013714      0.024023
     11.10907     15.63041     50.06905        -0.010658     -0.008777      0.022383
      6.94681      2.43239     50.06905         0.010371      0.008398      0.022388
      6.94435     11.46379     50.06905         0.010107      0.010299      0.023795
     15.97721      2.43239     50.06905         0.015781      0.004531      0.021003
     15.97475     11.46379     50.06905         0.004777      0.014298      0.024243
     18.01857      0.06986     37.72977         0.012741      0.003093     -0.000980
      0.10297      9.10648     37.75290         0.022361     -0.017514      0.024242
      9.11339      0.01839     37.83425         0.009887     -0.000457     -0.012463
      9.06551      9.00709     37.72221        -0.015164     -0.015705     -0.031516
      4.58344      4.49279     37.75576        -0.049143      0.033769      0.003389
      4.53712     13.60127     37.68322        -0.026121      0.006945     -0.025521
     13.48225      4.53485     37.81355         0.004564      0.012462      0.000467
     13.42856     13.65625     37.74326        -0.023413      0.013297     -0.044381
      0.00001      0.00001     44.04300        -0.006197     -0.141639      0.076408
     -0.00245      9.03141     44.04300         0.050086      0.018244      0.173655
      9.03041      0.00001     44.04300        -0.006754     -0.012400      0.185732
      9.02795      9.03141     44.04300         0.066315     -0.021308      0.159565
      4.51397      4.51569     44.04275         0.002149      0.051928      0.124388
      4.51151     13.54709     44.04275        -0.054723      0.006885      0.112259
     13.54437      4.51569     44.04275        -0.114201      0.042498      0.212867
     13.54191     13.54709     44.04275         0.002879     -0.007242      0.131218
      0.00000      0.00000     50.44728         0.000466     -0.004896     -0.609112
     -0.00246      9.03140     50.44728         0.001137      0.003765     -0.649546
      9.03040      0.00000     50.44728        -0.001608     -0.002067     -0.633446
      9.02794      9.03140     50.44728        -0.000353      0.001653     -0.630958
      4.51397      4.51570     50.44728         0.001908      0.008558     -0.633613
      4.51151     13.54710     50.44728         0.000800     -0.009597     -0.633208
     13.54437      4.51570     50.44728        -0.003261      0.008992     -0.627630
     13.54191     13.54710     50.44728         0.000438     -0.009580     -0.634442
 -----------------------------------------------------------------------------------
    total drift:                                0.018386      0.123860      0.209493


--------------------------------------------------------------------------------------------------------



  FREE ENERGIE OF THE ION-ELECTRON SYSTEM (eV)
  ---------------------------------------------------
  free  energy   TOTEN  =     -1576.16557048 eV

  energy  without entropy=    -1576.16557048  energy(sigma->0) =    -1576.16557048
 


--------------------------------------------------------------------------------------------------------


    POTLOK:  cpu time    0.4994: real time    0.4993


--------------------------------------------------------------------------------------------------------


     LOOP+:  cpu time  266.4367: real time  267.4339
 vacuum level on the upper side and lower side of the slab         2.337         1.510
    4ORBIT:  cpu time    0.0000: real time    0.0000

 total amount of memory used by VASP MPI-rank0  8653588. kBytes
=======================================================================

   base      :      30000. kBytes
   nonlr-proj:      53626. kBytes
   fftplans  :     249280. kBytes
   grid      :     701440. kBytes
   one-center:       2636. kBytes
   wavefun   :    7616606. kBytes
 
  
  
 General timing and accounting informations for this job:
 ========================================================
  
                  Total CPU time used (sec):      480.675
                            User time (sec):      392.574
                          System time (sec):       88.101
                         Elapsed time (sec):      481.685
  
                   Maximum memory used (kb):    10298496.
                   Average memory used (kb):          N/A
  
                          Minor page faults:      3578486
                          Major page faults:           12
                 Voluntary context switches:        11048
