 vasp.6.2.1 16May21 (build Nov 15 2021 14:57:28) complex                         
 executed on             LinuxPGI date 2023.07.24  23:33:33
 running on    4 total cores
 distrk:  each k-point on    4 cores,    1 groups
 distr:  one band on NCORE=   1 cores,    4 groups


--------------------------------------------------------------------------------------------------------


 INCAR:
   SYSTEM = PSC
   ISTART = 1
   ICHARG = 1
   PREC = Normal
   ENCUT = 500
   GGA_COMPAT = F
   NELM = 600
   ISYM = 0
   LREAL = Auto
   ISMEAR = 0
   SIGMA = 0.05
   AMIN = 0.01
   BMIX = 0.01
   LVTOT = T
   LWAVE = F
   LDIPOL = T
   IDIPOL = 3
   LVDW = T
   IVDW = 12

 POTCAR:    PAW_PBE H 15Jun2001                   
 POTCAR:    PAW_PBE C 08Apr2002                   
 POTCAR:    PAW_PBE N 08Apr2002                   
 POTCAR:    PAW_PBE I 08Apr2002                   
 POTCAR:    PAW_PBE Pb 08Apr2002                  
 WARNING: For LVTOT=.TRUE., VASP.5.x writes the TOTAL local potential to the
     file LOCPOT. If you want only the Hartree contributions, use LVHAR=.TRUE.
     instead. 

 POTCAR:    PAW_PBE H 15Jun2001                   
   SHA256 =  030f79b5d3ab3cf0e668861823c8fb652ff669f3e15e46930bd03bfd63a607b6 H/POTCAR              
   COPYR  = (c) Copyright 15Jun2001 Georg Kresse                                                    
   COPYR  = This file is part of the software VASP. Any use, copying, and all other rights are regul
   COPYR  = If you do not have a valid VASP license, you may not use, copy or distribute this file. 
   VRHFIN =H: ultrasoft test                                                                        
   LEXCH  = PE                                                                                      
   EATOM  =    12.4884 eV,    0.9179 Ry                                                             
                                                                                                    
   TITEL  = PAW_PBE H 15Jun2001                                                                     
   LULTRA =        F    use ultrasoft PP ?                                                          
   IUNSCR =        0    unscreen: 0-lin 1-nonlin 2-no                                               
   RPACOR =    0.000    partial core radius                                                         
   POMASS =    1.000; ZVAL   =    1.000    mass and valenz                                          
   RCORE  =    1.100    outmost cutoff radius                                                       
   RWIGS  =    0.700; RWIGS  =    0.370    wigner-seitz radius (au A)                               
   ENMAX  =  250.000; ENMIN  =  200.000 eV                                                          
   RCLOC  =    0.701    cutoff for local pot                                                        
   LCOR   =        T    correct aug charges                                                         
   LPAW   =        T    paw PP                                                                      
   EAUG   =  400.000                                                                                
   RMAX   =    1.123    core radius for proj-oper                                                   
   RAUG   =    1.200    factor for augmentation sphere                                              
   RDEP   =    1.112    radius for radial grids                                                     
   RDEPT  =    0.926    core radius for aug-charge                                                  
                                                                                                    
   Atomic configuration                                                                             
    2 entries                                                                                       
     n  l   j            E        occ.                                                              
     1  0  0.50        -6.4927   1.0000                                                             
     2  1  0.50        -3.4015   0.0000                                                             
   Description                                                                                      
     l       E           TYP  RCUT    TYP  RCUT                                                     
     0     -6.4927494     23  1.100                                                                 
     0      6.8029130     23  1.100                                                                 
     1     -4.0817478     23  1.100                                                                 
  local pseudopotential read in
  atomic valenz-charges read in
  non local Contribution for L=            0  read in
    real space projection operators read in
  non local Contribution for L=            0  read in
    real space projection operators read in
  non local Contribution for L=            1  read in
    real space projection operators read in
    PAW grid and wavefunctions read in
 
   number of l-projection  operators is LMAX  =            3
   number of lm-projection operators is LMMAX =            5
 
 POTCAR:    PAW_PBE C 08Apr2002                   
   SHA256 =  253f7b50bb8d59471dbedb8285d89021f4a42ed1a2c5d38a03a736e69125dd95 C/POTCAR              
   COPYR  = (c) Copyright 08Apr2002 Georg Kresse                                                    
   COPYR  = This file is part of the software VASP. Any use, copying, and all other rights are regul
   COPYR  = If you do not have a valid VASP license, you may not use, copy or distribute this file. 
   VRHFIN =C: s2p2                                                                                  
   LEXCH  = PE                                                                                      
   EATOM  =   147.1560 eV,   10.8157 Ry                                                             
                                                                                                    
   TITEL  = PAW_PBE C 08Apr2002                                                                     
   LULTRA =        F    use ultrasoft PP ?                                                          
   IUNSCR =        1    unscreen: 0-lin 1-nonlin 2-no                                               
   RPACOR =    1.200    partial core radius                                                         
   POMASS =   12.011; ZVAL   =    4.000    mass and valenz                                          
   RCORE  =    1.500    outmost cutoff radius                                                       
   RWIGS  =    1.630; RWIGS  =    0.863    wigner-seitz radius (au A)                               
   ENMAX  =  400.000; ENMIN  =  300.000 eV                                                          
   ICORE  =        2    local potential                                                             
   LCOR   =        T    correct aug charges                                                         
   LPAW   =        T    paw PP                                                                      
   EAUG   =  644.873                                                                                
   DEXC   =    0.000                                                                                
   RMAX   =    1.529    core radius for proj-oper                                                   
   RAUG   =    1.300    factor for augmentation sphere                                              
   RDEP   =    1.501    radius for radial grids                                                     
   RDEPT  =    1.300    core radius for aug-charge                                                  
                                                                                                    
   Atomic configuration                                                                             
    4 entries                                                                                       
     n  l   j            E        occ.                                                              
     1  0  0.50      -273.3789   2.0000                                                             
     2  0  0.50       -13.7508   2.0000                                                             
     2  1  0.50        -5.2854   2.0000                                                             
     3  2  1.50        -5.4423   0.0000                                                             
   Description                                                                                      
     l       E           TYP  RCUT    TYP  RCUT                                                     
     0    -13.7508458     23  1.200                                                                 
     0     -8.2022199     23  1.200                                                                 
     1     -5.2854383     23  1.500                                                                 
     1     34.0145650     23  1.500                                                                 
     2     -5.4423304      7  1.500                                                                 
  local pseudopotential read in
  partial core-charges read in
  partial kinetic energy density read in
  atomic valenz-charges read in
  non local Contribution for L=            0  read in
    real space projection operators read in
  non local Contribution for L=            0  read in
    real space projection operators read in
  non local Contribution for L=            1  read in
    real space projection operators read in
  non local Contribution for L=            1  read in
    real space projection operators read in
    PAW grid and wavefunctions read in
 
   number of l-projection  operators is LMAX  =            4
   number of lm-projection operators is LMMAX =            8
 
 POTCAR:    PAW_PBE N 08Apr2002                   
   SHA256 =  e053789ff3a61a86a1b75d8a110fcc91f86041011e7b0817c7c99e4e8a6349d7 N/POTCAR              
   COPYR  = (c) Copyright 08Apr2002 Georg Kresse                                                    
   COPYR  = This file is part of the software VASP. Any use, copying, and all other rights are regul
   COPYR  = If you do not have a valid VASP license, you may not use, copy or distribute this file. 
   VRHFIN =N: s2p3                                                                                  
   LEXCH  = PE                                                                                      
   EATOM  =   264.5486 eV,   19.4438 Ry                                                             
                                                                                                    
   TITEL  = PAW_PBE N 08Apr2002                                                                     
   LULTRA =        F    use ultrasoft PP ?                                                          
   IUNSCR =        1    unscreen: 0-lin 1-nonlin 2-no                                               
   RPACOR =    1.200    partial core radius                                                         
   POMASS =   14.001; ZVAL   =    5.000    mass and valenz                                          
   RCORE  =    1.500    outmost cutoff radius                                                       
   RWIGS  =    1.400; RWIGS  =    0.741    wigner-seitz radius (au A)                               
   ENMAX  =  400.000; ENMIN  =  300.000 eV                                                          
   ICORE  =        2    local potential                                                             
   LCOR   =        T    correct aug charges                                                         
   LPAW   =        T    paw PP                                                                      
   EAUG   =  627.112                                                                                
   DEXC   =    0.000                                                                                
   RMAX   =    1.529    core radius for proj-oper                                                   
   RAUG   =    1.300    factor for augmentation sphere                                              
   RDEP   =    1.514    radius for radial grids                                                     
   RDEPT  =    1.338    core radius for aug-charge                                                  
                                                                                                    
   Atomic configuration                                                                             
    4 entries                                                                                       
     n  l   j            E        occ.                                                              
     1  0  0.50      -384.7179   2.0000                                                             
     2  0  0.50       -18.5828   2.0000                                                             
     2  1  0.50        -7.0898   3.0000                                                             
     3  2  1.50        -6.8029   0.0000                                                             
   Description                                                                                      
     l       E           TYP  RCUT    TYP  RCUT                                                     
     0    -18.5828119     23  1.200                                                                 
     0    -13.5018863     23  1.200                                                                 
     1     -7.0897853     23  1.500                                                                 
     1      9.5240782     23  1.500                                                                 
     2     -6.8029130      7  1.500                                                                 
  local pseudopotential read in
  partial core-charges read in
  partial kinetic energy density read in
  atomic valenz-charges read in
  non local Contribution for L=            0  read in
    real space projection operators read in
  non local Contribution for L=            0  read in
    real space projection operators read in
  non local Contribution for L=            1  read in
    real space projection operators read in
  non local Contribution for L=            1  read in
    real space projection operators read in
    PAW grid and wavefunctions read in
 
   number of l-projection  operators is LMAX  =            4
   number of lm-projection operators is LMMAX =            8
 
 POTCAR:    PAW_PBE I 08Apr2002                   
   SHA256 =  e40f3f59b681c1fc3e3091736183c4589116986673d2b852a5012aec72758799 I/POTCAR              
   COPYR  = (c) Copyright 08Apr2002 Georg Kresse                                                    
   COPYR  = This file is part of the software VASP. Any use, copying, and all other rights are regul
   COPYR  = If you do not have a valid VASP license, you may not use, copy or distribute this file. 
   VRHFIN =I : s2p5                                                                                 
   LEXCH  = PE                                                                                      
   EATOM  =   315.8678 eV,   23.2156 Ry                                                             
                                                                                                    
   TITEL  = PAW_PBE I 08Apr2002                                                                     
   LULTRA =        F    use ultrasoft PP ?                                                          
   IUNSCR =        1    unscreen: 0-lin 1-nonlin 2-no                                               
   RPACOR =    2.200    partial core radius                                                         
   POMASS =  126.904; ZVAL   =    7.000    mass and valenz                                          
   RCORE  =    2.300    outmost cutoff radius                                                       
   RWIGS  =    2.810; RWIGS  =    1.487    wigner-seitz radius (au A)                               
   ENMAX  =  175.647; ENMIN  =  131.735 eV                                                          
   ICORE  =        3    local potential                                                             
   LCOR   =        T    correct aug charges                                                         
   LPAW   =        T    paw PP                                                                      
   EAUG   =  370.139                                                                                
   DEXC   =    0.000                                                                                
   RMAX   =    2.359    core radius for proj-oper                                                   
   RAUG   =    1.300    factor for augmentation sphere                                              
   RDEP   =    2.392    radius for radial grids                                                     
   RDEPT  =    2.170    core radius for aug-charge                                                  
                                                                                                    
   Atomic configuration                                                                             
   13 entries                                                                                       
     n  l   j            E        occ.                                                              
     1  0  0.50    -32976.3739   2.0000                                                             
     2  0  0.50     -5094.5933   2.0000                                                             
     2  1  1.50     -4572.0131   6.0000                                                             
     3  0  0.50     -1028.2813   2.0000                                                             
     3  1  1.50      -859.0250   6.0000                                                             
     3  2  2.50      -605.7620  10.0000                                                             
     4  0  0.50      -180.5540   2.0000                                                             
     4  1  1.50      -127.5306   6.0000                                                             
     4  2  2.50       -50.2720  10.0000                                                             
     5  0  0.50       -17.4058   2.0000                                                             
     5  1  0.50        -7.0851   5.0000                                                             
     5  2  1.50        -7.0750   0.0000                                                             
     4  3  2.50        -7.0750   0.0000                                                             
   Description                                                                                      
     l       E           TYP  RCUT    TYP  RCUT                                                     
     0    -17.4058016     23  2.300                                                                 
     0    -18.7663842     23  2.300                                                                 
     1     -7.0850686     23  2.300                                                                 
     1     -4.2150896     23  2.300                                                                 
     2     -7.0750295     23  2.300                                                                 
     3     -1.3605826     23  2.300                                                                 
  local pseudopotential read in
  partial core-charges read in
  partial kinetic energy density read in
  atomic valenz-charges read in
  non local Contribution for L=            0  read in
    real space projection operators read in
  non local Contribution for L=            0  read in
    real space projection operators read in
  non local Contribution for L=            1  read in
    real space projection operators read in
  non local Contribution for L=            1  read in
    real space projection operators read in
  non local Contribution for L=            2  read in
    real space projection operators read in
    PAW grid and wavefunctions read in
 
   number of l-projection  operators is LMAX  =            5
   number of lm-projection operators is LMMAX =           13
 
 POTCAR:    PAW_PBE Pb 08Apr2002                  
   SHA256 =  797118a27cf1bcd06b9881c67a26cdde129e3cd1a551dd4a281f9681ce847303 Pb/POTCAR             
   COPYR  = (c) Copyright 08Apr2002 Georg Kresse                                                    
   COPYR  = This file is part of the software VASP. Any use, copying, and all other rights are regul
   COPYR  = If you do not have a valid VASP license, you may not use, copy or distribute this file. 
   VRHFIN =Pb:                                                                                      
   LEXCH  = PE                                                                                      
   EATOM  =    96.9868 eV,    7.1283 Ry                                                             
                                                                                                    
   TITEL  = PAW_PBE Pb 08Apr2002                                                                    
   LULTRA =        F    use ultrasoft PP ?                                                          
   IUNSCR =        1    unscreen: 0-lin 1-nonlin 2-no                                               
   RPACOR =    2.200    partial core radius                                                         
   POMASS =  207.200; ZVAL   =    4.000    mass and valenz                                          
   RCORE  =    3.100    outmost cutoff radius                                                       
   RWIGS  =    3.260; RWIGS  =    1.725    wigner-seitz radius (au A)                               
   ENMAX  =   97.973; ENMIN  =   73.480 eV                                                          
   ICORE  =        3    local potential                                                             
   LCOR   =        T    correct aug charges                                                         
   LPAW   =        T    paw PP                                                                      
   EAUG   =  234.873                                                                                
   DEXC   =    0.000                                                                                
   RMAX   =    3.158    core radius for proj-oper                                                   
   RAUG   =    1.300    factor for augmentation sphere                                              
   RDEP   =    3.202    radius for radial grids                                                     
   RDEPT  =    2.659    core radius for aug-charge                                                  
                                                                                                    
   Atomic configuration                                                                             
   17 entries                                                                                       
     n  l   j            E        occ.                                                              
     1  0  0.50    -88091.8466   2.0000                                                             
     2  0  0.50    -15753.4197   2.0000                                                             
     2  1  1.50    -13508.1797   6.0000                                                             
     3  0  0.50     -3781.7194   2.0000                                                             
     3  1  1.50     -3138.2529   6.0000                                                             
     3  2  2.50     -2483.2977  10.0000                                                             
     4  0  0.50      -856.2895   2.0000                                                             
     4  1  1.50      -645.4943   6.0000                                                             
     4  2  2.50      -401.8768  10.0000                                                             
     4  3  3.50      -132.9059  14.0000                                                             
     5  0  0.50      -144.0950   2.0000                                                             
     5  1  1.50       -85.7879   6.0000                                                             
     5  2  2.50       -21.1769  10.0000                                                             
     6  0  0.50       -12.0372   2.0000                                                             
     6  1  1.50        -3.4971   2.0000                                                             
     6  2  2.50        -1.3606   0.0000                                                             
     5  3  2.50        -2.7212   0.0000                                                             
   Description                                                                                      
     l       E           TYP  RCUT    TYP  RCUT                                                     
     0    -12.0371566     23  3.100                                                                 
     0    -13.3977392     23  3.100                                                                 
     1     -3.4971341     23  3.100                                                                 
     1     -5.4423304     23  3.100                                                                 
     2     -1.3605826     23  3.100                                                                 
     3     -1.3605826     23  3.100                                                                 
  local pseudopotential read in
  partial core-charges read in
  partial kinetic energy density read in
  atomic valenz-charges read in
  non local Contribution for L=            0  read in
    real space projection operators read in
  non local Contribution for L=            0  read in
    real space projection operators read in
  non local Contribution for L=            1  read in
    real space projection operators read in
  non local Contribution for L=            1  read in
    real space projection operators read in
  non local Contribution for L=            2  read in
    real space projection operators read in
    PAW grid and wavefunctions read in
 
   number of l-projection  operators is LMAX  =            5
   number of lm-projection operators is LMMAX =           13
 
 Optimization of the real space projectors (new method)

 maximal supplied QI-value         = 34.20
 optimisation between [QCUT,QGAM] = [ 11.29, 22.57] = [ 35.68,142.71] Ry 
 Optimized for a Real-space Cutoff    1.16 Angstroem

   l    n(q)    QCUT    max X(q) W(low)/X(q) W(high)/X(q)  e(spline) 
   0      8    11.287    19.460    0.40E-03    0.73E-03    0.16E-06
   0      8    11.287    12.209    0.38E-03    0.70E-03    0.15E-06
   1      7    11.287     4.655    0.22E-03    0.25E-04    0.22E-06
 Optimization of the real space projectors (new method)

 maximal supplied QI-value         = 25.13
 optimisation between [QCUT,QGAM] = [ 11.31, 22.87] = [ 35.82,146.48] Ry 
 Optimized for a Real-space Cutoff    1.00 Angstroem

   l    n(q)    QCUT    max X(q) W(low)/X(q) W(high)/X(q)  e(spline) 
   0      7    11.310   115.676    0.43E-03    0.13E-02    0.19E-06
   0      7    11.310    87.132    0.43E-03    0.13E-02    0.18E-06
   1      6    11.310     4.429    0.42E-03    0.74E-03    0.11E-06
   1      6    11.310     2.733    0.34E-03    0.55E-03    0.92E-07
 Optimization of the real space projectors (new method)

 maximal supplied QI-value         = 25.13
 optimisation between [QCUT,QGAM] = [ 11.31, 22.87] = [ 35.82,146.48] Ry 
 Optimized for a Real-space Cutoff    1.27 Angstroem

   l    n(q)    QCUT    max X(q) W(low)/X(q) W(high)/X(q)  e(spline) 
   0      9    11.310    79.467    0.75E-04    0.16E-03    0.36E-06
   0      9    11.310    66.151    0.74E-04    0.16E-03    0.36E-06
   1      8    11.310    17.416    0.35E-03    0.12E-03    0.95E-06
   1      8    11.310    12.382    0.37E-03    0.13E-03    0.98E-06
 Optimization of the real space projectors (new method)

 maximal supplied QI-value         = 16.25
 optimisation between [QCUT,QGAM] = [ 11.38, 22.75] = [ 36.24,144.96] Ry 
 Optimized for a Real-space Cutoff    1.31 Angstroem

   l    n(q)    QCUT    max X(q) W(low)/X(q) W(high)/X(q)  e(spline) 
   0      9    11.376   194.483    0.24E-03    0.23E-03    0.67E-07
   0      9    11.376   190.334    0.23E-03    0.22E-03    0.65E-07
   1      8    11.376   116.687    0.25E-03    0.63E-04    0.16E-06
   1      8    11.376    88.696    0.25E-03    0.61E-04    0.16E-06
   2      8    11.376     4.877    0.17E-03    0.14E-03    0.29E-07
 Optimization of the real space projectors (new method)

 maximal supplied QI-value         = 12.09
 optimisation between [QCUT,QGAM] = [ 11.37, 22.86] = [ 36.19,146.31] Ry 
 Optimized for a Real-space Cutoff    1.66 Angstroem

   l    n(q)    QCUT    max X(q) W(low)/X(q) W(high)/X(q)  e(spline) 
   0     11    11.369   135.111    0.12E-03    0.69E-04    0.19E-05
   0     11    11.369   146.850    0.11E-03    0.65E-04    0.18E-05
   1     11    11.369   148.016    0.17E-03    0.32E-03    0.89E-06
   1     11    11.369   122.989    0.17E-03    0.32E-03    0.91E-06
   2     10    11.369     8.916    0.12E-03    0.45E-04    0.33E-06
  PAW_PBE H 15Jun2001                   :
 energy of atom  1       EATOM=  -12.4884
 kinetic energy error for atom=    0.0020 (will be added to EATOM!!)
  PAW_PBE C 08Apr2002                   :
 energy of atom  2       EATOM= -147.1560
 kinetic energy error for atom=    0.0076 (will be added to EATOM!!)
  PAW_PBE N 08Apr2002                   :
 energy of atom  3       EATOM= -264.5486
 kinetic energy error for atom=    0.0138 (will be added to EATOM!!)
  PAW_PBE I 08Apr2002                   :
 energy of atom  4       EATOM= -315.8678
 kinetic energy error for atom=    0.0009 (will be added to EATOM!!)
  PAW_PBE Pb 08Apr2002                  :
 energy of atom  5       EATOM=  -96.9868
 kinetic energy error for atom=    0.0000 (will be added to EATOM!!)
 
 
 POSCAR:  H  C  N  I Pb
  positions in cartesian coordinates
  No initial velocities read in
 exchange correlation table for  LEXCH =        8
   RHO(1)=    0.500       N(1)  =     2000
   RHO(2)=  100.500       N(2)  =     4000
 


--------------------------------------------------------------------------------------------------------


 ion  position               nearest neighbor table
   1  0.437  0.308  0.573- 187 1.04
   2  0.431  0.836  0.573- 188 1.05
   3  0.982  0.316  0.582- 189 1.04
   4  0.965  0.808  0.581- 190 1.03
   5  0.314  0.965  0.576- 194 1.02
   6  0.323  0.562  0.576- 195 1.01
   7  0.795  0.071  0.581- 196 1.00
   8  0.037  0.137  0.562- 183 1.02
   9  0.058  0.641  0.561- 184 1.03
  10  0.579  0.184  0.553- 185 1.03
  11  0.531  0.664  0.564- 186 1.01
  12  0.353  0.026  0.558- 194 1.04
  13  0.282  0.623  0.557- 195 1.05
  14  0.867  0.042  0.564- 196 1.04
  15  0.010  0.180  0.585- 183 1.04
  16  0.014  0.679  0.584- 184 1.04
  17  0.563  0.257  0.571- 185 1.04
  18  0.463  0.702  0.580- 186 1.03
  19  0.273  0.435  0.578- 191 1.02
  20  0.177  0.943  0.574- 192 1.01
  21  0.678  0.006  0.579- 193 1.01
  22  0.369  0.264  0.558- 187 1.02
  23  0.486  0.881  0.555- 188 1.02
  24  0.013  0.360  0.559- 189 1.03
  25  0.986  0.856  0.558- 190 1.03
  26  0.193  0.416  0.562- 191 1.03
  27  0.129  0.996  0.555- 192 1.04
  28  0.675  0.927  0.562- 193 1.04
  29  0.453  0.182  0.542- 146 1.08
  30  0.554  0.775  0.547- 147 1.09
  31  0.043  0.248  0.542- 144 1.09
  32  0.045  0.753  0.542- 145 1.07
  33  0.195  0.533  0.546- 148 1.10
  34  0.236  0.056  0.543- 149 1.10
  35  0.793  0.943  0.550- 150 1.10
  36  0.469  0.320  0.673- 205 1.04
  37  0.433  0.819  0.671- 206 1.04
  38  0.971  0.276  0.682- 207 1.04
  39  0.921  0.770  0.673- 208 1.01
  40  0.298  0.055  0.675- 209 1.04
  41  0.308  0.544  0.675- 210 1.03
  42  0.789  0.064  0.675- 211 1.04
  43  0.796  0.591  0.668- 212 1.01
  44  0.086  0.168  0.645- 197 1.01
  45  0.100  0.699  0.656- 198 1.00
  46  0.576  0.165  0.652- 199 1.00
  47  0.573  0.678  0.657- 200 1.03
  48  0.181  0.411  0.650- 201 0.99
  49  0.175  0.919  0.649- 202 1.00
  50  0.703  0.411  0.661- 203 1.04
  51  0.675  0.921  0.649- 204 1.01
  52  0.069  0.179  0.672- 197 1.00
  53  0.037  0.689  0.676- 198 1.00
  54  0.581  0.234  0.671- 199 1.02
  55  0.530  0.717  0.680- 200 1.03
  56  0.212  0.435  0.675- 201 1.03
  57  0.197  0.949  0.674- 202 1.03
  58  0.700  0.488  0.678- 203 1.02
  59  0.689  0.960  0.674- 204 1.03
  60  0.399  0.299  0.655- 205 1.01
  61  0.422  0.835  0.644- 206 1.02
  62  0.932  0.321  0.660- 207 1.03
  63  0.919  0.826  0.651- 208 1.02
  64  0.327  0.079  0.649- 209 1.01
  65  0.324  0.580  0.650- 210 1.00
  66  0.830  0.079  0.651- 211 1.01
  67  0.843  0.578  0.644- 212 1.06
  68  0.001  0.256  0.635- 151 1.07
  69  0.032  0.784  0.638- 152 1.08
  70  0.460  0.201  0.640- 153 1.08
  71  0.509  0.749  0.634- 154 1.07
  72  0.254  0.997  0.632- 156 1.08
  73  0.248  0.501  0.632- 155 1.08
  74  0.762  0.990  0.633- 158 1.08
  75  0.791  0.461  0.638- 157 1.09
  76  0.449  0.301  0.769- 221 1.02
  77  0.449  0.801  0.769- 222 1.02
  78  0.949  0.301  0.769- 223 1.02
  79  0.949  0.801  0.769- 224 1.02
  80  0.301  0.051  0.769- 225 1.02
  81  0.301  0.551  0.769- 226 1.02
  82  0.801  0.051  0.769- 227 1.02
  83  0.801  0.551  0.769- 228 1.02
  84  0.079  0.171  0.743- 213 1.02
  85  0.079  0.671  0.743- 214 1.02
  86  0.579  0.171  0.743- 215 1.02
  87  0.579  0.671  0.743- 216 1.02
  88  0.171  0.421  0.743- 217 1.02
  89  0.171  0.921  0.743- 218 1.02
  90  0.671  0.421  0.743- 219 1.02
  91  0.671  0.921  0.743- 220 1.02
  92  0.051  0.199  0.769- 213 1.02
  93  0.051  0.699  0.769- 214 1.02
  94  0.551  0.199  0.769- 215 1.02
  95  0.551  0.699  0.769- 216 1.02
  96  0.199  0.449  0.769- 217 1.02
  97  0.199  0.949  0.769- 218 1.02
  98  0.699  0.449  0.769- 219 1.02
  99  0.699  0.949  0.769- 220 1.02
 100  0.421  0.329  0.743- 221 1.02
 101  0.421  0.829  0.743- 222 1.02
 102  0.921  0.329  0.743- 223 1.02
 103  0.921  0.829  0.743- 224 1.02
 104  0.329  0.079  0.743- 225 1.02
 105  0.329  0.579  0.743- 226 1.02
 106  0.829  0.079  0.743- 227 1.02
 107  0.829  0.579  0.743- 228 1.02
 108  0.000  0.250  0.726- 161 1.09
 109  0.000  0.750  0.726- 162 1.09
 110  0.500  0.250  0.726- 159 1.09
 111  0.500  0.750  0.726- 160 1.09
 112  0.250  0.000  0.726- 163 1.09
 113  0.250  0.500  0.726- 164 1.09
 114  0.750  0.000  0.726- 165 1.09
 115  0.750  0.500  0.726- 166 1.09
 116  0.775  0.555  0.522- 173 1.10
 117  0.721  0.473  0.527- 173 1.10
 118  0.873  0.500  0.543- 174 1.10
 119  0.855  0.477  0.570- 174 1.10
 120  0.742  0.638  0.560- 175 1.10
 121  0.803  0.596  0.579- 175 1.10
 122  0.666  0.546  0.571- 176 1.10
 123  0.678  0.453  0.561- 176 1.10
 124  0.614  0.550  0.538- 177 1.11
 125  0.667  0.632  0.538- 177 1.12
 126  0.607  0.647  0.507- 178 1.11
 127  0.687  0.603  0.497- 178 1.10
 128  0.820  0.387  0.530- 179 1.09
 129  0.766  0.375  0.553- 179 1.08
 130  0.861  0.362  0.555- 179 1.10
 131  0.864  0.691  0.558- 180 1.09
 132  0.848  0.644  0.534- 180 1.10
 133  0.908  0.605  0.554- 180 1.09
 134  0.757  0.521  0.601- 181 1.10
 135  0.774  0.429  0.590- 181 1.10
 136  0.685  0.453  0.600- 181 1.10
 137  0.535  0.533  0.506- 182 1.11
 138  0.576  0.552  0.481- 182 1.10
 139  0.695  0.481  0.470- 168 1.11
 140  0.561  0.419  0.524- 169 1.08
 141  0.763  0.361  0.472- 170 1.11
 142  0.627  0.300  0.526- 171 1.09
 143  0.728  0.270  0.501- 172 1.09
 144  0.022  0.248  0.559-  31 1.09 183 1.31 189 1.31
 145  0.022  0.749  0.558-  32 1.07 184 1.31 190 1.32
 146  0.471  0.223  0.554-  29 1.08 187 1.30 185 1.32
 147  0.510  0.773  0.558-  30 1.09 188 1.30 186 1.31
 148  0.237  0.520  0.559-  33 1.10 195 1.30 191 1.32
 149  0.241  0.014  0.556-  34 1.10 194 1.30 192 1.32
 150  0.771  0.982  0.562-  35 1.10 193 1.30 196 1.32
 151  0.009  0.245  0.652-  68 1.07 207 1.30 197 1.33
 152  0.009  0.763  0.653-  69 1.08 208 1.30 198 1.34
 153  0.487  0.232  0.653-  70 1.08 205 1.29 199 1.32
 154  0.498  0.757  0.650-  71 1.07 206 1.31 200 1.31
 155  0.252  0.495  0.649-  73 1.08 201 1.30 210 1.33
 156  0.252  0.999  0.649-  72 1.08 209 1.29 202 1.32
 157  0.773  0.494  0.652-  75 1.09 212 1.30 203 1.31
 158  0.754  0.000  0.650-  74 1.08 211 1.29 204 1.32
 159  0.500  0.250  0.743- 110 1.09 221 1.31 215 1.31
 160  0.500  0.750  0.743- 111 1.09 222 1.31 216 1.31
 161  1.000  0.250  0.743- 108 1.09 223 1.31 213 1.31
 162  1.000  0.750  0.743- 109 1.09 224 1.31 214 1.31
 163  0.250  0.000  0.743- 112 1.09 225 1.31 218 1.31
 164  0.250  0.500  0.743- 113 1.09 226 1.31 217 1.31
 165  0.750  0.000  0.743- 114 1.09 227 1.31 220 1.31
 166  0.750  0.500  0.743- 115 1.09 228 1.31 219 1.31
 167  0.624  0.459  0.497- 169 1.39 168 1.40 182 1.51
 168  0.681  0.441  0.483- 139 1.11 170 1.38 167 1.40
 169  0.605  0.406  0.513- 140 1.08 171 1.38 167 1.39
 170  0.718  0.374  0.484- 141 1.11 168 1.38 172 1.39
 171  0.641  0.339  0.514- 142 1.09 169 1.38 172 1.39
 172  0.698  0.323  0.500- 143 1.09 171 1.39 170 1.39
 173  0.732  0.531  0.532- 116 1.10 117 1.10 229 1.53 177 1.54
 174  0.832  0.475  0.554- 118 1.10 119 1.10 179 1.51 229 1.52
 175  0.790  0.602  0.562- 120 1.10 121 1.10 180 1.51 229 1.51
 176  0.705  0.499  0.570- 123 1.10 122 1.10 181 1.52 229 1.55
 177  0.660  0.577  0.530- 124 1.11 125 1.12 178 1.53 173 1.54
 178  0.637  0.594  0.507- 127 1.10 126 1.11 182 1.53 177 1.53
 179  0.818  0.396  0.547- 129 1.08 128 1.09 130 1.10 174 1.51
 180  0.856  0.635  0.551- 131 1.09 133 1.09 132 1.10 175 1.51
 181  0.733  0.475  0.592- 136 1.10 134 1.10 135 1.10 176 1.52
 182  0.588  0.534  0.497- 138 1.10 137 1.11 167 1.51 178 1.53
 183  0.023  0.185  0.569-   8 1.02  15 1.04 144 1.31
 184  0.033  0.687  0.568-   9 1.03  16 1.04 145 1.31
 185  0.542  0.222  0.559-  10 1.03  17 1.04 146 1.32
 186  0.501  0.710  0.568-  11 1.01  18 1.03 147 1.31
 187  0.424  0.270  0.561-  22 1.02   1 1.04 146 1.30
 188  0.471  0.832  0.562-  23 1.02   2 1.05 147 1.30
 189  1.000  0.311  0.567-  24 1.03   3 1.04 144 1.31
 190  0.985  0.805  0.566-   4 1.03  25 1.03 145 1.32
 191  0.235  0.452  0.567-  19 1.02  26 1.03 148 1.32
 192  0.180  0.980  0.562-  20 1.01  27 1.04 149 1.32
 193  0.702  0.974  0.568-  21 1.01  28 1.04 150 1.30
 194  0.305  0.002  0.564-   5 1.02  12 1.04 149 1.30
 195  0.284  0.570  0.565-   6 1.01  13 1.05 148 1.30
 196  0.814  0.033  0.570-   7 1.00  14 1.04 150 1.32
 197  0.058  0.193  0.657-  52 1.00  44 1.01 151 1.33
 198  0.052  0.713  0.662-  45 1.00  53 1.00 152 1.34
 199  0.553  0.209  0.659-  46 1.00  54 1.02 153 1.32
 200  0.535  0.715  0.664-  47 1.03  55 1.03 154 1.31
 201  0.213  0.444  0.659-  48 0.99  56 1.03 155 1.30
 202  0.205  0.953  0.658-  49 1.00  57 1.03 156 1.32
 203  0.722  0.463  0.664-  58 1.02  50 1.04 157 1.31
 204  0.703  0.958  0.658-  51 1.01  59 1.03 158 1.32
 205  0.451  0.287  0.661-  60 1.01  36 1.04 153 1.29
 206  0.448  0.806  0.656-  61 1.02  37 1.04 154 1.31
 207  0.969  0.282  0.666-  62 1.03  38 1.04 151 1.30
 208  0.945  0.787  0.659-  39 1.01  63 1.02 152 1.30
 209  0.294  0.046  0.658-  64 1.01  40 1.04 156 1.29
 210  0.297  0.543  0.659-  65 1.00  41 1.03 155 1.33
 211  0.792  0.050  0.659-  66 1.01  42 1.04 158 1.29
 212  0.803  0.558  0.655-  43 1.01  67 1.06 157 1.30
 213  0.046  0.204  0.753-  92 1.02  84 1.02 161 1.31
 214  0.046  0.704  0.753-  93 1.02  85 1.02 162 1.31
 215  0.546  0.204  0.753-  94 1.02  86 1.02 159 1.31
 216  0.546  0.704  0.753-  95 1.02  87 1.02 160 1.31
 217  0.204  0.454  0.753-  96 1.02  88 1.02 164 1.31
 218  0.204  0.954  0.753-  97 1.02  89 1.02 163 1.31
 219  0.704  0.454  0.753-  98 1.02  90 1.02 166 1.31
 220  0.704  0.954  0.753-  99 1.02  91 1.02 165 1.31
 221  0.454  0.296  0.753-  76 1.02 100 1.02 159 1.31
 222  0.454  0.796  0.753-  77 1.02 101 1.02 160 1.31
 223  0.954  0.296  0.753-  78 1.02 102 1.02 161 1.31
 224  0.954  0.796  0.753-  79 1.02 103 1.02 162 1.31
 225  0.296  0.046  0.753-  80 1.02 104 1.02 163 1.31
 226  0.296  0.546  0.753-  81 1.02 105 1.02 164 1.31
 227  0.796  0.046  0.753-  82 1.02 106 1.02 165 1.31
 228  0.796  0.546  0.753-  83 1.02 107 1.02 166 1.31
 229  0.766  0.527  0.554- 175 1.51 174 1.52 173 1.53 176 1.55
 230  0.504  0.022  0.553- 304 3.22
 231  0.472  0.508  0.556- 305 3.11
 232  0.988  0.997  0.550- 302 3.49
 233  0.038  0.494  0.553- 303 3.40
 234  0.230  0.233  0.553- 306 3.17
 235  0.259  0.760  0.553- 307 3.14
 236  0.742  0.207  0.555- 308 3.09
 237  0.712  0.789  0.548- 309 3.48
 238  0.002  0.991  0.655- 302 3.06 310 3.14
 239  0.012  0.496  0.656- 303 3.07 311 3.07
 240  0.499  0.009  0.655- 312 3.13 304 3.16
 241  0.505  0.493  0.656- 313 3.08 305 3.13
 242  0.255  0.245  0.655- 314 3.11 306 3.22
 243  0.247  0.753  0.655- 315 3.13 307 3.23
 244  0.745  0.266  0.655- 316 3.14 308 3.23
 245  0.752  0.753  0.654- 317 3.19 309 3.22
 246  0.139  0.104  0.610- 306 3.17 302 3.26
 247  0.147  0.606  0.610- 307 3.14 303 3.19
 248  0.649  0.102  0.612- 308 3.14 304 3.16
 249  0.617  0.637  0.614- 309 3.10 305 3.42
 250  0.357  0.390  0.609- 305 3.15 306 3.37
 251  0.363  0.890  0.608- 304 3.32 307 3.35
 252  0.893  0.362  0.614- 303 3.24 308 3.51
 253  0.868  0.879  0.610- 302 3.15 309 3.31
 254  0.119  0.358  0.611- 306 3.13 303 3.25
 255  0.120  0.869  0.608- 307 3.22 302 3.30
 256  0.579  0.329  0.605- 308 3.28 305 3.32
 257  0.615  0.868  0.612- 309 3.05 304 3.30
 258  0.384  0.132  0.606- 304 3.09 306 3.20
 259  0.388  0.640  0.611- 307 3.22 305 3.30
 260  0.890  0.139  0.613- 302 3.17 308 3.37
 261  0.912  0.646  0.615- 303 3.21 309 3.82
 262  0.000  0.000  0.755- 310 3.13 318 3.27
 263  0.000  0.500  0.755- 311 3.13 319 3.27
 264  0.500  0.000  0.755- 312 3.13 320 3.27
 265  0.500  0.500  0.755- 313 3.13 321 3.27
 266  0.250  0.250  0.755- 314 3.13 322 3.27
 267  0.250  0.750  0.755- 315 3.13 323 3.27
 268  0.750  0.250  0.755- 316 3.13 324 3.27
 269  0.750  0.750  0.755- 317 3.13 325 3.27
 270  0.136  0.114  0.705- 310 3.20 314 3.20
 271  0.136  0.614  0.705- 311 3.20 315 3.20
 272  0.636  0.114  0.705- 312 3.20 316 3.20
 273  0.636  0.614  0.705- 313 3.20 317 3.20
 274  0.364  0.386  0.705- 313 3.20 314 3.20
 275  0.364  0.886  0.705- 312 3.20 315 3.20
 276  0.864  0.386  0.705- 311 3.20 316 3.20
 277  0.864  0.886  0.705- 310 3.20 317 3.20
 278  0.114  0.364  0.705- 314 3.21 311 3.21
 279  0.114  0.864  0.705- 315 3.21 310 3.21
 280  0.614  0.364  0.705- 316 3.21 313 3.21
 281  0.614  0.864  0.705- 317 3.21 312 3.21
 282  0.386  0.136  0.705- 314 3.21 312 3.21
 283  0.386  0.636  0.705- 315 3.21 313 3.21
 284  0.886  0.136  0.705- 316 3.21 310 3.21
 285  0.886  0.636  0.705- 317 3.21 311 3.21
 286  0.135  0.115  0.801- 318 3.22 322 3.22
 287  0.135  0.615  0.801- 319 3.22 323 3.22
 288  0.635  0.115  0.801- 320 3.22 324 3.22
 289  0.635  0.615  0.801- 321 3.22 325 3.22
 290  0.365  0.385  0.801- 321 3.22 322 3.22
 291  0.365  0.885  0.801- 320 3.22 323 3.22
 292  0.865  0.385  0.801- 319 3.22 324 3.22
 293  0.865  0.885  0.801- 318 3.22 325 3.22
 294  0.115  0.365  0.801- 319 3.23 322 3.23
 295  0.115  0.865  0.801- 318 3.23 323 3.23
 296  0.615  0.365  0.801- 321 3.23 324 3.23
 297  0.615  0.865  0.801- 320 3.23 325 3.23
 298  0.385  0.135  0.801- 320 3.23 322 3.23
 299  0.385  0.635  0.801- 321 3.23 323 3.23
 300  0.885  0.135  0.801- 318 3.23 324 3.23
 301  0.885  0.635  0.801- 319 3.23 325 3.23
 302  0.993  1.000  0.606- 238 3.06 253 3.15 260 3.17 246 3.26 255 3.30 232 3.49
 303  0.008  0.499  0.607- 239 3.07 247 3.19 261 3.21 252 3.24 254 3.25 233 3.40
 304  0.503  0.009  0.604- 258 3.09 248 3.16 240 3.16 230 3.22 257 3.30 251 3.32
 305  0.497  0.494  0.605- 231 3.11 241 3.13 250 3.15 259 3.30 256 3.32 249 3.42
 306  0.245  0.242  0.604- 254 3.13 234 3.17 246 3.17 258 3.20 242 3.22 250 3.37
 307  0.248  0.746  0.603- 235 3.14 247 3.14 255 3.22 259 3.22 243 3.23 251 3.35
 308  0.741  0.247  0.603- 236 3.09 248 3.14 244 3.23 256 3.28 260 3.37 252 3.51
 309  0.736  0.754  0.603- 257 3.05 249 3.10 245 3.22 253 3.31 237 3.48 261 3.82
 310  0.000  0.000  0.705- 262 3.13 238 3.14 270 3.20 277 3.20 279 3.21 284 3.21
 311  0.000  0.500  0.705- 239 3.07 263 3.13 271 3.20 276 3.20 278 3.21 285 3.21
 312  0.500  0.000  0.705- 264 3.13 240 3.13 272 3.20 275 3.20 281 3.21 282 3.21
 313  0.500  0.500  0.705- 241 3.08 265 3.13 273 3.20 274 3.20 280 3.21 283 3.21
 314  0.250  0.250  0.705- 242 3.11 266 3.13 270 3.20 274 3.20 282 3.21 278 3.21
 315  0.250  0.750  0.705- 267 3.13 243 3.13 271 3.20 275 3.20 283 3.21 279 3.21
 316  0.750  0.250  0.705- 268 3.13 244 3.14 272 3.20 276 3.20 284 3.21 280 3.21
 317  0.750  0.750  0.705- 269 3.13 245 3.19 273 3.20 277 3.20 285 3.21 281 3.21
 318  0.000  0.000  0.807- 286 3.22 293 3.22 300 3.23 295 3.23 262 3.27
 319  0.000  0.500  0.807- 287 3.22 292 3.22 301 3.23 294 3.23 263 3.27
 320  0.500  0.000  0.807- 288 3.22 291 3.22 298 3.23 297 3.23 264 3.27
 321  0.500  0.500  0.807- 289 3.22 290 3.22 299 3.23 296 3.23 265 3.27
 322  0.250  0.250  0.807- 290 3.22 286 3.22 294 3.23 298 3.23 266 3.27
 323  0.250  0.750  0.807- 291 3.22 287 3.22 299 3.23 295 3.23 267 3.27
 324  0.750  0.250  0.807- 292 3.22 288 3.22 296 3.23 300 3.23 268 3.27
 325  0.750  0.750  0.807- 293 3.22 289 3.22 297 3.23 301 3.23 269 3.27
 

IMPORTANT INFORMATION: All symmetrisations will be switched off!
NOSYMM: (Re-)initialisation of all symmetry stuff for point group C_1.


----------------------------------------------------------------------------------------

                                     Primitive cell                                     

  volume of cell :   20385.2105

  direct lattice vectors                    reciprocal lattice vectors
    18.060800552  0.000000000  0.000000000     0.055368531  0.000015077 -0.000000000
    -0.004918649 18.062799454  0.000000000     0.000000000  0.055362404  0.000000000
     0.000000000  0.000000000 62.487499237     0.000000000 -0.000000000  0.016003201

  length of vectors
    18.060800552 18.062800123 62.487499237     0.055368533  0.055362404  0.016003201

  position of ions in fractional coordinates (direct lattice)
     0.437130992  0.308004269  0.573370418
     0.430598634  0.835752154  0.573414678
     0.982463547  0.316138864  0.582491322
     0.964858539  0.807882834  0.581198522
     0.313905655  0.964631423  0.576146364
     0.322556677  0.562318976  0.575892041
     0.795474297  0.070630846  0.580960376
     0.036942625  0.136874784  0.561621181
     0.058028553  0.641349165  0.561428943
     0.579155943  0.184178186  0.552756859
     0.530928646  0.664358246  0.564136455
     0.353026613  0.026479772  0.558024881
     0.281651474  0.622672717  0.557394628
     0.866691125  0.041544305  0.564186514
     0.009998739  0.180187974  0.585363235
     0.013859568  0.678651112  0.583858966
     0.563022805  0.257015363  0.570683174
     0.462839918  0.701654015  0.580397520
     0.272657776  0.434742356  0.577821443
     0.177221387  0.943043244  0.573958366
     0.677610394  0.005878125  0.579215154
     0.369042411  0.264117657  0.558193616
     0.485898742  0.881353108  0.554578513
     0.012938563  0.359873973  0.559118422
     0.986085347  0.855946589  0.558289765
     0.193432753  0.416343122  0.562165357
     0.128910216  0.996055049  0.555363338
     0.674947050  0.926628630  0.562497638
     0.453397285  0.182081880  0.542260986
     0.554357825  0.775387063  0.546569709
     0.042544232  0.247763489  0.542215627
     0.045370031  0.752521856  0.542331495
     0.195045487  0.533289532  0.546452559
     0.236366071  0.055645307  0.542930065
     0.793393257  0.943053295  0.550478633
     0.468991394  0.320351223  0.673199528
     0.432767081  0.818944428  0.671367741
     0.971228346  0.276213558  0.682098953
     0.921189339  0.770072974  0.673085065
     0.298107019  0.054984475  0.674639209
     0.307885324  0.544216070  0.674753306
     0.788804530  0.064258790  0.675214275
     0.795565412  0.590747741  0.668223558
     0.086141337  0.167986200  0.644813541
     0.100270281  0.699056262  0.655751581
     0.576131995  0.165195485  0.651828860
     0.572909651  0.678005501  0.657314637
     0.180642974  0.411224702  0.649971860
     0.174654374  0.918680463  0.649338311
     0.703002954  0.410601478  0.660611439
     0.675245492  0.920602808  0.649440565
     0.069497740  0.179479296  0.672123202
     0.037457208  0.688546246  0.676289136
     0.580596328  0.234430987  0.671257795
     0.529843366  0.717062391  0.680058200
     0.212169737  0.434867540  0.674971428
     0.196988725  0.949346791  0.674467482
     0.700133373  0.487679234  0.677593352
     0.688544254  0.959881349  0.674439950
     0.399303513  0.298519980  0.655209541
     0.422318175  0.835298358  0.644003564
     0.932168541  0.320556844  0.659843097
     0.918713362  0.826428080  0.650511031
     0.327449121  0.078892532  0.649203457
     0.323960270  0.580333394  0.649578471
     0.829949447  0.079276925  0.650585630
     0.843190906  0.577840023  0.644412704
     0.001289394  0.255969651  0.635320126
     0.032356723  0.784318903  0.637818612
     0.460135092  0.200775448  0.640164845
     0.509138221  0.749138632  0.633558238
     0.253935040  0.996756220  0.631516875
     0.248218798  0.500598356  0.632081563
     0.761984500  0.990387244  0.632676958
     0.791220746  0.461265229  0.638259740
     0.448745018  0.301283966  0.768889017
     0.448745007  0.801283913  0.768889017
     0.948744965  0.301283966  0.768889017
     0.948745007  0.801283913  0.768889017
     0.301275995  0.051294496  0.768872961
     0.301276011  0.551294499  0.768872961
     0.801275943  0.051294496  0.768872961
     0.801275984  0.551294499  0.768872961
     0.078771004  0.171180501  0.743441971
     0.078771006  0.671180448  0.743441971
     0.578771004  0.171180501  0.743441971
     0.578770992  0.671180448  0.743441971
     0.171199499  0.421174482  0.743421032
     0.171199501  0.921174508  0.743421032
     0.671199512  0.421174482  0.743421032
     0.671199501  0.921174508  0.743421032
     0.051256000  0.198714991  0.768889017
     0.051256002  0.698714925  0.768889017
     0.551256027  0.198714991  0.768889017
     0.551256016  0.698714925  0.768889017
     0.198723491  0.448703970  0.768872046
     0.198723493  0.948703970  0.768872046
     0.698723518  0.448703970  0.768872046
     0.698723507  0.948703970  0.768872046
     0.421231519  0.328817467  0.743441971
     0.421231508  0.828817440  0.743441971
     0.921231466  0.328817467  0.743441971
     0.921231508  0.828817440  0.743441971
     0.328800503  0.078824997  0.743421032
     0.328800492  0.578824964  0.743421032
     0.828800477  0.078824997  0.743421032
     0.828800519  0.578824964  0.743421032
     0.000003500  0.250001478  0.725821992
     0.000003500  0.750001452  0.725821992
     0.500003506  0.250001478  0.725821992
     0.500003495  0.750001452  0.725821992
     0.250000502  0.000000000  0.725803983
     0.250000517  0.500000000  0.725803983
     0.750000502  0.000000000  0.725803983
     0.750000490  0.500000000  0.725803983
     0.775127823  0.554772442  0.521573132
     0.721198299  0.473358015  0.526890236
     0.872779258  0.500442709  0.543067788
     0.855343786  0.476767480  0.570066352
     0.742314361  0.638077503  0.560227348
     0.802558384  0.595744041  0.579388285
     0.666448628  0.545686275  0.571146951
     0.677668664  0.453279788  0.560971271
     0.613709405  0.549596472  0.538483680
     0.667173057  0.632224349  0.538304567
     0.606744993  0.646950949  0.506547605
     0.686983252  0.602925426  0.496990212
     0.819752562  0.386621659  0.530148395
     0.765838426  0.374700175  0.553338213
     0.861117359  0.361914868  0.554823618
     0.863884969  0.690817128  0.557519775
     0.848311203  0.643529710  0.533636702
     0.907747808  0.605466790  0.553630508
     0.756988995  0.520580017  0.600872318
     0.773736214  0.429236242  0.590287681
     0.684771155  0.452667863  0.600142802
     0.534827298  0.532735262  0.505823797
     0.575907740  0.552397971  0.480508308
     0.695486597  0.481239709  0.470155713
     0.560652356  0.418554211  0.523618524
     0.763141716  0.361007540  0.472498253
     0.626648208  0.299599983  0.526381406
     0.728136492  0.270420884  0.501171621
     0.022044770  0.247508001  0.558650616
     0.022329692  0.748883883  0.558084646
     0.471144792  0.222692474  0.553877872
     0.509773217  0.772527117  0.558347211
     0.237042565  0.519528286  0.558608127
     0.240694231  0.013904374  0.555713383
     0.770574074  0.981740154  0.562396910
     0.008617658  0.244688683  0.651949917
     0.009460405  0.763369777  0.652598423
     0.487010606  0.231750870  0.652813737
     0.497715135  0.756739178  0.650204695
     0.251612877  0.495166423  0.649192652
     0.251574091  0.999386559  0.648751340
     0.772711243  0.493602027  0.652011392
     0.753714105  0.000325506  0.649548558
     0.499988984  0.249994984  0.743277021
     0.499989025  0.749994958  0.743277021
     0.999988984  0.249994984  0.743277021
     0.999989025  0.749994958  0.743277021
     0.250000502  0.000001000  0.743255960
     0.250000517  0.500001003  0.743255960
     0.750000502  0.000001000  0.743255960
     0.750000491  0.500001003  0.743255960
     0.623919037  0.458712883  0.497229152
     0.681063232  0.440823860  0.482972577
     0.604926548  0.405960850  0.512516816
     0.717758029  0.373841104  0.483974883
     0.641280221  0.339126086  0.513924141
     0.698450431  0.322723582  0.499724280
     0.731642317  0.531153812  0.531745882
     0.831970789  0.475280908  0.553852721
     0.790470453  0.601616307  0.562211021
     0.704728170  0.498697005  0.569652817
     0.659973532  0.577453966  0.530144732
     0.637390014  0.593855467  0.506945206
     0.817697785  0.395809541  0.547415825
     0.856002515  0.635386192  0.550927209
     0.733011067  0.474645751  0.591518457
     0.588244318  0.534098446  0.496960421
     0.022940370  0.184879894  0.569191543
     0.033207038  0.686939453  0.568426009
     0.541902638  0.221666694  0.559049866
     0.501123102  0.709526786  0.568472649
     0.423959412  0.270197840  0.561367346
     0.471439044  0.832198236  0.561612757
     0.999536988  0.310886364  0.566638481
     0.984816573  0.805496801  0.565838761
     0.235221278  0.451814124  0.566700994
     0.179542351  0.979921025  0.561792907
     0.701618121  0.974129685  0.567777747
     0.305173133  0.002426993  0.564289745
     0.283706017  0.570066195  0.564500114
     0.814043672  0.033420824  0.570392101
     0.058398031  0.193218552  0.656886756
     0.051699830  0.712822788  0.662427110
     0.553006445  0.208727864  0.659106683
     0.535392138  0.715186805  0.663613871
     0.212958202  0.444184645  0.658651636
     0.204942845  0.953438386  0.658220153
     0.722331166  0.463347518  0.664331300
     0.702824903  0.957685294  0.658468677
     0.450778359  0.286870405  0.660724072
     0.448079634  0.806149275  0.655749078
     0.968689549  0.281947996  0.665607800
     0.945359516  0.787113274  0.659327003
     0.294198249  0.046403175  0.658141768
     0.297005152  0.542950403  0.658549565
     0.792361066  0.050320699  0.659103020
     0.803222635  0.557675102  0.655340976
     0.045862501  0.204119496  0.752725994
     0.045862500  0.704119456  0.752725994
     0.545862507  0.204119496  0.752725994
     0.545862496  0.704119456  0.752725994
     0.204119002  0.454101003  0.752704994
     0.204118991  0.954100951  0.752704994
     0.704118976  0.454101003  0.752704994
     0.704118964  0.954100951  0.752704994
     0.454140018  0.295888490  0.752726971
     0.454140007  0.795888516  0.752726971
     0.954140018  0.295888490  0.752726971
     0.954140060  0.795888516  0.752726971
     0.295882492  0.045900498  0.752704994
     0.295882481  0.545900528  0.752704994
     0.795882439  0.045900498  0.752704994
     0.795882481  0.545900528  0.752704994
     0.765510455  0.526677993  0.554110829
     0.504394313  0.021916226  0.552830116
     0.471581257  0.507677420  0.556471225
     0.988296614  0.997280154  0.549949108
     0.037778609  0.494132591  0.553129187
     0.230360313  0.233484060  0.553139321
     0.258728151  0.760393518  0.553046895
     0.741765710  0.207173539  0.555211574
     0.712335566  0.789296617  0.548187891
     0.001669105  0.990920565  0.654702482
     0.012021750  0.496442121  0.655804875
     0.498648514  0.008607059  0.654744910
     0.505151122  0.493366708  0.655527293
     0.254862313  0.245188044  0.655022187
     0.246882969  0.752831462  0.654679589
     0.744511842  0.265840604  0.654818227
     0.751635384  0.752794134  0.653795745
     0.139074216  0.104065579  0.610027286
     0.147080806  0.606290593  0.609888404
     0.649025563  0.102236422  0.611553715
     0.617307385  0.636648533  0.614434235
     0.356856841  0.390279563  0.609245392
     0.363342354  0.890208972  0.607960039
     0.893245769  0.362445432  0.614090843
     0.867587446  0.878688989  0.609630295
     0.118682146  0.357622151  0.611102392
     0.120105864  0.868528968  0.607786421
     0.578803021  0.328881114  0.604876293
     0.615011043  0.867686634  0.611702731
     0.383837030  0.131845209  0.606375128
     0.388375895  0.639560115  0.611315325
     0.889655865  0.139079088  0.613105478
     0.911918530  0.645725725  0.614938669
     0.000000000  0.000000000  0.754927972
     0.000000000  0.500000000  0.754927972
     0.500000000  0.000000000  0.754927972
     0.499999989  0.500000000  0.754927972
     0.250000496  0.250000000  0.754939022
     0.250000511  0.749999974  0.754939022
     0.750000470  0.250000000  0.754939022
     0.750000458  0.749999974  0.754939022
     0.135790500  0.114209997  0.704782994
     0.135790502  0.614209984  0.704782994
     0.635790447  0.114209997  0.704782994
     0.635790488  0.614209984  0.704782994
     0.364209516  0.385789989  0.704782994
     0.364209505  0.885789963  0.704782994
     0.864209542  0.385789989  0.704782994
     0.864209531  0.885789963  0.704782994
     0.114217990  0.364218986  0.704780979
     0.114217992  0.864218986  0.704780979
     0.614218004  0.364218986  0.704780979
     0.614217992  0.864218986  0.704780979
     0.385782012  0.135781489  0.704782017
     0.385782001  0.635781489  0.704782017
     0.885781985  0.135781489  0.704782017
     0.885782027  0.635781489  0.704782017
     0.134667000  0.115332001  0.801256025
     0.134666989  0.615331988  0.801256025
     0.634666987  0.115332001  0.801256025
     0.634666976  0.615331988  0.801256025
     0.365333002  0.384667985  0.801256025
     0.365332990  0.884667959  0.801256025
     0.865332949  0.384667985  0.801256025
     0.865332938  0.884667959  0.801256025
     0.115328503  0.365337004  0.801264999
     0.115328505  0.865336978  0.801264999
     0.615328503  0.365337004  0.801264999
     0.615328492  0.865336978  0.801264999
     0.384671513  0.134662996  0.801264999
     0.384671501  0.634662970  0.801264999
     0.884671486  0.134662996  0.801264999
     0.884671528  0.634662970  0.801264999
     0.992798646  0.999557439  0.605804579
     0.007737991  0.498546743  0.606749226
     0.503003579  0.009334467  0.604194760
     0.496786199  0.493573780  0.605476144
     0.245054275  0.241926571  0.603560661
     0.248112473  0.745852661  0.603016973
     0.741071450  0.247117509  0.603365554
     0.735732327  0.754147444  0.602534088
     0.000000500  0.000000500  0.704828963
     0.000000500  0.500000475  0.704828963
     0.500000475  0.000000500  0.704828963
     0.500000464  0.500000475  0.704828963
     0.249999994  0.249999472  0.704824995
     0.250000010  0.749999498  0.704824995
     0.749999994  0.249999472  0.704824995
     0.749999983  0.749999498  0.704824995
     0.000000000  0.000000000  0.807317968
     0.000000000  0.500000000  0.807317968
     0.500000000  0.000000000  0.807317968
     0.499999989  0.500000000  0.807317968
     0.249999994  0.250000000  0.807317968
     0.250000010  0.749999974  0.807317968
     0.749999994  0.250000000  0.807317968
     0.749999983  0.749999974  0.807317968

  ion indices of the primitive-cell ions
   primitive index   ion index
                 1           1
                 2           2
                 3           3
                 4           4
                 5           5
                 6           6
                 7           7
                 8           8
                 9           9
                10          10
                11          11
                12          12
                13          13
                14          14
                15          15
                16          16
                17          17
                18          18
                19          19
                20          20
                21          21
                22          22
                23          23
                24          24
                25          25
                26          26
                27          27
                28          28
                29          29
                30          30
                31          31
                32          32
                33          33
                34          34
                35          35
                36          36
                37          37
                38          38
                39          39
                40          40
                41          41
                42          42
                43          43
                44          44
                45          45
                46          46
                47          47
                48          48
                49          49
                50          50
                51          51
                52          52
                53          53
                54          54
                55          55
                56          56
                57          57
                58          58
                59          59
                60          60
                61          61
                62          62
                63          63
                64          64
                65          65
                66          66
                67          67
                68          68
                69          69
                70          70
                71          71
                72          72
                73          73
                74          74
                75          75
                76          76
                77          77
                78          78
                79          79
                80          80
                81          81
                82          82
                83          83
                84          84
                85          85
                86          86
                87          87
                88          88
                89          89
                90          90
                91          91
                92          92
                93          93
                94          94
                95          95
                96          96
                97          97
                98          98
                99          99
               100         100
               101         101
               102         102
               103         103
               104         104
               105         105
               106         106
               107         107
               108         108
               109         109
               110         110
               111         111
               112         112
               113         113
               114         114
               115         115
               116         116
               117         117
               118         118
               119         119
               120         120
               121         121
               122         122
               123         123
               124         124
               125         125
               126         126
               127         127
               128         128
               129         129
               130         130
               131         131
               132         132
               133         133
               134         134
               135         135
               136         136
               137         137
               138         138
               139         139
               140         140
               141         141
               142         142
               143         143
               144         144
               145         145
               146         146
               147         147
               148         148
               149         149
               150         150
               151         151
               152         152
               153         153
               154         154
               155         155
               156         156
               157         157
               158         158
               159         159
               160         160
               161         161
               162         162
               163         163
               164         164
               165         165
               166         166
               167         167
               168         168
               169         169
               170         170
               171         171
               172         172
               173         173
               174         174
               175         175
               176         176
               177         177
               178         178
               179         179
               180         180
               181         181
               182         182
               183         183
               184         184
               185         185
               186         186
               187         187
               188         188
               189         189
               190         190
               191         191
               192         192
               193         193
               194         194
               195         195
               196         196
               197         197
               198         198
               199         199
               200         200
               201         201
               202         202
               203         203
               204         204
               205         205
               206         206
               207         207
               208         208
               209         209
               210         210
               211         211
               212         212
               213         213
               214         214
               215         215
               216         216
               217         217
               218         218
               219         219
               220         220
               221         221
               222         222
               223         223
               224         224
               225         225
               226         226
               227         227
               228         228
               229         229
               230         230
               231         231
               232         232
               233         233
               234         234
               235         235
               236         236
               237         237
               238         238
               239         239
               240         240
               241         241
               242         242
               243         243
               244         244
               245         245
               246         246
               247         247
               248         248
               249         249
               250         250
               251         251
               252         252
               253         253
               254         254
               255         255
               256         256
               257         257
               258         258
               259         259
               260         260
               261         261
               262         262
               263         263
               264         264
               265         265
               266         266
               267         267
               268         268
               269         269
               270         270
               271         271
               272         272
               273         273
               274         274
               275         275
               276         276
               277         277
               278         278
               279         279
               280         280
               281         281
               282         282
               283         283
               284         284
               285         285
               286         286
               287         287
               288         288
               289         289
               290         290
               291         291
               292         292
               293         293
               294         294
               295         295
               296         296
               297         297
               298         298
               299         299
               300         300
               301         301
               302         302
               303         303
               304         304
               305         305
               306         306
               307         307
               308         308
               309         309
               310         310
               311         311
               312         312
               313         313
               314         314
               315         315
               316         316
               317         317
               318         318
               319         319
               320         320
               321         321
               322         322
               323         323
               324         324
               325         325

----------------------------------------------------------------------------------------

 
 
 KPOINTS: Automatic Mesh                          

Automatic generation of k-mesh.
 Grid dimensions read from file:
 generate k-points for:    3    3    1

 Generating k-lattice:

  Cartesian coordinates                     Fractional coordinates (reciprocal lattice)
     0.018456177  0.000005026 -0.000000000     0.333333333  0.000000000  0.000000000
     0.000000000  0.018454135  0.000000000     0.000000000  0.333333333  0.000000000
     0.000000000 -0.000000000  0.016003201     0.000000000  0.000000000  1.000000000

  Length of vectors
     0.018456178  0.018454135  0.016003201

  Shift w.r.t. Gamma in fractional coordinates (k-lattice)
     0.000000000  0.000000000  0.000000000

 
 Subroutine IBZKPT returns following result:
 ===========================================
 
 Found      5 irreducible k-points:
 
 Following reciprocal coordinates:
            Coordinates               Weight
  0.000000  0.000000  0.000000      1.000000
  0.333333  0.000000  0.000000      2.000000
  0.000000  0.333333  0.000000      2.000000
  0.333333  0.333333  0.000000      2.000000
 -0.333333  0.333333  0.000000      2.000000
 
 Following cartesian coordinates:
            Coordinates               Weight
  0.000000  0.000000  0.000000      1.000000
  0.018456  0.000005  0.000000      2.000000
  0.000000  0.018454  0.000000      2.000000
  0.018456  0.018459  0.000000      2.000000
 -0.018456  0.018449  0.000000      2.000000
 


--------------------------------------------------------------------------------------------------------




 Dimension of arrays:
   k-points           NKPTS =      5   k-points in BZ     NKDIM =      5   number of bands    NBANDS=    732
   number of dos      NEDOS =    301   number of ions     NIONS =    325
   non local maximal  LDIM  =      5   non local SUM 2l+1 LMDIM =     13
   total plane-waves  NPLWV = ******
   max r-space proj   IRMAX =   3336   max aug-charges    IRDMAX=  19845
   dimension x,y,z NGX =   100 NGY =  100 NGZ =  350
   dimension x,y,z NGXF=   200 NGYF=  200 NGZF=  700
   support grid    NGXF=   200 NGYF=  200 NGZF=  700
   ions per type =             143  39  47  72  24
   NGX,Y,Z   is equivalent  to a cutoff of   9.20,  9.20,  9.31 a.u.
   NGXF,Y,Z  is equivalent  to a cutoff of  18.41, 18.41, 18.62 a.u.

 SYSTEM =  PSC                                     
 POSCAR =   H  C  N  I Pb                          

 Startparameter for this run:
   NWRITE =      2    write-flag & timer
   PREC   = normal    normal or accurate (medium, high low for compatibility)
   ISTART =      0    job   : 0-new  1-cont  2-samecut
   ICHARG =      1    charge: 1-file 2-atom 10-const
   ISPIN  =      1    spin polarized calculation?
   LNONCOLLINEAR =      F non collinear calculations
   LSORBIT =      F    spin-orbit coupling
   INIWAV =      1    electr: 0-lowe 1-rand  2-diag
   LASPH  =      F    aspherical Exc in radial PAW
 Electronic Relaxation 1
   ENCUT  =  500.0 eV  36.75 Ry    6.06 a.u.  32.93 32.93113.93*2*pi/ulx,y,z
   ENINI  =  500.0     initial cutoff
   ENAUG  =  644.9 eV  augmentation charge cutoff
   NELM   =    600;   NELMIN=  2; NELMDL=  0     # of ELM steps 
   EDIFF  = 0.1E-03   stopping-criterion for ELM
   LREAL  =      T    real-space projection
   NLSPLINE    = F    spline interpolate recip. space projectors
   LCOMPAT=      F    compatible to vasp.4.4
   GGA_COMPAT  = F    GGA compatible to vasp.4.4-vasp.4.6
   LMAXPAW     = -100 max onsite density
   LMAXMIX     =    2 max onsite mixed and CHGCAR
   VOSKOWN=      0    Vosko Wilk Nusair interpolation
   ROPT   =   -0.00050  -0.00050  -0.00050  -0.00050
   ROPT   =   -0.00050
 Ionic relaxation
   EDIFFG = 0.1E-02   stopping-criterion for IOM
   NSW    =      0    number of steps for IOM
   NBLOCK =      1;   KBLOCK =      1    inner block; outer block 
   IBRION =     -1    ionic relax: 0-MD 1-quasi-New 2-CG
   NFREE  =      0    steps in history (QN), initial steepest desc. (CG)
   ISIF   =      2    stress and relaxation
   IWAVPR =     10    prediction:  0-non 1-charg 2-wave 3-comb
   ISYM   =      0    0-nonsym 1-usesym 2-fastsym
   LCORR  =      T    Harris-Foulkes like correction to forces

   POTIM  = 0.5000    time-step for ionic-motion
   TEIN   =    0.0    initial temperature
   TEBEG  =    0.0;   TEEND  =   0.0 temperature during run
   SMASS  =  -3.00    Nose mass-parameter (am)
   estimated Nose-frequenzy (Omega)   =  0.10E-29 period in steps = 0.13E+47 mass=  -0.745E-26a.u.
   SCALEE = 1.0000    scale energy and forces
   NPACO  =    256;   APACO  = 16.0  distance and # of slots for P.C.
   PSTRESS=    0.0 pullay stress

  Mass of Ions in am
   POMASS =   1.00 12.01 14.00126.90207.20
  Ionic Valenz
   ZVAL   =   1.00  4.00  5.00  7.00  4.00
  Atomic Wigner-Seitz radii
   RWIGS  =  -1.00 -1.00 -1.00 -1.00 -1.00
  virtual crystal weights 
   VCA    =   1.00  1.00  1.00  1.00  1.00
   NELECT =    1134.0000    total number of electrons
   NUPDOWN=      -1.0000    fix difference up-down

 DOS related values:
   EMIN   =  10.00;   EMAX   =-10.00  energy-range for DOS
   EFERMI =   0.00
   ISMEAR =     0;   SIGMA  =   0.05  broadening in eV -4-tet -1-fermi 0-gaus

 Electronic relaxation 2 (details)
   IALGO  =     38    algorithm
   LDIAG  =      T    sub-space diagonalisation (order eigenvalues)
   LSUBROT=      F    optimize rotation matrix (better conditioning)
   TURBO    =      0    0=normal 1=particle mesh
   IRESTART =      0    0=no restart 2=restart with 2 vectors
   NREBOOT  =      0    no. of reboots
   NMIN     =      0    reboot dimension
   EREF     =   0.00    reference energy to select bands
   IMIX   =      4    mixing-type and parameters
     AMIX     =   0.40;   BMIX     =  0.01
     AMIX_MAG =   1.60;   BMIX_MAG =  0.01
     AMIN     =   0.01
     WC   =   100.;   INIMIX=   1;  MIXPRE=   1;  MAXMIX= -45

 Intra band minimization:
   WEIMIN = 0.0000     energy-eigenvalue tresh-hold
   EBREAK =  0.34E-07  absolut break condition
   DEPER  =   0.30     relativ break condition  

   TIME   =   0.40     timestep for ELM

  volume/ion in A,a.u.               =      62.72       423.28
  Fermi-wavevector in a.u.,A,eV,Ry     =   0.624944  1.180972  5.313816  0.390554
  Thomas-Fermi vector in A             =   1.685677
 
 Write flags
   LWAVE        =      F    write WAVECAR
   LDOWNSAMPLE  =      F    k-point downsampling of WAVECAR
   LCHARG       =      T    write CHGCAR
   LVTOT        =      T    write LOCPOT, total local potential
   LVHAR        =      F    write LOCPOT, Hartree potential only
   LELF         =      F    write electronic localiz. function (ELF)
   LORBIT       =      0    0 simple, 1 ext, 2 COOP (PROOUT), +10 PAW based schemes


 Dipole corrections
   LMONO  =      F    monopole corrections only (constant potential shift)
   LDIPOL =      T    correct potential (dipole corrections)
   IDIPOL =      3    1-x, 2-y, 3-z, 4-all directions 
   EPSILON=  1.0000000 bulk dielectric constant

 Exchange correlation treatment:
   GGA     =    --    GGA type
   LEXCH   =     8    internal setting for exchange type
   VOSKOWN=      0    Vosko Wilk Nusair interpolation
   LHFCALC =     F    Hartree Fock is set to
   LHFONE  =     F    Hartree Fock one center treatment
   AEXX    =    0.0000 exact exchange contribution

 Linear response parameters
   LEPSILON=     F    determine dielectric tensor
   LRPA    =     F    only Hartree local field effects (RPA)
   LNABLA  =     F    use nabla operator in PAW spheres
   LVEL    =     F    velocity operator in full k-point grid
   LINTERFAST=   F  fast interpolation
   KINTER  =     0    interpolate to denser k-point grid
   CSHIFT  =0.1000    complex shift for real part using Kramers Kronig
   OMEGAMAX=  -1.0    maximum frequency
   DEG_THRESHOLD= 0.2000000E-02 threshold for treating states as degnerate
   RTIME   =   -0.100 relaxation time in fs
  (WPLASMAI=    0.000 imaginary part of plasma frequency in eV, 0.658/RTIME)
   DFIELD  = 0.0000000 0.0000000 0.0000000 field for delta impulse in time
 
 Orbital magnetization related:
   ORBITALMAG=     F  switch on orbital magnetization
   LCHIMAG   =     F  perturbation theory with respect to B field
   DQ        =  0.001000  dq finite difference perturbation B field
   LLRAUG    =     F  two centre corrections for induced B field



--------------------------------------------------------------------------------------------------------


 Static calculation
 charge density and potential will be updated during run
 non-spin polarized calculation
 Variant of blocked Davidson
 Davidson routine will perform the subspace rotation
 perform sub-space diagonalisation
    after iterative eigenvector-optimisation
 modified Broyden-mixing scheme, WC =      100.0
 initial mixing is a Kerker type mixing with AMIX =  0.4000 and BMIX =      0.0100
 Hartree-type preconditioning will be used
 using additional bands           165
 real space projection scheme for non local part
[...]
     13.54561      0.00000     45.35368         0.000024     -0.004675      0.012249
     13.54315      9.03140     45.35368         0.009021     -0.005853      0.012860
     13.99670     10.02074     32.59180        -0.006997     -0.045628     -0.092080
     13.02309      8.55017     32.92405         0.124799      0.269856      0.034239
     15.76063      9.03940     33.93495        -0.057601      0.026232      0.107750
     15.44585      8.61176     35.62202        -0.027120      0.173965     -0.033413
     13.40365     11.52547     35.00721         0.035941      0.018233      0.157168
     14.49192     10.76081     36.20452        -0.009088     -0.083756     -0.117742
     12.03391      9.85662     35.68954        -0.077922     -0.179519     -0.007111
     12.23701      8.18750     35.05369        -0.127556      0.028076      0.186670
     11.08138      9.92725     33.64850         0.148336      0.003910     -0.128286
     12.04657     11.41974     33.63731         0.100599     -0.510315     -0.231747
     10.95512     11.68575     31.65289         0.109412     -0.174452      0.049385
     12.40450     10.89052     31.05568         0.015992     -0.037267      0.007161
     14.80349      6.98347     33.12765        -0.076896      0.024927     -0.125538
     13.82981      6.76813     34.57672        -0.548200     -0.290937      0.194717
     15.55069      6.53720     34.66954        -0.004492     -0.052024     -0.071685
     15.59906     12.47809     34.83802        -0.078754      0.207449      0.117559
     15.31801     11.62395     33.34562        -0.119673     -0.094560      0.029837
     16.39167     10.93643     34.59499         0.074446     -0.158513      0.010643
     13.66927      9.40313     37.54701        -0.098828     -0.174561     -0.109952
     13.97218      7.75321     36.88560        -0.181351      0.218084      0.099506
     12.36529      8.17645     37.50142         0.062025      0.063410      0.103383
      9.65679      9.62269     31.60766         0.318417     -0.071303     -0.181978
     10.39864      9.97785     30.02576        -0.056492     -0.210555     -0.029367
     12.55868      8.69254     29.37885        -0.076221     -0.387489      0.489509
     10.12377      7.56026     32.71961        -0.263466      0.073198      0.257035
     13.78117      6.52081     29.52523        -0.532732      0.148635      0.416716
     11.31629      5.41161     32.89226        -0.016819     -0.053683      0.030923
     13.14940      4.88456     31.31696        -0.001176     -0.036723     -0.016593
      0.39693      4.47069     34.90868         0.077160      0.314239      0.130822
      0.39961     13.52694     34.87331        -0.344810      0.046133      0.831825
      8.50816      4.02245     34.61044         1.312925     -0.195082     -0.070102
      9.20311     13.95400     34.88972         0.533048     -0.552166     -0.218555
      4.27862      9.38414     34.90602        -0.592776     -0.904697     -0.003014
      4.34706      0.25115     34.72514        -0.824583      0.096149     -0.160856
     13.91236     17.73298     35.14278         1.059341      0.428333     -0.126275
      0.15444      4.41976     40.73872         1.048034     -1.133566      0.697114
      0.16711     13.78860     40.77924         0.959958     -1.366237      0.827827
      8.79466      4.18607     40.79270         1.037562     -0.933124     -0.026550
      8.98541     13.66883     40.62967        -0.172320      0.111950      1.092348
      4.54189      8.94409     40.56643         1.012132      0.984438      0.422940
      4.53871     18.05172     40.53885        -1.124378     -1.192928      0.069149
     13.95336      8.91583     40.74256        -0.272057     -0.316258      0.293347
     13.61268      0.00588     40.58867        -1.391563     -1.395746      0.002455
      9.02897      4.51561     46.44552         0.008804      0.002320      0.021509
      9.02651     13.54701     46.44552         0.001903      0.011813      0.051898
     18.05937      4.51561     46.44552        -0.004508      0.022328      0.072078
     18.05691     13.54701     46.44552         0.024952     -0.002910      0.038728
      4.51521      0.00002     46.44421         0.000681     -0.000389      0.064208
      4.51275      9.03142     46.44421        -0.000346      0.003296      0.042280
     13.54561      0.00002     46.44421        -0.002519     -0.005172      0.031279
     13.54315      9.03142     46.44421        -0.007695     -0.012812      0.034797
     11.26622      8.28564     31.07061         0.101132      0.124139     -0.330897
     12.29838      7.96251     30.17975        -0.118660      1.115692     -0.881072
     10.92346      7.33279     32.02589        -0.559530      0.472632      0.131015
     12.96145      6.75262     30.24238         0.808530     -0.552031     -0.370126
     11.58037      6.12557     32.11383         0.389676     -0.591877      0.030097
     12.61299      5.82929     31.22652         0.181383     -0.272280      0.081896
     13.21143      9.59412     33.22747        -0.228441      0.114623      0.164989
     15.02372      8.58490     34.60887         0.117992      0.067884     -0.108657
     14.27357     10.86687     35.13116        -0.202789      0.164514     -0.161935
     12.72550      9.00786     35.59618         0.518814      0.144286     -0.195838
     11.91681     10.43044     33.12742         0.315550      0.452107      0.499844
     11.50885     10.72669     31.67774         0.014168      0.248839      0.128519
     14.76633      7.14943     34.20665         0.405808      0.189560     -0.054615
     15.45697     11.47685     34.42606         0.285177      0.088644     -0.203363
     13.23643      8.57343     36.96251         0.031953     -0.075601     -0.388554
     10.62154      9.64731     31.05381        -0.335776      0.028230     -0.033739
      0.41341      3.33945     35.56736        -0.134366     -0.303523      0.572681
      0.59637     12.40805     35.51952         0.134312     -0.628739      0.369443
      9.78611      4.00392     34.93363         0.460311     -0.017305      0.016572
      9.04719     12.81604     35.52243        -0.128862     -0.000813     -0.013561
      7.65572      4.88053     35.07844        -0.247706      1.091620      1.011161
      8.51047     15.03183     35.09378        -1.021342      0.587967      0.733108
     18.05091      5.61548     35.40782        -0.023602      0.019956      0.442475
     17.78261     14.54953     35.35785         0.176839      0.117682     -0.105564
      4.24606      8.16103     35.41173        -0.650768      0.141535     -0.793686
      3.23786     17.70012     35.10503        -0.365538      0.819099     -0.945349
     12.66699     17.59551     35.47901        -0.831511     -1.109305     -0.379054
      5.51166      0.04384     35.26105         1.366582      0.399800     -0.533975
      5.12115     10.29699     35.27420         0.063047      1.326761     -0.773441
     14.70212      0.60367     35.64238         0.537298     -0.590468     -0.963675
      1.05376      3.49007     41.04721        -1.176280      1.208472     -0.588392
      0.93023     12.87558     41.39341        -1.430207      1.310126     -0.820342
      9.98671      3.77021     41.18593        -0.871916      0.986142      0.295172
      9.66609     12.91828     41.46757         0.317552     -0.359314      0.213926
      3.84401      8.02322     41.15749         0.262932      0.101059      1.417431
      3.69674     17.22177     41.13053         0.553259      0.643819      0.621084
     13.04360      8.36935     41.51240        -0.611999     -0.935848     -0.183729
     12.68887     17.29848     41.14606         0.427463      0.645442      0.815738
      8.14001      5.18168     41.28699        -0.072437      1.458034      1.130341
      8.08871     14.56131     40.97612        -0.096903      0.115041      0.508776
     17.49392      5.09277     41.59217        -0.456306      0.417288      0.705931
     17.07008     14.21747     41.19970         0.133694      0.307242     -0.273204
      5.31323      0.83817     41.12563         0.721067      0.861544      1.679056
      5.36148      9.80720     41.15112        -0.576902     -0.835409      0.791352
     14.31043      0.90893     41.18570         0.522484      0.980681      1.429439
     14.50410     10.07317     40.95062         1.431627      0.848950     -1.154246
      0.82731      3.68697     47.03596         0.025778     -0.034577     -0.100745
      0.82485     12.71837     47.03596         0.008690     -0.016941     -0.078915
      9.85771      3.68697     47.03596         0.021980     -0.025982     -0.083144
      9.85525     12.71837     47.03596         0.028800     -0.026615     -0.100073
      3.68432      8.20234     47.03465        -0.013016     -0.014069     -0.068113
      3.68186     17.23373     47.03465        -0.009991     -0.005065     -0.067828
     12.71472      8.20234     47.03465        -0.010071     -0.007873     -0.083636
     12.71226     17.23373     47.03465        -0.010812     -0.012301     -0.065981
      8.20068      5.34457     47.03603        -0.022348      0.019915     -0.087047
      8.19822     14.37597     47.03603        -0.013003      0.012638     -0.100801
     17.23108      5.34457     47.03603        -0.004642      0.000813     -0.097247
     17.22862     14.37597     47.03603        -0.025685      0.020199     -0.076162
      5.34365      0.82909     47.03465         0.005492      0.005417     -0.066184
      5.34119      9.86049     47.03465         0.010673      0.008502     -0.068732
     14.37405      0.82909     47.03465         0.017772      0.014668     -0.066817
     14.37159      9.86049     47.03465         0.017364      0.023461     -0.079624
     13.82314      9.51328     34.62500        -0.319023     -0.269814      0.369135
      9.10966      0.39587     34.54497        -0.043485     -0.033635     -0.026129
      8.51464      9.17008     34.77250         0.081197     -0.039000      0.032503
     17.84452     18.01367     34.36494         0.170989      0.023120      0.013298
      0.67988      8.92542     34.56366         0.006897      0.079852     -0.023080
      4.15934      4.21738     34.56429        -0.000500      0.036359     -0.008657
      4.66910     13.73484     34.55852        -0.050638      0.028760      0.025653
     13.39586      3.74213     34.69378        -0.025143     -0.016707      0.093447
     12.86147     14.25691     34.25489        -0.017377     -0.008464      0.293239
      0.02527     17.89880     40.91072        -0.006285     -0.001861     -0.028045
      0.21468      8.96713     40.97961         0.005241     -0.013199     -0.029166
      9.00595      0.15547     40.91337        -0.031165     -0.033653     -0.014018
      9.12101      8.91158     40.96226         0.037121     -0.028993      0.092207
      4.60181      4.42878     40.93070         0.047790     -0.000094     -0.079607
      4.45520     13.59824     40.90929         0.048761     -0.006923      0.010526
     13.44517      4.80183     40.91795         0.014282     -0.046211      0.006673
     13.57143     13.59757     40.85406        -0.017887      0.014264      0.039740
      2.51128      1.87972     38.11908         0.013958      0.075524     -0.061901
      2.65341     10.95131     38.11040        -0.009619      0.025625     -0.029164
     11.72142      1.84668     38.21446         0.068050      0.119735     -0.008311
     11.14593     11.49965     38.39446         0.021839     -0.290512     -0.213188
      6.44320      7.04954     38.07022        -0.023424     -0.082826     -0.085540
      6.55788     16.07967     37.98990         0.070571     -0.077139     -0.051283
     16.13095      6.54678     38.37300        -0.126298      0.051470     -0.191395
     15.66500     15.87158     38.09427         0.048497      0.003278     -0.060044
      2.14174      6.45966     38.18626         0.048310      0.010794     -0.012340
      2.16494     15.68806     37.97905        -0.050943      0.016680     -0.090441
     10.45203      5.94051     37.79721         0.128645      0.068538      0.006117
     11.10332     15.67285     38.22377        -0.039634      0.028463     -0.052050
      6.93176      2.38149     37.89087         0.008957      0.018873      0.036664
      7.01123     11.55225     38.19957        -0.037878     -0.098966      0.014536
     16.06721      2.51216     38.31143        -0.037325      0.034482     -0.004820
     16.46680     11.66361     38.42598        -0.140939     -0.007311     -0.361968
      0.00000      0.00000     47.17356        -0.001221      0.005672      0.350044
     -0.00246      9.03140     47.17356        -0.004483      0.001954      0.443899
      9.03040      0.00000     47.17356         0.000676     -0.001401      0.419926
      9.02794      9.03140     47.17356         0.005116      0.000454      0.502075
      4.51398      4.51570     47.17425        -0.003098     -0.003385      0.452418
      4.51152     13.54710     47.17425         0.003267      0.003017      0.469654
     13.54438      4.51570     47.17425         0.000836      0.001094      0.439992
     13.54192     13.54710     47.17425        -0.002538     -0.005436      0.350024
      2.45192      2.06295     44.04013         0.021984     -0.046828      0.023952
      2.44946     11.09435     44.04013         0.047151     -0.051946      0.081176
     11.48232      2.06295     44.04013         0.086988     -0.041417     -0.025734
     11.47986     11.09435     44.04013         0.071553     -0.045955     -0.032512
      6.57602      6.96845     44.04013        -0.039868      0.047853     -0.010820
      6.57356     15.99985     44.04013         0.027967      0.003651     -0.057618
     15.60642      6.96845     44.04013         0.027384     -0.007029      0.052553
     15.60396     15.99985     44.04013        -0.035183      0.003432      0.015612
      2.06108      6.57881     44.04000         0.040300     -0.036342      0.020455
      2.05862     15.61021     44.04000         0.017155      0.070457      0.024253
     11.09148      6.57881     44.04000        -0.060942     -0.073400     -0.005771
     11.08902     15.61021     44.04000        -0.008024     -0.002300     -0.025331
      6.96686      2.45259     44.04007        -0.053706     -0.052872      0.014436
      6.96440     11.48399     44.04007         0.024325     -0.008471     -0.030035
     15.99726      2.45259     44.04007        -0.002366      0.014576     -0.037954
     15.99481     11.48399     44.04007         0.001575      0.080289     -0.086180
      2.43163      2.08322     50.06849        -0.001173     -0.020277      0.021635
      2.42917     11.11462     50.06849         0.006916     -0.012146      0.024518
     11.46203      2.08322     50.06849         0.009083     -0.013206      0.024139
     11.45957     11.11462     50.06849         0.023546      0.003465      0.021148
      6.59631      6.94818     50.06849        -0.014496      0.005764      0.024132
      6.59385     15.97958     50.06849        -0.004788      0.014595      0.022800
     15.62671      6.94818     50.06849        -0.010523      0.009370      0.022284
     15.62425     15.97958     50.06849        -0.010967      0.010490      0.022850
      2.08113      6.59901     50.06905        -0.013700     -0.009592      0.023507
      2.07867     15.63041     50.06905        -0.022349      0.001630      0.023550
     11.11153      6.59901     50.06905        -0.003289     -0.015140      0.022706
     11.10907     15.63041     50.06905        -0.003511     -0.017813      0.022979
      6.94681      2.43239     50.06905         0.012768      0.005402      0.024416
      6.94435     11.46379     50.06905         0.008172      0.013171      0.024252
     15.97721      2.43239     50.06905         0.018022      0.001955      0.022642
     15.97475     11.46379     50.06905         0.000594      0.017833      0.021682
     17.92582     18.05481     37.85521         0.044003     -0.111130     -0.016612
      0.13730      9.00515     37.91424         0.029346      0.038437     -0.088428
      9.08460      0.16861     37.75462        -0.123014     -0.129411     -0.026185
      8.96993      8.91532     37.83469        -0.007666      0.016161     -0.145635
      4.42469      4.36987     37.71500        -0.055421      0.038324     -0.024041
      4.47744     13.47219     37.68102         0.016458      0.051354      0.006227
     13.38313      4.46363     37.70280         0.002552      0.031384     -0.078568
     13.28421     13.62201     37.65085         0.045572      0.055384     -0.060093
      0.00001      0.00001     44.04300        -0.029570     -0.116495      0.198446
     -0.00245      9.03141     44.04300         0.015379     -0.054359      0.222389
      9.03041      0.00001     44.04300        -0.014722      0.063129      0.111565
      9.02795      9.03141     44.04300        -0.057804      0.014084      0.122538
      4.51397      4.51569     44.04275         0.054417     -0.001348      0.154112
      4.51151     13.54709     44.04275        -0.072232     -0.029286      0.024631
     13.54437      4.51569     44.04275         0.028611      0.052587      0.134227
     13.54191     13.54709     44.04275        -0.034073      0.126880      0.054423
      0.00000      0.00000     50.44728         0.007116      0.001888     -0.610894
     -0.00246      9.03140     50.44728         0.008050     -0.004164     -0.636210
      9.03040      0.00000     50.44728        -0.007758      0.005926     -0.630288
      9.02794      9.03140     50.44728        -0.008988     -0.004776     -0.649537
      4.51397      4.51570     50.44728         0.007579      0.009271     -0.638979
      4.51151     13.54710     50.44728         0.005900     -0.009638     -0.645601
     13.54437      4.51570     50.44728        -0.009083      0.007812     -0.637070
     13.54191     13.54710     50.44728        -0.005791     -0.008743     -0.610028
 -----------------------------------------------------------------------------------
    total drift:                                0.115421      0.117446      0.309731


--------------------------------------------------------------------------------------------------------



  FREE ENERGIE OF THE ION-ELECTRON SYSTEM (eV)
  ---------------------------------------------------
  free  energy   TOTEN  =     -1574.48531471 eV

  energy  without entropy=    -1574.48531471  energy(sigma->0) =    -1574.48531471
 


--------------------------------------------------------------------------------------------------------


    POTLOK:  cpu time    0.5010: real time    0.5009


--------------------------------------------------------------------------------------------------------


     LOOP+:  cpu time  266.2722: real time  266.8413
 vacuum level on the upper side and lower side of the slab         2.262         1.637
    4ORBIT:  cpu time    0.0000: real time    0.0000

 total amount of memory used by VASP MPI-rank0  8653582. kBytes
=======================================================================

   base      :      30000. kBytes
   nonlr-proj:      53620. kBytes
   fftplans  :     249280. kBytes
   grid      :     701440. kBytes
   one-center:       2636. kBytes
   wavefun   :    7616606. kBytes
 
  
  
 General timing and accounting informations for this job:
 ========================================================
  
                  Total CPU time used (sec):      479.669
                            User time (sec):      392.113
                          System time (sec):       87.557
                         Elapsed time (sec):      481.655
  
                   Maximum memory used (kb):    10324080.
                   Average memory used (kb):          N/A
  
                          Minor page faults:      3577537
                          Major page faults:           13
                 Voluntary context switches:        10597
