<?xml version="1.0" encoding="ISO-8859-1"?>
<modeling>
 <generator>
  <i name="program" type="string">vasp </i>
  <i name="version" type="string">6.2.1  </i>
  <i name="subversion" type="string">16May21 (build Nov 15 2021 14:57:28) complex                          parallel </i>
  <i name="platform" type="string">LinuxPGI </i>
  <i name="date" type="string">2023 07 24 </i>
  <i name="time" type="string">23:33:33 </i>
 </generator>
 <incar>
  <i type="string" name="SYSTEM">PSC</i>
  <i type="int" name="ISTART">     1</i>
  <i type="string" name="PREC">Normal</i>
  <i name="BMIX">      0.01000000</i>
  <i name="AMIN">      0.01000000</i>
  <i type="int" name="ICHARG">     1</i>
  <i type="int" name="NELM">   600</i>
  <i type="int" name="ISYM">     0</i>
  <i name="ENCUT">    500.00000000</i>
  <i type="string" name="LREAL">Auto</i>
  <i type="int" name="ISMEAR">     0</i>
  <i name="SIGMA">      0.05000000</i>
  <i type="logical" name="LWAVE"> F  </i>
  <i type="logical" name="LVTOT"> T  </i>
  <i type="logical" name="GGA_COMPAT"> F  </i>
  <i type="logical" name="LDIPOL"> T  </i>
  <i type="int" name="IDIPOL">     3</i>
  <i type="int" name="IVDW">    12</i>
 </incar>
 <primitive_cell>
  <structure name="primitive_cell" >
   <crystal>
    <varray name="basis" >
     <v>      18.06080055       0.00000000       0.00000000 </v>
     <v>      -0.00491865      18.06279945       0.00000000 </v>
     <v>       0.00000000       0.00000000      62.48749924 </v>
    </varray>
    <i name="volume">  20385.21054034 </i>
    <varray name="rec_basis" >
     <v>       0.05536853       0.00001508      -0.00000000 </v>
     <v>       0.00000000       0.05536240       0.00000000 </v>
     <v>       0.00000000      -0.00000000       0.01600320 </v>
    </varray>
   </crystal>
   <varray name="positions" >
    <v>       0.43713099       0.30800427       0.57337042 </v>
    <v>       0.43059863       0.83575215       0.57341468 </v>
    <v>       0.98246355       0.31613886       0.58249132 </v>
    <v>       0.96485854       0.80788283       0.58119852 </v>
    <v>       0.31390565       0.96463142       0.57614636 </v>
    <v>       0.32255668       0.56231898       0.57589204 </v>
    <v>       0.79547430       0.07063085       0.58096038 </v>
    <v>       0.03694263       0.13687478       0.56162118 </v>
    <v>       0.05802855       0.64134917       0.56142894 </v>
    <v>       0.57915594       0.18417819       0.55275686 </v>
    <v>       0.53092865       0.66435825       0.56413645 </v>
    <v>       0.35302661       0.02647977       0.55802488 </v>
    <v>       0.28165147       0.62267272       0.55739463 </v>
    <v>       0.86669113       0.04154430       0.56418651 </v>
    <v>       0.00999874       0.18018797       0.58536323 </v>
    <v>       0.01385957       0.67865111       0.58385897 </v>
    <v>       0.56302281       0.25701536       0.57068317 </v>
    <v>       0.46283992       0.70165401       0.58039752 </v>
    <v>       0.27265778       0.43474236       0.57782144 </v>
    <v>       0.17722139       0.94304324       0.57395837 </v>
    <v>       0.67761039       0.00587812       0.57921515 </v>
    <v>       0.36904241       0.26411766       0.55819362 </v>
    <v>       0.48589874       0.88135311       0.55457851 </v>
    <v>       0.01293856       0.35987397       0.55911842 </v>
    <v>       0.98608535       0.85594659       0.55828977 </v>
    <v>       0.19343275       0.41634312       0.56216536 </v>
    <v>       0.12891022       0.99605505       0.55536334 </v>
    <v>       0.67494705       0.92662863       0.56249764 </v>
    <v>       0.45339729       0.18208188       0.54226099 </v>
    <v>       0.55435782       0.77538706       0.54656971 </v>
    <v>       0.04254423       0.24776349       0.54221563 </v>
    <v>       0.04537003       0.75252186       0.54233150 </v>
    <v>       0.19504549       0.53328953       0.54645256 </v>
    <v>       0.23636607       0.05564531       0.54293006 </v>
    <v>       0.79339326       0.94305330       0.55047863 </v>
    <v>       0.46899139       0.32035122       0.67319953 </v>
    <v>       0.43276708       0.81894443       0.67136774 </v>
    <v>       0.97122835       0.27621356       0.68209895 </v>
    <v>       0.92118934       0.77007297       0.67308506 </v>
    <v>       0.29810702       0.05498447       0.67463921 </v>
    <v>       0.30788532       0.54421607       0.67475331 </v>
    <v>       0.78880453       0.06425879       0.67521427 </v>
    <v>       0.79556541       0.59074774       0.66822356 </v>
    <v>       0.08614134       0.16798620       0.64481354 </v>
    <v>       0.10027028       0.69905626       0.65575158 </v>
    <v>       0.57613199       0.16519549       0.65182886 </v>
    <v>       0.57290965       0.67800550       0.65731464 </v>
    <v>       0.18064297       0.41122470       0.64997186 </v>
    <v>       0.17465437       0.91868046       0.64933831 </v>
    <v>       0.70300295       0.41060148       0.66061144 </v>
    <v>       0.67524549       0.92060281       0.64944056 </v>
    <v>       0.06949774       0.17947930       0.67212320 </v>
    <v>       0.03745721       0.68854625       0.67628914 </v>
    <v>       0.58059633       0.23443099       0.67125779 </v>
    <v>       0.52984337       0.71706239       0.68005820 </v>
    <v>       0.21216974       0.43486754       0.67497143 </v>
    <v>       0.19698872       0.94934679       0.67446748 </v>
    <v>       0.70013337       0.48767923       0.67759335 </v>
    <v>       0.68854425       0.95988135       0.67443995 </v>
    <v>       0.39930351       0.29851998       0.65520954 </v>
    <v>       0.42231817       0.83529836       0.64400356 </v>
    <v>       0.93216854       0.32055684       0.65984310 </v>
    <v>       0.91871336       0.82642808       0.65051103 </v>
    <v>       0.32744912       0.07889253       0.64920346 </v>
    <v>       0.32396027       0.58033339       0.64957847 </v>
    <v>       0.82994945       0.07927693       0.65058563 </v>
    <v>       0.84319091       0.57784002       0.64441270 </v>
    <v>       0.00128939       0.25596965       0.63532013 </v>
    <v>       0.03235672       0.78431890       0.63781861 </v>
    <v>       0.46013509       0.20077545       0.64016484 </v>
    <v>       0.50913822       0.74913863       0.63355824 </v>
    <v>       0.25393504       0.99675622       0.63151688 </v>
    <v>       0.24821880       0.50059836       0.63208156 </v>
    <v>       0.76198450       0.99038724       0.63267696 </v>
    <v>       0.79122075       0.46126523       0.63825974 </v>
    <v>       0.44874502       0.30128397       0.76888902 </v>
    <v>       0.44874501       0.80128391       0.76888902 </v>
    <v>       0.94874497       0.30128397       0.76888902 </v>
    <v>       0.94874501       0.80128391       0.76888902 </v>
    <v>       0.30127600       0.05129450       0.76887296 </v>
    <v>       0.30127601       0.55129450       0.76887296 </v>
    <v>       0.80127594       0.05129450       0.76887296 </v>
    <v>       0.80127598       0.55129450       0.76887296 </v>
    <v>       0.07877100       0.17118050       0.74344197 </v>
    <v>       0.07877101       0.67118045       0.74344197 </v>
    <v>       0.57877100       0.17118050       0.74344197 </v>
    <v>       0.57877099       0.67118045       0.74344197 </v>
    <v>       0.17119950       0.42117448       0.74342103 </v>
    <v>       0.17119950       0.92117451       0.74342103 </v>
    <v>       0.67119951       0.42117448       0.74342103 </v>
    <v>       0.67119950       0.92117451       0.74342103 </v>
    <v>       0.05125600       0.19871499       0.76888902 </v>
    <v>       0.05125600       0.69871493       0.76888902 </v>
    <v>       0.55125603       0.19871499       0.76888902 </v>
    <v>       0.55125602       0.69871493       0.76888902 </v>
    <v>       0.19872349       0.44870397       0.76887205 </v>
    <v>       0.19872349       0.94870397       0.76887205 </v>
    <v>       0.69872352       0.44870397       0.76887205 </v>
    <v>       0.69872351       0.94870397       0.76887205 </v>
    <v>       0.42123152       0.32881747       0.74344197 </v>
    <v>       0.42123151       0.82881744       0.74344197 </v>
    <v>       0.92123147       0.32881747       0.74344197 </v>
    <v>       0.92123151       0.82881744       0.74344197 </v>
    <v>       0.32880050       0.07882500       0.74342103 </v>
    <v>       0.32880049       0.57882496       0.74342103 </v>
    <v>       0.82880048       0.07882500       0.74342103 </v>
    <v>       0.82880052       0.57882496       0.74342103 </v>
    <v>       0.00000350       0.25000148       0.72582199 </v>
    <v>       0.00000350       0.75000145       0.72582199 </v>
    <v>       0.50000351       0.25000148       0.72582199 </v>
    <v>       0.50000350       0.75000145       0.72582199 </v>
    <v>       0.25000050       0.00000000       0.72580398 </v>
    <v>       0.25000052       0.50000000       0.72580398 </v>
    <v>       0.75000050       0.00000000       0.72580398 </v>
    <v>       0.75000049       0.50000000       0.72580398 </v>
    <v>       0.77512782       0.55477244       0.52157313 </v>
    <v>       0.72119830       0.47335802       0.52689024 </v>
    <v>       0.87277926       0.50044271       0.54306779 </v>
    <v>       0.85534379       0.47676748       0.57006635 </v>
    <v>       0.74231436       0.63807750       0.56022735 </v>
    <v>       0.80255838       0.59574404       0.57938828 </v>
    <v>       0.66644863       0.54568627       0.57114695 </v>
    <v>       0.67766866       0.45327979       0.56097127 </v>
    <v>       0.61370941       0.54959647       0.53848368 </v>
    <v>       0.66717306       0.63222435       0.53830457 </v>
    <v>       0.60674499       0.64695095       0.50654760 </v>
    <v>       0.68698325       0.60292543       0.49699021 </v>
    <v>       0.81975256       0.38662166       0.53014839 </v>
    <v>       0.76583843       0.37470018       0.55333821 </v>
    <v>       0.86111736       0.36191487       0.55482362 </v>
    <v>       0.86388497       0.69081713       0.55751977 </v>
    <v>       0.84831120       0.64352971       0.53363670 </v>
    <v>       0.90774781       0.60546679       0.55363051 </v>
    <v>       0.75698899       0.52058002       0.60087232 </v>
    <v>       0.77373621       0.42923624       0.59028768 </v>
    <v>       0.68477115       0.45266786       0.60014280 </v>
    <v>       0.53482730       0.53273526       0.50582380 </v>
    <v>       0.57590774       0.55239797       0.48050831 </v>
    <v>       0.69548660       0.48123971       0.47015571 </v>
    <v>       0.56065236       0.41855421       0.52361852 </v>
    <v>       0.76314172       0.36100754       0.47249825 </v>
    <v>       0.62664821       0.29959998       0.52638141 </v>
    <v>       0.72813649       0.27042088       0.50117162 </v>
    <v>       0.02204477       0.24750800       0.55865062 </v>
    <v>       0.02232969       0.74888388       0.55808465 </v>
    <v>       0.47114479       0.22269247       0.55387787 </v>
    <v>       0.50977322       0.77252712       0.55834721 </v>
    <v>       0.23704256       0.51952829       0.55860813 </v>
    <v>       0.24069423       0.01390437       0.55571338 </v>
    <v>       0.77057407       0.98174015       0.56239691 </v>
    <v>       0.00861766       0.24468868       0.65194992 </v>
    <v>       0.00946040       0.76336978       0.65259842 </v>
    <v>       0.48701061       0.23175087       0.65281374 </v>
    <v>       0.49771513       0.75673918       0.65020469 </v>
    <v>       0.25161288       0.49516642       0.64919265 </v>
    <v>       0.25157409       0.99938656       0.64875134 </v>
    <v>       0.77271124       0.49360203       0.65201139 </v>
    <v>       0.75371411       0.00032551       0.64954856 </v>
    <v>       0.49998898       0.24999498       0.74327702 </v>
    <v>       0.49998903       0.74999496       0.74327702 </v>
    <v>       0.99998898       0.24999498       0.74327702 </v>
    <v>       0.99998903       0.74999496       0.74327702 </v>
    <v>       0.25000050       0.00000100       0.74325596 </v>
    <v>       0.25000052       0.50000100       0.74325596 </v>
    <v>       0.75000050       0.00000100       0.74325596 </v>
    <v>       0.75000049       0.50000100       0.74325596 </v>
    <v>       0.62391904       0.45871288       0.49722915 </v>
    <v>       0.68106323       0.44082386       0.48297258 </v>
    <v>       0.60492655       0.40596085       0.51251682 </v>
    <v>       0.71775803       0.37384110       0.48397488 </v>
    <v>       0.64128022       0.33912609       0.51392414 </v>
    <v>       0.69845043       0.32272358       0.49972428 </v>
    <v>       0.73164232       0.53115381       0.53174588 </v>
    <v>       0.83197079       0.47528091       0.55385272 </v>
    <v>       0.79047045       0.60161631       0.56221102 </v>
    <v>       0.70472817       0.49869701       0.56965282 </v>
    <v>       0.65997353       0.57745397       0.53014473 </v>
    <v>       0.63739001       0.59385547       0.50694521 </v>
    <v>       0.81769779       0.39580954       0.54741583 </v>
    <v>       0.85600251       0.63538619       0.55092721 </v>
    <v>       0.73301107       0.47464575       0.59151846 </v>
    <v>       0.58824432       0.53409845       0.49696042 </v>
    <v>       0.02294037       0.18487989       0.56919154 </v>
    <v>       0.03320704       0.68693945       0.56842601 </v>
    <v>       0.54190264       0.22166669       0.55904987 </v>
    <v>       0.50112310       0.70952679       0.56847265 </v>
    <v>       0.42395941       0.27019784       0.56136735 </v>
    <v>       0.47143904       0.83219824       0.56161276 </v>
    <v>       0.99953699       0.31088636       0.56663848 </v>
    <v>       0.98481657       0.80549680       0.56583876 </v>
    <v>       0.23522128       0.45181412       0.56670099 </v>
    <v>       0.17954235       0.97992103       0.56179291 </v>
    <v>       0.70161812       0.97412968       0.56777775 </v>
    <v>       0.30517313       0.00242699       0.56428974 </v>
    <v>       0.28370602       0.57006619       0.56450011 </v>
    <v>       0.81404367       0.03342082       0.57039210 </v>
    <v>       0.05839803       0.19321855       0.65688676 </v>
    <v>       0.05169983       0.71282279       0.66242711 </v>
    <v>       0.55300645       0.20872786       0.65910668 </v>
    <v>       0.53539214       0.71518681       0.66361387 </v>
    <v>       0.21295820       0.44418464       0.65865164 </v>
    <v>       0.20494285       0.95343839       0.65822015 </v>
    <v>       0.72233117       0.46334752       0.66433130 </v>
    <v>       0.70282490       0.95768529       0.65846868 </v>
    <v>       0.45077836       0.28687040       0.66072407 </v>
    <v>       0.44807963       0.80614927       0.65574908 </v>
    <v>       0.96868955       0.28194800       0.66560780 </v>
    <v>       0.94535952       0.78711327       0.65932700 </v>
    <v>       0.29419825       0.04640317       0.65814177 </v>
    <v>       0.29700515       0.54295040       0.65854956 </v>
    <v>       0.79236107       0.05032070       0.65910302 </v>
    <v>       0.80322263       0.55767510       0.65534098 </v>
    <v>       0.04586250       0.20411950       0.75272599 </v>
    <v>       0.04586250       0.70411946       0.75272599 </v>
    <v>       0.54586251       0.20411950       0.75272599 </v>
    <v>       0.54586250       0.70411946       0.75272599 </v>
    <v>       0.20411900       0.45410100       0.75270499 </v>
    <v>       0.20411899       0.95410095       0.75270499 </v>
    <v>       0.70411898       0.45410100       0.75270499 </v>
    <v>       0.70411896       0.95410095       0.75270499 </v>
    <v>       0.45414002       0.29588849       0.75272697 </v>
    <v>       0.45414001       0.79588852       0.75272697 </v>
    <v>       0.95414002       0.29588849       0.75272697 </v>
    <v>       0.95414006       0.79588852       0.75272697 </v>
    <v>       0.29588249       0.04590050       0.75270499 </v>
    <v>       0.29588248       0.54590053       0.75270499 </v>
    <v>       0.79588244       0.04590050       0.75270499 </v>
    <v>       0.79588248       0.54590053       0.75270499 </v>
    <v>       0.76551045       0.52667799       0.55411083 </v>
    <v>       0.50439431       0.02191623       0.55283012 </v>
    <v>       0.47158126       0.50767742       0.55647123 </v>
    <v>       0.98829661       0.99728015       0.54994911 </v>
    <v>       0.03777861       0.49413259       0.55312919 </v>
    <v>       0.23036031       0.23348406       0.55313932 </v>
    <v>       0.25872815       0.76039352       0.55304690 </v>
    <v>       0.74176571       0.20717354       0.55521157 </v>
    <v>       0.71233557       0.78929662       0.54818789 </v>
    <v>       0.00166910       0.99092056       0.65470248 </v>
    <v>       0.01202175       0.49644212       0.65580488 </v>
    <v>       0.49864851       0.00860706       0.65474491 </v>
    <v>       0.50515112       0.49336671       0.65552729 </v>
    <v>       0.25486231       0.24518804       0.65502219 </v>
    <v>       0.24688297       0.75283146       0.65467959 </v>
    <v>       0.74451184       0.26584060       0.65481823 </v>
    <v>       0.75163538       0.75279413       0.65379575 </v>
    <v>       0.13907422       0.10406558       0.61002729 </v>
    <v>       0.14708081       0.60629059       0.60988840 </v>
    <v>       0.64902556       0.10223642       0.61155371 </v>
    <v>       0.61730738       0.63664853       0.61443423 </v>
    <v>       0.35685684       0.39027956       0.60924539 </v>
    <v>       0.36334235       0.89020897       0.60796004 </v>
    <v>       0.89324577       0.36244543       0.61409084 </v>
    <v>       0.86758745       0.87868899       0.60963030 </v>
    <v>       0.11868215       0.35762215       0.61110239 </v>
    <v>       0.12010586       0.86852897       0.60778642 </v>
    <v>       0.57880302       0.32888111       0.60487629 </v>
    <v>       0.61501104       0.86768663       0.61170273 </v>
    <v>       0.38383703       0.13184521       0.60637513 </v>
    <v>       0.38837589       0.63956011       0.61131532 </v>
    <v>       0.88965587       0.13907909       0.61310548 </v>
    <v>       0.91191853       0.64572573       0.61493867 </v>
    <v>       0.00000000       0.00000000       0.75492797 </v>
    <v>       0.00000000       0.50000000       0.75492797 </v>
    <v>       0.50000000       0.00000000       0.75492797 </v>
    <v>       0.49999999       0.50000000       0.75492797 </v>
    <v>       0.25000050       0.25000000       0.75493902 </v>
    <v>       0.25000051       0.74999997       0.75493902 </v>
    <v>       0.75000047       0.25000000       0.75493902 </v>
    <v>       0.75000046       0.74999997       0.75493902 </v>
    <v>       0.13579050       0.11421000       0.70478299 </v>
    <v>       0.13579050       0.61420998       0.70478299 </v>
    <v>       0.63579045       0.11421000       0.70478299 </v>
    <v>       0.63579049       0.61420998       0.70478299 </v>
    <v>       0.36420952       0.38578999       0.70478299 </v>
    <v>       0.36420950       0.88578996       0.70478299 </v>
    <v>       0.86420954       0.38578999       0.70478299 </v>
    <v>       0.86420953       0.88578996       0.70478299 </v>
    <v>       0.11421799       0.36421899       0.70478098 </v>
    <v>       0.11421799       0.86421899       0.70478098 </v>
    <v>       0.61421800       0.36421899       0.70478098 </v>
    <v>       0.61421799       0.86421899       0.70478098 </v>
    <v>       0.38578201       0.13578149       0.70478202 </v>
    <v>       0.38578200       0.63578149       0.70478202 </v>
    <v>       0.88578199       0.13578149       0.70478202 </v>
    <v>       0.88578203       0.63578149       0.70478202 </v>
    <v>       0.13466700       0.11533200       0.80125603 </v>
    <v>       0.13466699       0.61533199       0.80125603 </v>
    <v>       0.63466699       0.11533200       0.80125603 </v>
    <v>       0.63466698       0.61533199       0.80125603 </v>
    <v>       0.36533300       0.38466799       0.80125603 </v>
    <v>       0.36533299       0.88466796       0.80125603 </v>
    <v>       0.86533295       0.38466799       0.80125603 </v>
    <v>       0.86533294       0.88466796       0.80125603 </v>
    <v>       0.11532850       0.36533700       0.80126500 </v>
    <v>       0.11532850       0.86533698       0.80126500 </v>
    <v>       0.61532850       0.36533700       0.80126500 </v>
    <v>       0.61532849       0.86533698       0.80126500 </v>
    <v>       0.38467151       0.13466300       0.80126500 </v>
    <v>       0.38467150       0.63466297       0.80126500 </v>
    <v>       0.88467149       0.13466300       0.80126500 </v>
    <v>       0.88467153       0.63466297       0.80126500 </v>
    <v>       0.99279865       0.99955744       0.60580458 </v>
    <v>       0.00773799       0.49854674       0.60674923 </v>
    <v>       0.50300358       0.00933447       0.60419476 </v>
    <v>       0.49678620       0.49357378       0.60547614 </v>
    <v>       0.24505427       0.24192657       0.60356066 </v>
    <v>       0.24811247       0.74585266       0.60301697 </v>
    <v>       0.74107145       0.24711751       0.60336555 </v>
    <v>       0.73573233       0.75414744       0.60253409 </v>
    <v>       0.00000050       0.00000050       0.70482896 </v>
    <v>       0.00000050       0.50000048       0.70482896 </v>
    <v>       0.50000048       0.00000050       0.70482896 </v>
    <v>       0.50000046       0.50000048       0.70482896 </v>
    <v>       0.24999999       0.24999947       0.70482499 </v>
    <v>       0.25000001       0.74999950       0.70482499 </v>
    <v>       0.74999999       0.24999947       0.70482499 </v>
    <v>       0.74999998       0.74999950       0.70482499 </v>
    <v>       0.00000000       0.00000000       0.80731797 </v>
    <v>       0.00000000       0.50000000       0.80731797 </v>
    <v>       0.50000000       0.00000000       0.80731797 </v>
    <v>       0.49999999       0.50000000       0.80731797 </v>
    <v>       0.24999999       0.25000000       0.80731797 </v>
    <v>       0.25000001       0.74999997       0.80731797 </v>
    <v>       0.74999999       0.25000000       0.80731797 </v>
    <v>       0.74999998       0.74999997       0.80731797 </v>
   </varray>
  </structure>
  <varray name="primitive_index" >
   <v type="int" >        1 </v>
   <v type="int" >        2 </v>
   <v type="int" >        3 </v>
   <v type="int" >        4 </v>
   <v type="int" >        5 </v>
   <v type="int" >        6 </v>
   <v type="int" >        7 </v>
   <v type="int" >        8 </v>
   <v type="int" >        9 </v>
   <v type="int" >       10 </v>
   <v type="int" >       11 </v>
   <v type="int" >       12 </v>
   <v type="int" >       13 </v>
   <v type="int" >       14 </v>
   <v type="int" >       15 </v>
   <v type="int" >       16 </v>
   <v type="int" >       17 </v>
   <v type="int" >       18 </v>
   <v type="int" >       19 </v>
   <v type="int" >       20 </v>
   <v type="int" >       21 </v>
   <v type="int" >       22 </v>
   <v type="int" >       23 </v>
   <v type="int" >       24 </v>
   <v type="int" >       25 </v>
   <v type="int" >       26 </v>
   <v type="int" >       27 </v>
   <v type="int" >       28 </v>
   <v type="int" >       29 </v>
   <v type="int" >       30 </v>
   <v type="int" >       31 </v>
   <v type="int" >       32 </v>
   <v type="int" >       33 </v>
   <v type="int" >       34 </v>
   <v type="int" >       35 </v>
   <v type="int" >       36 </v>
   <v type="int" >       37 </v>
   <v type="int" >       38 </v>
   <v type="int" >       39 </v>
   <v type="int" >       40 </v>
   <v type="int" >       41 </v>
   <v type="int" >       42 </v>
   <v type="int" >       43 </v>
   <v type="int" >       44 </v>
   <v type="int" >       45 </v>
   <v type="int" >       46 </v>
   <v type="int" >       47 </v>
   <v type="int" >       48 </v>
   <v type="int" >       49 </v>
   <v type="int" >       50 </v>
   <v type="int" >       51 </v>
   <v type="int" >       52 </v>
   <v type="int" >       53 </v>
   <v type="int" >       54 </v>
   <v type="int" >       55 </v>
   <v type="int" >       56 </v>
   <v type="int" >       57 </v>
   <v type="int" >       58 </v>
   <v type="int" >       59 </v>
   <v type="int" >       60 </v>
   <v type="int" >       61 </v>
   <v type="int" >       62 </v>
   <v type="int" >       63 </v>
   <v type="int" >       64 </v>
   <v type="int" >       65 </v>
   <v type="int" >       66 </v>
   <v type="int" >       67 </v>
   <v type="int" >       68 </v>
   <v type="int" >       69 </v>
   <v type="int" >       70 </v>
   <v type="int" >       71 </v>
   <v type="int" >       72 </v>
   <v type="int" >       73 </v>
   <v type="int" >       74 </v>
   <v type="int" >       75 </v>
   <v type="int" >       76 </v>
   <v type="int" >       77 </v>
   <v type="int" >       78 </v>
   <v type="int" >       79 </v>
   <v type="int" >       80 </v>
   <v type="int" >       81 </v>
   <v type="int" >       82 </v>
   <v type="int" >       83 </v>
   <v type="int" >       84 </v>
   <v type="int" >       85 </v>
   <v type="int" >       86 </v>
   <v type="int" >       87 </v>
   <v type="int" >       88 </v>
   <v type="int" >       89 </v>
   <v type="int" >       90 </v>
   <v type="int" >       91 </v>
   <v type="int" >       92 </v>
   <v type="int" >       93 </v>
   <v type="int" >       94 </v>
   <v type="int" >       95 </v>
   <v type="int" >       96 </v>
   <v type="int" >       97 </v>
   <v type="int" >       98 </v>
   <v type="int" >       99 </v>
   <v type="int" >      100 </v>
   <v type="int" >      101 </v>
   <v type="int" >      102 </v>
   <v type="int" >      103 </v>
   <v type="int" >      104 </v>
   <v type="int" >      105 </v>
   <v type="int" >      106 </v>
   <v type="int" >      107 </v>
   <v type="int" >      108 </v>
   <v type="int" >      109 </v>
   <v type="int" >      110 </v>
   <v type="int" >      111 </v>
   <v type="int" >      112 </v>
   <v type="int" >      113 </v>
   <v type="int" >      114 </v>
   <v type="int" >      115 </v>
   <v type="int" >      116 </v>
   <v type="int" >      117 </v>
   <v type="int" >      118 </v>
   <v type="int" >      119 </v>
   <v type="int" >      120 </v>
   <v type="int" >      121 </v>
   <v type="int" >      122 </v>
   <v type="int" >      123 </v>
   <v type="int" >      124 </v>
   <v type="int" >      125 </v>
   <v type="int" >      126 </v>
   <v type="int" >      127 </v>
   <v type="int" >      128 </v>
   <v type="int" >      129 </v>
   <v type="int" >      130 </v>
   <v type="int" >      131 </v>
   <v type="int" >      132 </v>
   <v type="int" >      133 </v>
   <v type="int" >      134 </v>
   <v type="int" >      135 </v>
   <v type="int" >      136 </v>
   <v type="int" >      137 </v>
   <v type="int" >      138 </v>
   <v type="int" >      139 </v>
   <v type="int" >      140 </v>
   <v type="int" >      141 </v>
   <v type="int" >      142 </v>
   <v type="int" >      143 </v>
   <v type="int" >      144 </v>
   <v type="int" >      145 </v>
   <v type="int" >      146 </v>
   <v type="int" >      147 </v>
   <v type="int" >      148 </v>
   <v type="int" >      149 </v>
   <v type="int" >      150 </v>
   <v type="int" >      151 </v>
   <v type="int" >      152 </v>
   <v type="int" >      153 </v>
   <v type="int" >      154 </v>
   <v type="int" >      155 </v>
   <v type="int" >      156 </v>
   <v type="int" >      157 </v>
   <v type="int" >      158 </v>
   <v type="int" >      159 </v>
   <v type="int" >      160 </v>
   <v type="int" >      161 </v>
   <v type="int" >      162 </v>
   <v type="int" >      163 </v>
   <v type="int" >      164 </v>
   <v type="int" >      165 </v>
   <v type="int" >      166 </v>
   <v type="int" >      167 </v>
   <v type="int" >      168 </v>
   <v type="int" >      169 </v>
   <v type="int" >      170 </v>
   <v type="int" >      171 </v>
   <v type="int" >      172 </v>
   <v type="int" >      173 </v>
   <v type="int" >      174 </v>
   <v type="int" >      175 </v>
   <v type="int" >      176 </v>
   <v type="int" >      177 </v>
   <v type="int" >      178 </v>
   <v type="int" >      179 </v>
   <v type="int" >      180 </v>
   <v type="int" >      181 </v>
   <v type="int" >      182 </v>
   <v type="int" >      183 </v>
   <v type="int" >      184 </v>
   <v type="int" >      185 </v>
   <v type="int" >      186 </v>
   <v type="int" >      187 </v>
   <v type="int" >      188 </v>
   <v type="int" >      189 </v>
   <v type="int" >      190 </v>
   <v type="int" >      191 </v>
   <v type="int" >      192 </v>
   <v type="int" >      193 </v>
   <v type="int" >      194 </v>
   <v type="int" >      195 </v>
   <v type="int" >      196 </v>
   <v type="int" >      197 </v>
   <v type="int" >      198 </v>
   <v type="int" >      199 </v>
   <v type="int" >      200 </v>
   <v type="int" >      201 </v>
   <v type="int" >      202 </v>
   <v type="int" >      203 </v>
   <v type="int" >      204 </v>
   <v type="int" >      205 </v>
   <v type="int" >      206 </v>
   <v type="int" >      207 </v>
   <v type="int" >      208 </v>
   <v type="int" >      209 </v>
   <v type="int" >      210 </v>
   <v type="int" >      211 </v>
   <v type="int" >      212 </v>
   <v type="int" >      213 </v>
   <v type="int" >      214 </v>
   <v type="int" >      215 </v>
   <v type="int" >      216 </v>
   <v type="int" >      217 </v>
   <v type="int" >      218 </v>
   <v type="int" >      219 </v>
   <v type="int" >      220 </v>
   <v type="int" >      221 </v>
   <v type="int" >      222 </v>
   <v type="int" >      223 </v>
   <v type="int" >      224 </v>
   <v type="int" >      225 </v>
   <v type="int" >      226 </v>
   <v type="int" >      227 </v>
   <v type="int" >      228 </v>
   <v type="int" >      229 </v>
   <v type="int" >      230 </v>
   <v type="int" >      231 </v>
   <v type="int" >      232 </v>
   <v type="int" >      233 </v>
   <v type="int" >      234 </v>
   <v type="int" >      235 </v>
   <v type="int" >      236 </v>
   <v type="int" >      237 </v>
   <v type="int" >      238 </v>
   <v type="int" >      239 </v>
   <v type="int" >      240 </v>
   <v type="int" >      241 </v>
   <v type="int" >      242 </v>
   <v type="int" >      243 </v>
   <v type="int" >      244 </v>
   <v type="int" >      245 </v>
   <v type="int" >      246 </v>
   <v type="int" >      247 </v>
   <v type="int" >      248 </v>
   <v type="int" >      249 </v>
   <v type="int" >      250 </v>
   <v type="int" >      251 </v>
   <v type="int" >      252 </v>
   <v type="int" >      253 </v>
   <v type="int" >      254 </v>
   <v type="int" >      255 </v>
   <v type="int" >      256 </v>
   <v type="int" >      257 </v>
   <v type="int" >      258 </v>
   <v type="int" >      259 </v>
   <v type="int" >      260 </v>
   <v type="int" >      261 </v>
   <v type="int" >      262 </v>
   <v type="int" >      263 </v>
   <v type="int" >      264 </v>
   <v type="int" >      265 </v>
   <v type="int" >      266 </v>
   <v type="int" >      267 </v>
   <v type="int" >      268 </v>
   <v type="int" >      269 </v>
   <v type="int" >      270 </v>
   <v type="int" >      271 </v>
   <v type="int" >      272 </v>
   <v type="int" >      273 </v>
   <v type="int" >      274 </v>
   <v type="int" >      275 </v>
   <v type="int" >      276 </v>
   <v type="int" >      277 </v>
   <v type="int" >      278 </v>
   <v type="int" >      279 </v>
   <v type="int" >      280 </v>
   <v type="int" >      281 </v>
   <v type="int" >      282 </v>
   <v type="int" >      283 </v>
   <v type="int" >      284 </v>
   <v type="int" >      285 </v>
   <v type="int" >      286 </v>
   <v type="int" >      287 </v>
   <v type="int" >      288 </v>
   <v type="int" >      289 </v>
   <v type="int" >      290 </v>
   <v type="int" >      291 </v>
   <v type="int" >      292 </v>
   <v type="int" >      293 </v>
   <v type="int" >      294 </v>
   <v type="int" >      295 </v>
   <v type="int" >      296 </v>
   <v type="int" >      297 </v>
   <v type="int" >      298 </v>
   <v type="int" >      299 </v>
   <v type="int" >      300 </v>
   <v type="int" >      301 </v>
   <v type="int" >      302 </v>
   <v type="int" >      303 </v>
   <v type="int" >      304 </v>
   <v type="int" >      305 </v>
   <v type="int" >      306 </v>
   <v type="int" >      307 </v>
   <v type="int" >      308 </v>
   <v type="int" >      309 </v>
   <v type="int" >      310 </v>
   <v type="int" >      311 </v>
   <v type="int" >      312 </v>
   <v type="int" >      313 </v>
   <v type="int" >      314 </v>
   <v type="int" >      315 </v>
   <v type="int" >      316 </v>
   <v type="int" >      317 </v>
   <v type="int" >      318 </v>
   <v type="int" >      319 </v>
   <v type="int" >      320 </v>
   <v type="int" >      321 </v>
   <v type="int" >      322 </v>
   <v type="int" >      323 </v>
   <v type="int" >      324 </v>
   <v type="int" >      325 </v>
  </varray>
 </primitive_cell>
 <kpoints>
  <generation param="Gamma">
   <v type="int" name="divisions">       3        3        1 </v>
   <v name="usershift">      0.00000000       0.00000000       0.00000000 </v>
   <v name="genvec1">      0.33333333       0.00000000       0.00000000 </v>
   <v name="genvec2">      0.00000000       0.33333333       0.00000000 </v>
   <v name="genvec3">      0.00000000       0.00000000       1.00000000 </v>
   <v name="shift">      0.00000000       0.00000000       0.00000000 </v>
  </generation>
  <varray name="kpointlist" >
   <v>       0.00000000       0.00000000       0.00000000 </v>
   <v>       0.33333333       0.00000000       0.00000000 </v>
   <v>       0.00000000       0.33333333       0.00000000 </v>
   <v>       0.33333333       0.33333333       0.00000000 </v>
   <v>      -0.33333333       0.33333333       0.00000000 </v>
  </varray>
  <varray name="weights" >
   <v>       0.11111111 </v>
   <v>       0.22222222 </v>
   <v>       0.22222222 </v>
   <v>       0.22222222 </v>
   <v>       0.22222222 </v>
  </varray>
 </kpoints>
 <parameters>
  <separator name="general" >
   <i type="string" name="SYSTEM">PSC</i>
   <i type="logical" name="LCOMPAT"> F  </i>
  </separator>
  <separator name="electronic" >
   <i type="string" name="PREC">normal</i>
   <i name="ENMAX">    500.00000000</i>
   <i name="ENAUG">    644.87300000</i>
   <i name="EDIFF">      0.00010000</i>
   <i type="int" name="IALGO">    38</i>
   <i type="int" name="IWAVPR">    10</i>
   <i type="int" name="NBANDS">   732</i>
   <i type="int" name="NBANDSLOW">    -1</i>
   <i type="int" name="NBANDSHIGH">    -1</i>
   <i name="NELECT">   1134.00000000</i>
   <i type="int" name="TURBO">     0</i>
   <i type="int" name="IRESTART">     0</i>
   <i type="int" name="NREBOOT">     0</i>
   <i type="int" name="NMIN">     0</i>
   <i name="EREF">      0.00000000</i>
   <separator name="electronic smearing" >
    <i type="int" name="ISMEAR">     0</i>
    <i name="SIGMA">      0.05000000</i>
    <i name="KSPACING">      0.50000000</i>
    <i type="logical" name="KGAMMA"> T  </i>
    <i type="logical" name="KBLOWUP"> T  </i>
   </separator>
   <separator name="electronic projectors" >
    <i type="logical" name="LREAL"> T  </i>
    <v name="ROPT">     -0.00050000     -0.00050000     -0.00050000     -0.00050000     -0.00050000</v>
    <i type="int" name="LMAXPAW">  -100</i>
    <i type="int" name="LMAXMIX">     2</i>
    <i type="logical" name="NLSPLINE"> F  </i>
   </separator>
   <separator name="electronic startup" >
    <i type="int" name="ISTART">     0</i>
    <i type="int" name="ICHARG">     1</i>
    <i type="int" name="INIWAV">     1</i>
   </separator>
   <separator name="electronic spin" >
    <i type="int" name="ISPIN">     1</i>
    <i type="logical" name="LNONCOLLINEAR"> F  </i>
    <v name="MAGMOM">      1.00000000      1.00000000      1.00000000      1.00000000      1.00000000      1.00000000      1.00000000      1.00000000      1.00000000      1.00000000      1.00000000      1.00000000      1.00000000      1.00000000      1.00000000      1.00000000      1.00000000      1.00000000      1.00000000      1.00000000
      1.00000000      1.00000000      1.00000000      1.00000000      1.00000000      1.00000000      1.00000000      1.00000000      1.00000000      1.00000000      1.00000000      1.00000000      1.00000000      1.00000000      1.00000000      1.00000000      1.00000000      1.00000000      1.00000000      1.00000000
      1.00000000      1.00000000      1.00000000      1.00000000      1.00000000      1.00000000      1.00000000      1.00000000      1.00000000      1.00000000      1.00000000      1.00000000      1.00000000      1.00000000      1.00000000      1.00000000      1.00000000      1.00000000      1.00000000      1.00000000
      1.00000000      1.00000000      1.00000000      1.00000000      1.00000000      1.00000000      1.00000000      1.00000000      1.00000000      1.00000000      1.00000000      1.00000000      1.00000000      1.00000000      1.00000000      1.00000000      1.00000000      1.00000000      1.00000000      1.00000000
      1.00000000      1.00000000      1.00000000      1.00000000      1.00000000      1.00000000      1.00000000      1.00000000      1.00000000      1.00000000      1.00000000      1.00000000      1.00000000      1.00000000      1.00000000      1.00000000      1.00000000      1.00000000      1.00000000      1.00000000
      1.00000000      1.00000000      1.00000000      1.00000000      1.00000000      1.00000000      1.00000000      1.00000000      1.00000000      1.00000000      1.00000000      1.00000000      1.00000000      1.00000000      1.00000000      1.00000000      1.00000000      1.00000000      1.00000000      1.00000000
      1.00000000      1.00000000      1.00000000      1.00000000      1.00000000      1.00000000      1.00000000      1.00000000      1.00000000      1.00000000      1.00000000      1.00000000      1.00000000      1.00000000      1.00000000      1.00000000      1.00000000      1.00000000      1.00000000      1.00000000
      1.00000000      1.00000000      1.00000000      1.00000000      1.00000000      1.00000000      1.00000000      1.00000000      1.00000000      1.00000000      1.00000000      1.00000000      1.00000000      1.00000000      1.00000000      1.00000000      1.00000000      1.00000000      1.00000000      1.00000000
      1.00000000      1.00000000      1.00000000      1.00000000      1.00000000      1.00000000      1.00000000      1.00000000      1.00000000      1.00000000      1.00000000      1.00000000      1.00000000      1.00000000      1.00000000      1.00000000      1.00000000      1.00000000      1.00000000      1.00000000
      1.00000000      1.00000000      1.00000000      1.00000000      1.00000000      1.00000000      1.00000000      1.00000000      1.00000000      1.00000000      1.00000000      1.00000000      1.00000000      1.00000000      1.00000000      1.00000000      1.00000000      1.00000000      1.00000000      1.00000000
      1.00000000      1.00000000      1.00000000      1.00000000      1.00000000      1.00000000      1.00000000      1.00000000      1.00000000      1.00000000      1.00000000      1.00000000      1.00000000      1.00000000      1.00000000      1.00000000      1.00000000      1.00000000      1.00000000      1.00000000
      1.00000000      1.00000000      1.00000000      1.00000000      1.00000000      1.00000000      1.00000000      1.00000000      1.00000000      1.00000000      1.00000000      1.00000000      1.00000000      1.00000000      1.00000000      1.00000000      1.00000000      1.00000000      1.00000000      1.00000000
      1.00000000      1.00000000      1.00000000      1.00000000      1.00000000      1.00000000      1.00000000      1.00000000      1.00000000      1.00000000      1.00000000      1.00000000      1.00000000      1.00000000      1.00000000      1.00000000      1.00000000      1.00000000      1.00000000      1.00000000
      1.00000000      1.00000000      1.00000000      1.00000000      1.00000000      1.00000000      1.00000000      1.00000000      1.00000000      1.00000000      1.00000000      1.00000000      1.00000000      1.00000000      1.00000000      1.00000000      1.00000000      1.00000000      1.00000000      1.00000000
      1.00000000      1.00000000      1.00000000      1.00000000      1.00000000      1.00000000      1.00000000      1.00000000      1.00000000      1.00000000      1.00000000      1.00000000      1.00000000      1.00000000      1.00000000      1.00000000      1.00000000      1.00000000      1.00000000      1.00000000
      1.00000000      1.00000000      1.00000000      1.00000000      1.00000000      1.00000000      1.00000000      1.00000000      1.00000000      1.00000000      1.00000000      1.00000000      1.00000000      1.00000000      1.00000000      1.00000000      1.00000000      1.00000000      1.00000000      1.00000000
      1.00000000      1.00000000      1.00000000      1.00000000      1.00000000</v>
    <i name="NUPDOWN">     -1.00000000</i>
    <i type="logical" name="LSORBIT"> F  </i>
    <v name="SAXIS">      0.00000000      0.00000000      1.00000000</v>
    <i type="logical" name="LSPIRAL"> F  </i>
    <v name="QSPIRAL">      0.00000000      0.00000000      0.00000000</v>
    <i type="logical" name="LZEROZ"> F  </i>
   </separator>
   <separator name="electronic exchange-correlation" >
    <i type="logical" name="LASPH"> F  </i>
    <i type="logical" name="LMETAGGA"> F  </i>
   </separator>
   <separator name="electronic convergence" >
    <i type="int" name="NELM">   600</i>
    <i type="int" name="NELMDL">     0</i>
    <i type="int" name="NELMIN">     2</i>
    <i name="ENINI">    500.00000000</i>
    <separator name="electronic convergence detail" >
     <i type="logical" name="LDIAG"> T  </i>
     <i type="logical" name="LSUBROT"> F  </i>
     <i name="WEIMIN">      0.00000000</i>
     <i name="EBREAK">      0.00000003</i>
     <i name="DEPER">      0.30000000</i>
     <i type="int" name="NRMM">     4</i>
     <i name="TIME">      0.40000000</i>
    </separator>
   </separator>
   <separator name="electronic mixer" >
    <i name="AMIX">      0.40000000</i>
    <i name="BMIX">      0.01000000</i>
    <i name="AMIN">      0.01000000</i>
    <i name="AMIX_MAG">      1.60000000</i>
    <i name="BMIX_MAG">      0.01000000</i>
    <separator name="electronic mixer details" >
     <i type="int" name="IMIX">     4</i>
     <i type="logical" name="MIXFIRST"> F  </i>
     <i type="int" name="MAXMIX">   -45</i>
     <i name="WC">    100.00000000</i>
     <i type="int" name="INIMIX">     1</i>
     <i type="int" name="MIXPRE">     1</i>
     <i type="int" name="MREMOVE">     5</i>
    </separator>
   </separator>
   <separator name="electronic dipolcorrection" >
    <i type="logical" name="LDIPOL"> T  </i>
    <i type="logical" name="LMONO"> F  </i>
    <i type="int" name="IDIPOL">     3</i>
    <i name="EPSILON">      1.00000000</i>
    <v name="DIPOL">   -100.00000000   -100.00000000   -100.00000000</v>
    <i name="EFIELD">      0.00000000</i>
   </separator>
  </separator>
  <separator name="grids" >
   <i type="int" name="NGX">   100</i>
   <i type="int" name="NGY">   100</i>
   <i type="int" name="NGZ">   350</i>
   <i type="int" name="NGXF">   200</i>
   <i type="int" name="NGYF">   200</i>
   <i type="int" name="NGZF">   700</i>
   <i type="logical" name="ADDGRID"> F  </i>
  </separator>
  <separator name="ionic" >
   <i type="int" name="NSW">     0</i>
   <i type="int" name="IBRION">    -1</i>
   <i type="int" name="MDALGO">     0</i>
   <i type="int" name="ISIF">     2</i>
   <i name="PSTRESS">      0.00000000</i>
   <i name="EDIFFG">      0.00100000</i>
   <i type="int" name="NFREE">     0</i>
   <i name="POTIM">      0.50000000</i>
   <i name="SMASS">     -3.00000000</i>
   <i name="SCALEE">      1.00000000</i>
  </separator>
  <separator name="ionic md" >
   <i name="TEBEG">      0.00010000</i>
   <i name="TEEND">      0.00010000</i>
   <i type="int" name="NBLOCK">     1</i>
   <i type="int" name="KBLOCK">     1</i>
   <i type="int" name="NPACO">   256</i>
   <i name="APACO">     16.00000000</i>
  </separator>
  <separator name="symmetry" >
   <i type="int" name="ISYM">     0</i>
   <i name="SYMPREC">      0.00001000</i>
  </separator>
  <separator name="dos" >
   <i type="int" name="LORBIT">     0</i>
   <v name="RWIGS">     -1.00000000     -1.00000000     -1.00000000     -1.00000000     -1.00000000</v>
   <i type="int" name="NEDOS">   301</i>
   <i name="EMIN">     10.00000000</i>
   <i name="EMAX">    -10.00000000</i>
   <i name="EFERMI">      0.00000000</i>
  </separator>
  <separator name="writing" >
   <i type="int" name="NWRITE">     2</i>
   <i type="logical" name="LWAVE"> F  </i>
   <i type="logical" name="LDOWNSAMPLE"> F  </i>
   <i type="logical" name="LCHARG"> T  </i>
   <i type="logical" name="LPARD"> F  </i>
   <i type="logical" name="LVTOT"> T  </i>
   <i type="logical" name="LVHAR"> F  </i>
   <i type="logical" name="LELF"> F  </i>
   <i type="logical" name="LOPTICS"> F  </i>
   <v name="STM">      0.00000000      0.00000000      0.00000000      0.00000000      0.00000000      0.00000000      0.00000000</v>
  </separator>
  <separator name="performance" >
   <i type="int" name="NPAR">     4</i>
   <i type="int" name="NSIM">     4</i>
   <i type="int" name="NBLK">    -1</i>
   <i type="logical" name="LPLANE"> T  </i>
   <i type="logical" name="LSCALAPACK"> T  </i>
   <i type="logical" name="LSCAAWARE"> F  </i>
   <i type="logical" name="LSCALU"> F  </i>
   <i type="logical" name="LASYNC"> F  </i>
   <i type="logical" name="LORBITALREAL"> F  </i>
  </separator>
  <separator name="miscellaneous" >
   <i type="int" name="IDIOT">     3</i>
   <i type="int" name="PHON_NSTRUCT">    -1</i>
   <i type="logical" name="LMUSIC"> F  </i>
   <v name="POMASS">      1.00000000     12.01100000     14.00100000    126.90400000    207.20000000</v>
   <v name="DARWINR">      0.00000000      0.00000000      0.00000000      0.00000000      0.00000000</v>
   <v name="DARWINV">      1.00000000      1.00000000      1.00000000      1.00000000      1.00000000</v>
   <i type="logical" name="LCORR"> T  </i>
  </separator>
  <i type="logical" name="GGA_COMPAT"> F  </i>
  <i type="logical" name="LBERRY"> F  </i>
  <i type="int" name="ICORELEVEL">     0</i>
  <i type="logical" name="LDAU"> F  </i>
  <i type="int" name="I_CONSTRAINED_M">     0</i>
  <separator name="electronic exchange-correlation" >
   <i type="string" name="GGA">--</i>
   <i type="int" name="VOSKOWN">     0</i>
   <i type="logical" name="LHFCALC"> F  </i>
   <i type="string" name="PRECFOCK"></i>
   <i type="logical" name="LSYMGRAD"> F  </i>
   <i type="logical" name="LHFONE"> F  </i>
   <i type="logical" name="LRHFCALC"> F  </i>
   <i type="logical" name="LTHOMAS"> F  </i>
   <i type="logical" name="LMODELHF"> F  </i>
   <i type="logical" name="LFOCKACE"> F  </i>
   <i name="ENCUT4O">     -1.00000000</i>
   <i type="int" name="EXXOEP">     0</i>
   <i type="int" name="FOURORBIT">     0</i>
   <i name="AEXX">      0.00000000</i>
   <i name="HFALPHA">      0.00000000</i>
   <i name="MCALPHA">      0.00000000</i>
   <i name="ALDAX">      1.00000000</i>
   <i name="AGGAX">      1.00000000</i>
   <i name="ALDAC">      1.00000000</i>
   <i name="AGGAC">      1.00000000</i>
   <i type="int" name="NKREDX">     1</i>
   <i type="int" name="NKREDY">     1</i>
   <i type="int" name="NKREDZ">     1</i>
   <i type="logical" name="SHIFTRED"> F  </i>
   <i type="logical" name="ODDONLY"> F  </i>
   <i type="logical" name="EVENONLY"> F  </i>
   <i type="int" name="LMAXFOCK">     0</i>
   <i type="int" name="NMAXFOCKAE">     0</i>
   <i type="logical" name="LFOCKAEDFT"> F  </i>
   <i name="HFSCREEN">      0.00000000</i>
   <i name="HFSCREENC">      0.00000000</i>
   <i type="int" name="NBANDSGWLOW">     0</i>
  </separator>
  <separator name="vdW DFT" >
   <i type="logical" name="LUSE_VDW"> F  </i>
   <i name="Zab_VDW">     -0.84910000</i>
   <i name="PARAM1">      0.12340000</i>
   <i name="PARAM2">      1.00000000</i>
   <i name="PARAM3">      0.00000000</i>
  </separator>
  <separator name="model GW" >
   <i type="int" name="MODEL_GW">     0</i>
   <i name="MODEL_EPS0">     37.63423484</i>
   <i name="MODEL_ALPHA">      1.00000000</i>
  </separator>
  <separator name="linear response parameters" >
   <i type="logical" name="LEPSILON"> F  </i>
   <i type="logical" name="LRPA"> F  </i>
   <i type="logical" name="LNABLA"> F  </i>
   <i type="logical" name="LVEL"> F  </i>
   <i type="int" name="KINTER">     0</i>
   <i name="CSHIFT">      0.10000000</i>
   <i name="OMEGAMAX">     -1.00000000</i>
   <i name="DEG_THRESHOLD">      0.00200000</i>
   <i name="RTIME">     -0.10000000</i>
   <i name="WPLASMAI">      0.00000000</i>
   <v name="DFIELD">      0.00000000      0.00000000      0.00000000</v>
   <v name="WPLASMA">      0.00000000      0.00000000      0.00000000      0.00000000      0.00000000      0.00000000      0.00000000      0.00000000      0.00000000</v>
  </separator>
  <separator name="orbital magnetization" >
   <i type="logical" name="NUCIND"> F  </i>
   <v name="MAGPOS">      0.00000000      0.00000000      0.00000000</v>
   <i type="logical" name="LNICSALL"> T  </i>
   <i type="logical" name="ORBITALMAG"> F  </i>
   <i type="logical" name="LMAGBLOCH"> F  </i>
   <i type="logical" name="LCHIMAG"> F  </i>
   <i type="logical" name="LGAUGE"> T  </i>
   <i type="int" name="MAGATOM">     0</i>
   <v name="MAGDIPOL">      0.00000000      0.00000000      0.00000000</v>
   <v name="AVECCONST">      0.00000000      0.00000000      0.00000000</v>
  </separator>
  <separator name="response functions" >
   <i type="logical" name="LFINITE_TEMPERATURE"> F  </i>
   <i type="logical" name="LADDER"> F  </i>
   <i type="logical" name="LRPAFORCE"> F  </i>
   <i type="logical" name="LFXC"> F  </i>
   <i type="logical" name="LHARTREE"> T  </i>
   <i type="int" name="IBSE">     0</i>
   <v type="int" name="KPOINT">    -1     0     0     0</v>
   <i type="logical" name="LTCTC"> F  </i>
   <i type="logical" name="LTCTE"> F  </i>
   <i type="logical" name="LTETE"> F  </i>
   <i type="logical" name="LTRIPLET"> F  </i>
   <i type="logical" name="LFXCEPS"> F  </i>
   <i type="logical" name="LFXHEG"> F  </i>
   <i type="int" name="NATURALO">     2</i>
   <i type="logical" name="LHOLEGF"> F  </i>
   <i type="logical" name="L2ORDER"> F  </i>
   <i type="logical" name="LDMP1"> F  </i>
   <i type="logical" name="LMP2LT"> F  </i>
   <i type="logical" name="LSMP2LT"> F  </i>
   <i type="logical" name="LGWLF"> F  </i>
   <i name="ENCUTGW">     -2.00000000</i>
   <i name="ENCUTGWSOFT">     -2.00000000</i>
   <i name="ENCUTLF">     -1.00000000</i>
   <i type="logical" name="LESF_SPLINES"> F  </i>
   <i type="int" name="LMAXMP2">    -1</i>
   <i name="SCISSOR">      0.00000000</i>
   <i type="int" name="NOMEGA">     0</i>
   <i type="int" name="NOMEGAR">     0</i>
   <i type="int" name="NBANDSGW">    -1</i>
   <i type="int" name="NBANDSO">    -1</i>
   <i type="int" name="NBANDSV">    -1</i>
   <i type="int" name="NELM">   600</i>
   <i type="int" name="NELMHF">     1</i>
   <i type="int" name="DIM">     3</i>
   <i type="int" name="IESPILON">     4</i>
   <i type="int" name="ANTIRES">     0</i>
   <i name="OMEGAMAX">    -30.00000000</i>
   <i name="OMEGAMIN">    -30.00000000</i>
   <i name="OMEGATL">   -200.00000000</i>
   <i type="int" name="OMEGAGRID">     0</i>
   <i name="CSHIFT">     -0.10000000</i>
   <i type="logical" name="LSELFENERGY"> F  </i>
   <i type="logical" name="LSPECTRAL"> F  </i>
   <i type="logical" name="LSPECTRALGW"> F  </i>
   <i type="logical" name="LSINGLES"> F  </i>
   <i type="logical" name="LFERMIGW"> F  </i>
   <i type="logical" name="ODDONLYGW"> F  </i>
   <i type="logical" name="EVENONLYGW"> F  </i>
   <i type="int" name="NKREDLFX">     1</i>
   <i type="int" name="NKREDLFY">     1</i>
   <i type="int" name="NKREDLFZ">     1</i>
   <i type="int" name="MAXMEM">  2800</i>
   <i type="int" name="TELESCOPE">     0</i>
   <i type="int" name="NTAUPAR">    -1</i>
   <i type="int" name="NOMEGAPAR">    -1</i>
   <i name="DAMP_NEWTON">      0.80000001</i>
   <i name="LAMBDA">      1.00000000</i>
  </separator>
  <separator name="External order field" >
   <i name="OFIELD_KAPPA">      0.00000000</i>
   <v name="OFIELD_K">      0.00000000      0.00000000      0.00000000</v>
   <i name="OFIELD_Q6_NEAR">      0.00000000</i>
   <i name="OFIELD_Q6_FAR">      0.00000000</i>
   <i name="OFIELD_A">      0.00000000</i>
  </separator>
 </parameters>
 <atominfo>
  <atoms>     325 </atoms>
  <types>       5 </types>
  <array name="atoms" >
   <dimension dim="1">ion</dimension>
   <field type="string">element</field>
   <field type="int">atomtype</field>
   <set>
    <rc><c>H </c><c>   1</c></rc>
    <rc><c>H </c><c>   1</c></rc>
    <rc><c>H </c><c>   1</c></rc>
    <rc><c>H </c><c>   1</c></rc>
    <rc><c>H </c><c>   1</c></rc>
    <rc><c>H </c><c>   1</c></rc>
    <rc><c>H </c><c>   1</c></rc>
    <rc><c>H </c><c>   1</c></rc>
    <rc><c>H </c><c>   1</c></rc>
    <rc><c>H </c><c>   1</c></rc>
    <rc><c>H </c><c>   1</c></rc>
    <rc><c>H </c><c>   1</c></rc>
    <rc><c>H </c><c>   1</c></rc>
    <rc><c>H </c><c>   1</c></rc>
    <rc><c>H </c><c>   1</c></rc>
    <rc><c>H </c><c>   1</c></rc>
    <rc><c>H </c><c>   1</c></rc>
    <rc><c>H </c><c>   1</c></rc>
    <rc><c>H </c><c>   1</c></rc>
    <rc><c>H </c><c>   1</c></rc>
    <rc><c>H </c><c>   1</c></rc>
    <rc><c>H </c><c>   1</c></rc>
    <rc><c>H </c><c>   1</c></rc>
    <rc><c>H </c><c>   1</c></rc>
    <rc><c>H </c><c>   1</c></rc>
    <rc><c>H </c><c>   1</c></rc>
    <rc><c>H </c><c>   1</c></rc>
    <rc><c>H </c><c>   1</c></rc>
    <rc><c>H </c><c>   1</c></rc>
    <rc><c>H </c><c>   1</c></rc>
    <rc><c>H </c><c>   1</c></rc>
    <rc><c>H </c><c>   1</c></rc>
    <rc><c>H </c><c>   1</c></rc>
    <rc><c>H </c><c>   1</c></rc>
    <rc><c>H </c><c>   1</c></rc>
    <rc><c>H </c><c>   1</c></rc>
    <rc><c>H </c><c>   1</c></rc>
    <rc><c>H </c><c>   1</c></rc>
    <rc><c>H </c><c>   1</c></rc>
    <rc><c>H </c><c>   1</c></rc>
    <rc><c>H </c><c>   1</c></rc>
    <rc><c>H </c><c>   1</c></rc>
    <rc><c>H </c><c>   1</c></rc>
    <rc><c>H </c><c>   1</c></rc>
    <rc><c>H </c><c>   1</c></rc>
    <rc><c>H </c><c>   1</c></rc>
    <rc><c>H </c><c>   1</c></rc>
    <rc><c>H </c><c>   1</c></rc>
    <rc><c>H </c><c>   1</c></rc>
    <rc><c>H </c><c>   1</c></rc>
    <rc><c>H </c><c>   1</c></rc>
    <rc><c>H </c><c>   1</c></rc>
    <rc><c>H </c><c>   1</c></rc>
    <rc><c>H </c><c>   1</c></rc>
    <rc><c>H </c><c>   1</c></rc>
    <rc><c>H </c><c>   1</c></rc>
    <rc><c>H </c><c>   1</c></rc>
    <rc><c>H </c><c>   1</c></rc>
    <rc><c>H </c><c>   1</c></rc>
    <rc><c>H </c><c>   1</c></rc>
    <rc><c>H </c><c>   1</c></rc>
    <rc><c>H </c><c>   1</c></rc>
    <rc><c>H </c><c>   1</c></rc>
    <rc><c>H </c><c>   1</c></rc>
    <rc><c>H </c><c>   1</c></rc>
    <rc><c>H </c><c>   1</c></rc>
    <rc><c>H </c><c>   1</c></rc>
    <rc><c>H </c><c>   1</c></rc>
    <rc><c>H </c><c>   1</c></rc>
    <rc><c>H </c><c>   1</c></rc>
    <rc><c>H </c><c>   1</c></rc>
    <rc><c>H </c><c>   1</c></rc>
    <rc><c>H </c><c>   1</c></rc>
    <rc><c>H </c><c>   1</c></rc>
    <rc><c>H </c><c>   1</c></rc>
    <rc><c>H </c><c>   1</c></rc>
    <rc><c>H </c><c>   1</c></rc>
    <rc><c>H </c><c>   1</c></rc>
    <rc><c>H </c><c>   1</c></rc>
    <rc><c>H </c><c>   1</c></rc>
    <rc><c>H </c><c>   1</c></rc>
    <rc><c>H </c><c>   1</c></rc>
    <rc><c>H </c><c>   1</c></rc>
    <rc><c>H </c><c>   1</c></rc>
    <rc><c>H </c><c>   1</c></rc>
    <rc><c>H </c><c>   1</c></rc>
    <rc><c>H </c><c>   1</c></rc>
    <rc><c>H </c><c>   1</c></rc>
    <rc><c>H </c><c>   1</c></rc>
    <rc><c>H </c><c>   1</c></rc>
    <rc><c>H </c><c>   1</c></rc>
    <rc><c>H </c><c>   1</c></rc>
    <rc><c>H </c><c>   1</c></rc>
    <rc><c>H </c><c>   1</c></rc>
    <rc><c>H </c><c>   1</c></rc>
    <rc><c>H </c><c>   1</c></rc>
    <rc><c>H </c><c>   1</c></rc>
    <rc><c>H </c><c>   1</c></rc>
    <rc><c>H </c><c>   1</c></rc>
    <rc><c>H </c><c>   1</c></rc>
    <rc><c>H </c><c>   1</c></rc>
    <rc><c>H </c><c>   1</c></rc>
    <rc><c>H </c><c>   1</c></rc>
    <rc><c>H </c><c>   1</c></rc>
    <rc><c>H </c><c>   1</c></rc>
    <rc><c>H </c><c>   1</c></rc>
    <rc><c>H </c><c>   1</c></rc>
    <rc><c>H </c><c>   1</c></rc>
    <rc><c>H </c><c>   1</c></rc>
    <rc><c>H </c><c>   1</c></rc>
    <rc><c>H </c><c>   1</c></rc>
    <rc><c>H </c><c>   1</c></rc>
    <rc><c>H </c><c>   1</c></rc>
    <rc><c>H </c><c>   1</c></rc>
    <rc><c>H </c><c>   1</c></rc>
    <rc><c>H </c><c>   1</c></rc>
    <rc><c>H </c><c>   1</c></rc>
    <rc><c>H </c><c>   1</c></rc>
    <rc><c>H </c><c>   1</c></rc>
    <rc><c>H </c><c>   1</c></rc>
    <rc><c>H </c><c>   1</c></rc>
    <rc><c>H </c><c>   1</c></rc>
    <rc><c>H </c><c>   1</c></rc>
    <rc><c>H </c><c>   1</c></rc>
    <rc><c>H </c><c>   1</c></rc>
    <rc><c>H </c><c>   1</c></rc>
    <rc><c>H </c><c>   1</c></rc>
    <rc><c>H </c><c>   1</c></rc>
    <rc><c>H </c><c>   1</c></rc>
    <rc><c>H </c><c>   1</c></rc>
    <rc><c>H </c><c>   1</c></rc>
    <rc><c>H </c><c>   1</c></rc>
    <rc><c>H </c><c>   1</c></rc>
    <rc><c>H </c><c>   1</c></rc>
    <rc><c>H </c><c>   1</c></rc>
    <rc><c>H </c><c>   1</c></rc>
    <rc><c>H </c><c>   1</c></rc>
    <rc><c>H </c><c>   1</c></rc>
    <rc><c>H </c><c>   1</c></rc>
    <rc><c>H </c><c>   1</c></rc>
    <rc><c>H </c><c>   1</c></rc>
    <rc><c>H </c><c>   1</c></rc>
    <rc><c>H </c><c>   1</c></rc>
    <rc><c>C </c><c>   2</c></rc>
    <rc><c>C </c><c>   2</c></rc>
    <rc><c>C </c><c>   2</c></rc>
    <rc><c>C </c><c>   2</c></rc>
    <rc><c>C </c><c>   2</c></rc>
    <rc><c>C </c><c>   2</c></rc>
    <rc><c>C </c><c>   2</c></rc>
    <rc><c>C </c><c>   2</c></rc>
    <rc><c>C </c><c>   2</c></rc>
    <rc><c>C </c><c>   2</c></rc>
    <rc><c>C </c><c>   2</c></rc>
    <rc><c>C </c><c>   2</c></rc>
    <rc><c>C </c><c>   2</c></rc>
    <rc><c>C </c><c>   2</c></rc>
    <rc><c>C </c><c>   2</c></rc>
    <rc><c>C </c><c>   2</c></rc>
    <rc><c>C </c><c>   2</c></rc>
    <rc><c>C </c><c>   2</c></rc>
    <rc><c>C </c><c>   2</c></rc>
    <rc><c>C </c><c>   2</c></rc>
    <rc><c>C </c><c>   2</c></rc>
    <rc><c>C </c><c>   2</c></rc>
    <rc><c>C </c><c>   2</c></rc>
    <rc><c>C </c><c>   2</c></rc>
    <rc><c>C </c><c>   2</c></rc>
    <rc><c>C </c><c>   2</c></rc>
    <rc><c>C </c><c>   2</c></rc>
    <rc><c>C </c><c>   2</c></rc>
    <rc><c>C </c><c>   2</c></rc>
    <rc><c>C </c><c>   2</c></rc>
    <rc><c>C </c><c>   2</c></rc>
    <rc><c>C </c><c>   2</c></rc>
    <rc><c>C </c><c>   2</c></rc>
    <rc><c>C </c><c>   2</c></rc>
    <rc><c>C </c><c>   2</c></rc>
    <rc><c>C </c><c>   2</c></rc>
    <rc><c>C </c><c>   2</c></rc>
    <rc><c>C </c><c>   2</c></rc>
    <rc><c>C </c><c>   2</c></rc>
    <rc><c>N </c><c>   3</c></rc>
    <rc><c>N </c><c>   3</c></rc>
    <rc><c>N </c><c>   3</c></rc>
    <rc><c>N </c><c>   3</c></rc>
    <rc><c>N </c><c>   3</c></rc>
    <rc><c>N </c><c>   3</c></rc>
    <rc><c>N </c><c>   3</c></rc>
    <rc><c>N </c><c>   3</c></rc>
    <rc><c>N </c><c>   3</c></rc>
    <rc><c>N </c><c>   3</c></rc>
    <rc><c>N </c><c>   3</c></rc>
    <rc><c>N </c><c>   3</c></rc>
    <rc><c>N </c><c>   3</c></rc>
    <rc><c>N </c><c>   3</c></rc>
    <rc><c>N </c><c>   3</c></rc>
    <rc><c>N </c><c>   3</c></rc>
    <rc><c>N </c><c>   3</c></rc>
    <rc><c>N </c><c>   3</c></rc>
    <rc><c>N </c><c>   3</c></rc>
    <rc><c>N </c><c>   3</c></rc>
    <rc><c>N </c><c>   3</c></rc>
    <rc><c>N </c><c>   3</c></rc>
    <rc><c>N </c><c>   3</c></rc>
    <rc><c>N </c><c>   3</c></rc>
    <rc><c>N </c><c>   3</c></rc>
    <rc><c>N </c><c>   3</c></rc>
    <rc><c>N </c><c>   3</c></rc>
    <rc><c>N </c><c>   3</c></rc>
    <rc><c>N </c><c>   3</c></rc>
    <rc><c>N </c><c>   3</c></rc>
    <rc><c>N </c><c>   3</c></rc>
    <rc><c>N </c><c>   3</c></rc>
    <rc><c>N </c><c>   3</c></rc>
    <rc><c>N </c><c>   3</c></rc>
    <rc><c>N </c><c>   3</c></rc>
    <rc><c>N </c><c>   3</c></rc>
    <rc><c>N </c><c>   3</c></rc>
    <rc><c>N </c><c>   3</c></rc>
    <rc><c>N </c><c>   3</c></rc>
    <rc><c>N </c><c>   3</c></rc>
    <rc><c>N </c><c>   3</c></rc>
    <rc><c>N </c><c>   3</c></rc>
    <rc><c>N </c><c>   3</c></rc>
    <rc><c>N </c><c>   3</c></rc>
    <rc><c>N </c><c>   3</c></rc>
    <rc><c>N </c><c>   3</c></rc>
    <rc><c>N </c><c>   3</c></rc>
    <rc><c>I </c><c>   4</c></rc>
    <rc><c>I </c><c>   4</c></rc>
    <rc><c>I </c><c>   4</c></rc>
    <rc><c>I </c><c>   4</c></rc>
    <rc><c>I </c><c>   4</c></rc>
    <rc><c>I </c><c>   4</c></rc>
    <rc><c>I </c><c>   4</c></rc>
    <rc><c>I </c><c>   4</c></rc>
    <rc><c>I </c><c>   4</c></rc>
    <rc><c>I </c><c>   4</c></rc>
    <rc><c>I </c><c>   4</c></rc>
    <rc><c>I </c><c>   4</c></rc>
    <rc><c>I </c><c>   4</c></rc>
    <rc><c>I </c><c>   4</c></rc>
    <rc><c>I </c><c>   4</c></rc>
    <rc><c>I </c><c>   4</c></rc>
    <rc><c>I </c><c>   4</c></rc>
    <rc><c>I </c><c>   4</c></rc>
    <rc><c>I </c><c>   4</c></rc>
    <rc><c>I </c><c>   4</c></rc>
    <rc><c>I </c><c>   4</c></rc>
    <rc><c>I </c><c>   4</c></rc>
    <rc><c>I </c><c>   4</c></rc>
    <rc><c>I </c><c>   4</c></rc>
    <rc><c>I </c><c>   4</c></rc>
    <rc><c>I </c><c>   4</c></rc>
    <rc><c>I </c><c>   4</c></rc>
    <rc><c>I </c><c>   4</c></rc>
    <rc><c>I </c><c>   4</c></rc>
    <rc><c>I </c><c>   4</c></rc>
    <rc><c>I </c><c>   4</c></rc>
    <rc><c>I </c><c>   4</c></rc>
    <rc><c>I </c><c>   4</c></rc>
    <rc><c>I </c><c>   4</c></rc>
    <rc><c>I </c><c>   4</c></rc>
    <rc><c>I </c><c>   4</c></rc>
    <rc><c>I </c><c>   4</c></rc>
    <rc><c>I </c><c>   4</c></rc>
    <rc><c>I </c><c>   4</c></rc>
    <rc><c>I </c><c>   4</c></rc>
    <rc><c>I </c><c>   4</c></rc>
    <rc><c>I </c><c>   4</c></rc>
    <rc><c>I </c><c>   4</c></rc>
    <rc><c>I </c><c>   4</c></rc>
    <rc><c>I </c><c>   4</c></rc>
    <rc><c>I </c><c>   4</c></rc>
    <rc><c>I </c><c>   4</c></rc>
    <rc><c>I </c><c>   4</c></rc>
    <rc><c>I </c><c>   4</c></rc>
    <rc><c>I </c><c>   4</c></rc>
    <rc><c>I </c><c>   4</c></rc>
    <rc><c>I </c><c>   4</c></rc>
    <rc><c>I </c><c>   4</c></rc>
    <rc><c>I </c><c>   4</c></rc>
    <rc><c>I </c><c>   4</c></rc>
    <rc><c>I </c><c>   4</c></rc>
    <rc><c>I </c><c>   4</c></rc>
    <rc><c>I </c><c>   4</c></rc>
    <rc><c>I </c><c>   4</c></rc>
    <rc><c>I </c><c>   4</c></rc>
    <rc><c>I </c><c>   4</c></rc>
    <rc><c>I </c><c>   4</c></rc>
    <rc><c>I </c><c>   4</c></rc>
    <rc><c>I </c><c>   4</c></rc>
    <rc><c>I </c><c>   4</c></rc>
    <rc><c>I </c><c>   4</c></rc>
    <rc><c>I </c><c>   4</c></rc>
    <rc><c>I </c><c>   4</c></rc>
    <rc><c>I </c><c>   4</c></rc>
    <rc><c>I </c><c>   4</c></rc>
    <rc><c>I </c><c>   4</c></rc>
    <rc><c>I </c><c>   4</c></rc>
    <rc><c>Pb</c><c>   5</c></rc>
    <rc><c>Pb</c><c>   5</c></rc>
    <rc><c>Pb</c><c>   5</c></rc>
    <rc><c>Pb</c><c>   5</c></rc>
    <rc><c>Pb</c><c>   5</c></rc>
    <rc><c>Pb</c><c>   5</c></rc>
    <rc><c>Pb</c><c>   5</c></rc>
    <rc><c>Pb</c><c>   5</c></rc>
    <rc><c>Pb</c><c>   5</c></rc>
    <rc><c>Pb</c><c>   5</c></rc>
    <rc><c>Pb</c><c>   5</c></rc>
    <rc><c>Pb</c><c>   5</c></rc>
    <rc><c>Pb</c><c>   5</c></rc>
    <rc><c>Pb</c><c>   5</c></rc>
    <rc><c>Pb</c><c>   5</c></rc>
    <rc><c>Pb</c><c>   5</c></rc>
    <rc><c>Pb</c><c>   5</c></rc>
    <rc><c>Pb</c><c>   5</c></rc>
    <rc><c>Pb</c><c>   5</c></rc>
    <rc><c>Pb</c><c>   5</c></rc>
    <rc><c>Pb</c><c>   5</c></rc>
    <rc><c>Pb</c><c>   5</c></rc>
    <rc><c>Pb</c><c>   5</c></rc>
    <rc><c>Pb</c><c>   5</c></rc>
   </set>
  </array>
  <array name="atomtypes" >
   <dimension dim="1">type</dimension>
   <field type="int">atomspertype</field>
   <field type="string">element</field>
   <field>mass</field>
   <field>valence</field>
   <field type="string">pseudopotential</field>
   <set>
    <rc><c> 143</c><c>H </c><c>      1.00000000</c><c>      1.00000000</c><c>  PAW_PBE H 15Jun2001                   </c></rc>
    <rc><c>  39</c><c>C </c><c>     12.01100000</c><c>      4.00000000</c><c>  PAW_PBE C 08Apr2002                   </c></rc>
    <rc><c>  47</c><c>N </c><c>     14.00100000</c><c>      5.00000000</c><c>  PAW_PBE N 08Apr2002                   </c></rc>
    <rc><c>  72</c><c>I </c><c>    126.90400000</c><c>      7.00000000</c><c>  PAW_PBE I 08Apr2002                   </c></rc>
    <rc><c>  24</c><c>Pb</c><c>    207.20000000</c><c>      4.00000000</c><c>  PAW_PBE Pb 08Apr2002                  </c></rc>
   </set>
  </array>
 </atominfo>
 <structure name="initialpos" >
  <crystal>
   <varray name="basis" >
    <v>      18.06080055       0.00000000       0.00000000 </v>
    <v>      -0.00491865      18.06279945       0.00000000 </v>
    <v>       0.00000000       0.00000000      62.48749924 </v>
   </varray>
   <i name="volume">  20385.21054034 </i>
   <varray name="rec_basis" >
    <v>       0.05536853       0.00001508      -0.00000000 </v>
    <v>       0.00000000       0.05536240       0.00000000 </v>
    <v>       0.00000000      -0.00000000       0.01600320 </v>
   </varray>
  </crystal>
  <varray name="positions" >
   <v>       0.43713099       0.30800427       0.57337042 </v>
   <v>       0.43059863       0.83575215       0.57341468 </v>
   <v>       0.98246355       0.31613886       0.58249132 </v>
   <v>       0.96485854       0.80788283       0.58119852 </v>
   <v>       0.31390565       0.96463142       0.57614636 </v>
   <v>       0.32255668       0.56231898       0.57589204 </v>
   <v>       0.79547430       0.07063085       0.58096038 </v>
   <v>       0.03694263       0.13687478       0.56162118 </v>
   <v>       0.05802855       0.64134917       0.56142894 </v>
   <v>       0.57915594       0.18417819       0.55275686 </v>
   <v>       0.53092865       0.66435825       0.56413645 </v>
   <v>       0.35302661       0.02647977       0.55802488 </v>
   <v>       0.28165147       0.62267272       0.55739463 </v>
   <v>       0.86669113       0.04154430       0.56418651 </v>
   <v>       0.00999874       0.18018797       0.58536323 </v>
   <v>       0.01385957       0.67865111       0.58385897 </v>
   <v>       0.56302281       0.25701536       0.57068317 </v>
   <v>       0.46283992       0.70165401       0.58039752 </v>
   <v>       0.27265778       0.43474236       0.57782144 </v>
   <v>       0.17722139       0.94304324       0.57395837 </v>
   <v>       0.67761039       0.00587812       0.57921515 </v>
   <v>       0.36904241       0.26411766       0.55819362 </v>
   <v>       0.48589874       0.88135311       0.55457851 </v>
   <v>       0.01293856       0.35987397       0.55911842 </v>
   <v>       0.98608535       0.85594659       0.55828977 </v>
   <v>       0.19343275       0.41634312       0.56216536 </v>
   <v>       0.12891022       0.99605505       0.55536334 </v>
   <v>       0.67494705       0.92662863       0.56249764 </v>
   <v>       0.45339729       0.18208188       0.54226099 </v>
   <v>       0.55435782       0.77538706       0.54656971 </v>
   <v>       0.04254423       0.24776349       0.54221563 </v>
   <v>       0.04537003       0.75252186       0.54233150 </v>
   <v>       0.19504549       0.53328953       0.54645256 </v>
   <v>       0.23636607       0.05564531       0.54293006 </v>
   <v>       0.79339326       0.94305330       0.55047863 </v>
   <v>       0.46899139       0.32035122       0.67319953 </v>
   <v>       0.43276708       0.81894443       0.67136774 </v>
   <v>       0.97122835       0.27621356       0.68209895 </v>
   <v>       0.92118934       0.77007297       0.67308506 </v>
   <v>       0.29810702       0.05498447       0.67463921 </v>
   <v>       0.30788532       0.54421607       0.67475331 </v>
   <v>       0.78880453       0.06425879       0.67521427 </v>
   <v>       0.79556541       0.59074774       0.66822356 </v>
   <v>       0.08614134       0.16798620       0.64481354 </v>
   <v>       0.10027028       0.69905626       0.65575158 </v>
   <v>       0.57613199       0.16519549       0.65182886 </v>
   <v>       0.57290965       0.67800550       0.65731464 </v>
   <v>       0.18064297       0.41122470       0.64997186 </v>
   <v>       0.17465437       0.91868046       0.64933831 </v>
   <v>       0.70300295       0.41060148       0.66061144 </v>
   <v>       0.67524549       0.92060281       0.64944056 </v>
   <v>       0.06949774       0.17947930       0.67212320 </v>
   <v>       0.03745721       0.68854625       0.67628914 </v>
   <v>       0.58059633       0.23443099       0.67125779 </v>
   <v>       0.52984337       0.71706239       0.68005820 </v>
   <v>       0.21216974       0.43486754       0.67497143 </v>
   <v>       0.19698872       0.94934679       0.67446748 </v>
   <v>       0.70013337       0.48767923       0.67759335 </v>
   <v>       0.68854425       0.95988135       0.67443995 </v>
   <v>       0.39930351       0.29851998       0.65520954 </v>
   <v>       0.42231817       0.83529836       0.64400356 </v>
   <v>       0.93216854       0.32055684       0.65984310 </v>
   <v>       0.91871336       0.82642808       0.65051103 </v>
   <v>       0.32744912       0.07889253       0.64920346 </v>
   <v>       0.32396027       0.58033339       0.64957847 </v>
   <v>       0.82994945       0.07927693       0.65058563 </v>
   <v>       0.84319091       0.57784002       0.64441270 </v>
   <v>       0.00128939       0.25596965       0.63532013 </v>
   <v>       0.03235672       0.78431890       0.63781861 </v>
   <v>       0.46013509       0.20077545       0.64016484 </v>
   <v>       0.50913822       0.74913863       0.63355824 </v>
   <v>       0.25393504       0.99675622       0.63151688 </v>
   <v>       0.24821880       0.50059836       0.63208156 </v>
   <v>       0.76198450       0.99038724       0.63267696 </v>
   <v>       0.79122075       0.46126523       0.63825974 </v>
   <v>       0.44874502       0.30128397       0.76888902 </v>
   <v>       0.44874501       0.80128391       0.76888902 </v>
   <v>       0.94874497       0.30128397       0.76888902 </v>
   <v>       0.94874501       0.80128391       0.76888902 </v>
   <v>       0.30127600       0.05129450       0.76887296 </v>
   <v>       0.30127601       0.55129450       0.76887296 </v>
   <v>       0.80127594       0.05129450       0.76887296 </v>
   <v>       0.80127598       0.55129450       0.76887296 </v>
   <v>       0.07877100       0.17118050       0.74344197 </v>
   <v>       0.07877101       0.67118045       0.74344197 </v>
   <v>       0.57877100       0.17118050       0.74344197 </v>
   <v>       0.57877099       0.67118045       0.74344197 </v>
   <v>       0.17119950       0.42117448       0.74342103 </v>
   <v>       0.17119950       0.92117451       0.74342103 </v>
   <v>       0.67119951       0.42117448       0.74342103 </v>
   <v>       0.67119950       0.92117451       0.74342103 </v>
   <v>       0.05125600       0.19871499       0.76888902 </v>
   <v>       0.05125600       0.69871493       0.76888902 </v>
   <v>       0.55125603       0.19871499       0.76888902 </v>
   <v>       0.55125602       0.69871493       0.76888902 </v>
   <v>       0.19872349       0.44870397       0.76887205 </v>
   <v>       0.19872349       0.94870397       0.76887205 </v>
   <v>       0.69872352       0.44870397       0.76887205 </v>
   <v>       0.69872351       0.94870397       0.76887205 </v>
   <v>       0.42123152       0.32881747       0.74344197 </v>
   <v>       0.42123151       0.82881744       0.74344197 </v>
   <v>       0.92123147       0.32881747       0.74344197 </v>
   <v>       0.92123151       0.82881744       0.74344197 </v>
   <v>       0.32880050       0.07882500       0.74342103 </v>
   <v>       0.32880049       0.57882496       0.74342103 </v>
   <v>       0.82880048       0.07882500       0.74342103 </v>
   <v>       0.82880052       0.57882496       0.74342103 </v>
   <v>       0.00000350       0.25000148       0.72582199 </v>
   <v>       0.00000350       0.75000145       0.72582199 </v>
   <v>       0.50000351       0.25000148       0.72582199 </v>
   <v>       0.50000350       0.75000145       0.72582199 </v>
   <v>       0.25000050       0.00000000       0.72580398 </v>
   <v>       0.25000052       0.50000000       0.72580398 </v>
   <v>       0.75000050       0.00000000       0.72580398 </v>
   <v>       0.75000049       0.50000000       0.72580398 </v>
   <v>       0.77512782       0.55477244       0.52157313 </v>
   <v>       0.72119830       0.47335802       0.52689024 </v>
   <v>       0.87277926       0.50044271       0.54306779 </v>
   <v>       0.85534379       0.47676748       0.57006635 </v>
   <v>       0.74231436       0.63807750       0.56022735 </v>
   <v>       0.80255838       0.59574404       0.57938828 </v>
   <v>       0.66644863       0.54568627       0.57114695 </v>
   <v>       0.67766866       0.45327979       0.56097127 </v>
   <v>       0.61370941       0.54959647       0.53848368 </v>
   <v>       0.66717306       0.63222435       0.53830457 </v>
   <v>       0.60674499       0.64695095       0.50654760 </v>
   <v>       0.68698325       0.60292543       0.49699021 </v>
   <v>       0.81975256       0.38662166       0.53014839 </v>
   <v>       0.76583843       0.37470018       0.55333821 </v>
   <v>       0.86111736       0.36191487       0.55482362 </v>
   <v>       0.86388497       0.69081713       0.55751977 </v>
   <v>       0.84831120       0.64352971       0.53363670 </v>
   <v>       0.90774781       0.60546679       0.55363051 </v>
   <v>       0.75698899       0.52058002       0.60087232 </v>
   <v>       0.77373621       0.42923624       0.59028768 </v>
   <v>       0.68477115       0.45266786       0.60014280 </v>
   <v>       0.53482730       0.53273526       0.50582380 </v>
   <v>       0.57590774       0.55239797       0.48050831 </v>
   <v>       0.69548660       0.48123971       0.47015571 </v>
   <v>       0.56065236       0.41855421       0.52361852 </v>
   <v>       0.76314172       0.36100754       0.47249825 </v>
   <v>       0.62664821       0.29959998       0.52638141 </v>
   <v>       0.72813649       0.27042088       0.50117162 </v>
   <v>       0.02204477       0.24750800       0.55865062 </v>
   <v>       0.02232969       0.74888388       0.55808465 </v>
   <v>       0.47114479       0.22269247       0.55387787 </v>
   <v>       0.50977322       0.77252712       0.55834721 </v>
   <v>       0.23704256       0.51952829       0.55860813 </v>
   <v>       0.24069423       0.01390437       0.55571338 </v>
   <v>       0.77057407       0.98174015       0.56239691 </v>
   <v>       0.00861766       0.24468868       0.65194992 </v>
   <v>       0.00946040       0.76336978       0.65259842 </v>
   <v>       0.48701061       0.23175087       0.65281374 </v>
   <v>       0.49771513       0.75673918       0.65020469 </v>
   <v>       0.25161288       0.49516642       0.64919265 </v>
   <v>       0.25157409       0.99938656       0.64875134 </v>
   <v>       0.77271124       0.49360203       0.65201139 </v>
   <v>       0.75371411       0.00032551       0.64954856 </v>
   <v>       0.49998898       0.24999498       0.74327702 </v>
   <v>       0.49998903       0.74999496       0.74327702 </v>
   <v>       0.99998898       0.24999498       0.74327702 </v>
   <v>       0.99998903       0.74999496       0.74327702 </v>
   <v>       0.25000050       0.00000100       0.74325596 </v>
   <v>       0.25000052       0.50000100       0.74325596 </v>
   <v>       0.75000050       0.00000100       0.74325596 </v>
   <v>       0.75000049       0.50000100       0.74325596 </v>
   <v>       0.62391904       0.45871288       0.49722915 </v>
   <v>       0.68106323       0.44082386       0.48297258 </v>
   <v>       0.60492655       0.40596085       0.51251682 </v>
   <v>       0.71775803       0.37384110       0.48397488 </v>
   <v>       0.64128022       0.33912609       0.51392414 </v>
   <v>       0.69845043       0.32272358       0.49972428 </v>
   <v>       0.73164232       0.53115381       0.53174588 </v>
   <v>       0.83197079       0.47528091       0.55385272 </v>
   <v>       0.79047045       0.60161631       0.56221102 </v>
   <v>       0.70472817       0.49869701       0.56965282 </v>
   <v>       0.65997353       0.57745397       0.53014473 </v>
   <v>       0.63739001       0.59385547       0.50694521 </v>
   <v>       0.81769779       0.39580954       0.54741583 </v>
   <v>       0.85600251       0.63538619       0.55092721 </v>
   <v>       0.73301107       0.47464575       0.59151846 </v>
   <v>       0.58824432       0.53409845       0.49696042 </v>
   <v>       0.02294037       0.18487989       0.56919154 </v>
   <v>       0.03320704       0.68693945       0.56842601 </v>
   <v>       0.54190264       0.22166669       0.55904987 </v>
   <v>       0.50112310       0.70952679       0.56847265 </v>
   <v>       0.42395941       0.27019784       0.56136735 </v>
   <v>       0.47143904       0.83219824       0.56161276 </v>
   <v>       0.99953699       0.31088636       0.56663848 </v>
   <v>       0.98481657       0.80549680       0.56583876 </v>
   <v>       0.23522128       0.45181412       0.56670099 </v>
   <v>       0.17954235       0.97992103       0.56179291 </v>
   <v>       0.70161812       0.97412968       0.56777775 </v>
   <v>       0.30517313       0.00242699       0.56428974 </v>
   <v>       0.28370602       0.57006619       0.56450011 </v>
   <v>       0.81404367       0.03342082       0.57039210 </v>
   <v>       0.05839803       0.19321855       0.65688676 </v>
   <v>       0.05169983       0.71282279       0.66242711 </v>
   <v>       0.55300645       0.20872786       0.65910668 </v>
   <v>       0.53539214       0.71518681       0.66361387 </v>
   <v>       0.21295820       0.44418464       0.65865164 </v>
   <v>       0.20494285       0.95343839       0.65822015 </v>
   <v>       0.72233117       0.46334752       0.66433130 </v>
   <v>       0.70282490       0.95768529       0.65846868 </v>
   <v>       0.45077836       0.28687040       0.66072407 </v>
   <v>       0.44807963       0.80614927       0.65574908 </v>
   <v>       0.96868955       0.28194800       0.66560780 </v>
   <v>       0.94535952       0.78711327       0.65932700 </v>
   <v>       0.29419825       0.04640317       0.65814177 </v>
   <v>       0.29700515       0.54295040       0.65854956 </v>
   <v>       0.79236107       0.05032070       0.65910302 </v>
   <v>       0.80322263       0.55767510       0.65534098 </v>
   <v>       0.04586250       0.20411950       0.75272599 </v>
   <v>       0.04586250       0.70411946       0.75272599 </v>
   <v>       0.54586251       0.20411950       0.75272599 </v>
   <v>       0.54586250       0.70411946       0.75272599 </v>
   <v>       0.20411900       0.45410100       0.75270499 </v>
   <v>       0.20411899       0.95410095       0.75270499 </v>
   <v>       0.70411898       0.45410100       0.75270499 </v>
   <v>       0.70411896       0.95410095       0.75270499 </v>
   <v>       0.45414002       0.29588849       0.75272697 </v>
   <v>       0.45414001       0.79588852       0.75272697 </v>
   <v>       0.95414002       0.29588849       0.75272697 </v>
[...]
   <v>       0.57915594       0.18417819       0.55275686 </v>
   <v>       0.53092865       0.66435825       0.56413645 </v>
   <v>       0.35302661       0.02647977       0.55802488 </v>
   <v>       0.28165147       0.62267272       0.55739463 </v>
   <v>       0.86669113       0.04154430       0.56418651 </v>
   <v>       0.00999874       0.18018797       0.58536323 </v>
   <v>       0.01385957       0.67865111       0.58385897 </v>
   <v>       0.56302281       0.25701536       0.57068317 </v>
   <v>       0.46283992       0.70165401       0.58039752 </v>
   <v>       0.27265778       0.43474236       0.57782144 </v>
   <v>       0.17722139       0.94304324       0.57395837 </v>
   <v>       0.67761039       0.00587812       0.57921515 </v>
   <v>       0.36904241       0.26411766       0.55819362 </v>
   <v>       0.48589874       0.88135311       0.55457851 </v>
   <v>       0.01293856       0.35987397       0.55911842 </v>
   <v>       0.98608535       0.85594659       0.55828977 </v>
   <v>       0.19343275       0.41634312       0.56216536 </v>
   <v>       0.12891022       0.99605505       0.55536334 </v>
   <v>       0.67494705       0.92662863       0.56249764 </v>
   <v>       0.45339729       0.18208188       0.54226099 </v>
   <v>       0.55435782       0.77538706       0.54656971 </v>
   <v>       0.04254423       0.24776349       0.54221563 </v>
   <v>       0.04537003       0.75252186       0.54233150 </v>
   <v>       0.19504549       0.53328953       0.54645256 </v>
   <v>       0.23636607       0.05564531       0.54293006 </v>
   <v>       0.79339326       0.94305330       0.55047863 </v>
   <v>       0.46899139       0.32035122       0.67319953 </v>
   <v>       0.43276708       0.81894443       0.67136774 </v>
   <v>       0.97122835       0.27621356       0.68209895 </v>
   <v>       0.92118934       0.77007297       0.67308506 </v>
   <v>       0.29810702       0.05498447       0.67463921 </v>
   <v>       0.30788532       0.54421607       0.67475331 </v>
   <v>       0.78880453       0.06425879       0.67521427 </v>
   <v>       0.79556541       0.59074774       0.66822356 </v>
   <v>       0.08614134       0.16798620       0.64481354 </v>
   <v>       0.10027028       0.69905626       0.65575158 </v>
   <v>       0.57613199       0.16519549       0.65182886 </v>
   <v>       0.57290965       0.67800550       0.65731464 </v>
   <v>       0.18064297       0.41122470       0.64997186 </v>
   <v>       0.17465437       0.91868046       0.64933831 </v>
   <v>       0.70300295       0.41060148       0.66061144 </v>
   <v>       0.67524549       0.92060281       0.64944056 </v>
   <v>       0.06949774       0.17947930       0.67212320 </v>
   <v>       0.03745721       0.68854625       0.67628914 </v>
   <v>       0.58059633       0.23443099       0.67125779 </v>
   <v>       0.52984337       0.71706239       0.68005820 </v>
   <v>       0.21216974       0.43486754       0.67497143 </v>
   <v>       0.19698872       0.94934679       0.67446748 </v>
   <v>       0.70013337       0.48767923       0.67759335 </v>
   <v>       0.68854425       0.95988135       0.67443995 </v>
   <v>       0.39930351       0.29851998       0.65520954 </v>
   <v>       0.42231817       0.83529836       0.64400356 </v>
   <v>       0.93216854       0.32055684       0.65984310 </v>
   <v>       0.91871336       0.82642808       0.65051103 </v>
   <v>       0.32744912       0.07889253       0.64920346 </v>
   <v>       0.32396027       0.58033339       0.64957847 </v>
   <v>       0.82994945       0.07927693       0.65058563 </v>
   <v>       0.84319091       0.57784002       0.64441270 </v>
   <v>       0.00128939       0.25596965       0.63532013 </v>
   <v>       0.03235672       0.78431890       0.63781861 </v>
   <v>       0.46013509       0.20077545       0.64016484 </v>
   <v>       0.50913822       0.74913863       0.63355824 </v>
   <v>       0.25393504       0.99675622       0.63151688 </v>
   <v>       0.24821880       0.50059836       0.63208156 </v>
   <v>       0.76198450       0.99038724       0.63267696 </v>
   <v>       0.79122075       0.46126523       0.63825974 </v>
   <v>       0.44874502       0.30128397       0.76888902 </v>
   <v>       0.44874501       0.80128391       0.76888902 </v>
   <v>       0.94874497       0.30128397       0.76888902 </v>
   <v>       0.94874501       0.80128391       0.76888902 </v>
   <v>       0.30127600       0.05129450       0.76887296 </v>
   <v>       0.30127601       0.55129450       0.76887296 </v>
   <v>       0.80127594       0.05129450       0.76887296 </v>
   <v>       0.80127598       0.55129450       0.76887296 </v>
   <v>       0.07877100       0.17118050       0.74344197 </v>
   <v>       0.07877101       0.67118045       0.74344197 </v>
   <v>       0.57877100       0.17118050       0.74344197 </v>
   <v>       0.57877099       0.67118045       0.74344197 </v>
   <v>       0.17119950       0.42117448       0.74342103 </v>
   <v>       0.17119950       0.92117451       0.74342103 </v>
   <v>       0.67119951       0.42117448       0.74342103 </v>
   <v>       0.67119950       0.92117451       0.74342103 </v>
   <v>       0.05125600       0.19871499       0.76888902 </v>
   <v>       0.05125600       0.69871493       0.76888902 </v>
   <v>       0.55125603       0.19871499       0.76888902 </v>
   <v>       0.55125602       0.69871493       0.76888902 </v>
   <v>       0.19872349       0.44870397       0.76887205 </v>
   <v>       0.19872349       0.94870397       0.76887205 </v>
   <v>       0.69872352       0.44870397       0.76887205 </v>
   <v>       0.69872351       0.94870397       0.76887205 </v>
   <v>       0.42123152       0.32881747       0.74344197 </v>
   <v>       0.42123151       0.82881744       0.74344197 </v>
   <v>       0.92123147       0.32881747       0.74344197 </v>
   <v>       0.92123151       0.82881744       0.74344197 </v>
   <v>       0.32880050       0.07882500       0.74342103 </v>
   <v>       0.32880049       0.57882496       0.74342103 </v>
   <v>       0.82880048       0.07882500       0.74342103 </v>
   <v>       0.82880052       0.57882496       0.74342103 </v>
   <v>       0.00000350       0.25000148       0.72582199 </v>
   <v>       0.00000350       0.75000145       0.72582199 </v>
   <v>       0.50000351       0.25000148       0.72582199 </v>
   <v>       0.50000350       0.75000145       0.72582199 </v>
   <v>       0.25000050       0.00000000       0.72580398 </v>
   <v>       0.25000052       0.50000000       0.72580398 </v>
   <v>       0.75000050       0.00000000       0.72580398 </v>
   <v>       0.75000049       0.50000000       0.72580398 </v>
   <v>       0.77512782       0.55477244       0.52157313 </v>
   <v>       0.72119830       0.47335802       0.52689024 </v>
   <v>       0.87277926       0.50044271       0.54306779 </v>
   <v>       0.85534379       0.47676748       0.57006635 </v>
   <v>       0.74231436       0.63807750       0.56022735 </v>
   <v>       0.80255838       0.59574404       0.57938828 </v>
   <v>       0.66644863       0.54568627       0.57114695 </v>
   <v>       0.67766866       0.45327979       0.56097127 </v>
   <v>       0.61370941       0.54959647       0.53848368 </v>
   <v>       0.66717306       0.63222435       0.53830457 </v>
   <v>       0.60674499       0.64695095       0.50654760 </v>
   <v>       0.68698325       0.60292543       0.49699021 </v>
   <v>       0.81975256       0.38662166       0.53014839 </v>
   <v>       0.76583843       0.37470018       0.55333821 </v>
   <v>       0.86111736       0.36191487       0.55482362 </v>
   <v>       0.86388497       0.69081713       0.55751977 </v>
   <v>       0.84831120       0.64352971       0.53363670 </v>
   <v>       0.90774781       0.60546679       0.55363051 </v>
   <v>       0.75698899       0.52058002       0.60087232 </v>
   <v>       0.77373621       0.42923624       0.59028768 </v>
   <v>       0.68477115       0.45266786       0.60014280 </v>
   <v>       0.53482730       0.53273526       0.50582380 </v>
   <v>       0.57590774       0.55239797       0.48050831 </v>
   <v>       0.69548660       0.48123971       0.47015571 </v>
   <v>       0.56065236       0.41855421       0.52361852 </v>
   <v>       0.76314172       0.36100754       0.47249825 </v>
   <v>       0.62664821       0.29959998       0.52638141 </v>
   <v>       0.72813649       0.27042088       0.50117162 </v>
   <v>       0.02204477       0.24750800       0.55865062 </v>
   <v>       0.02232969       0.74888388       0.55808465 </v>
   <v>       0.47114479       0.22269247       0.55387787 </v>
   <v>       0.50977322       0.77252712       0.55834721 </v>
   <v>       0.23704256       0.51952829       0.55860813 </v>
   <v>       0.24069423       0.01390437       0.55571338 </v>
   <v>       0.77057407       0.98174015       0.56239691 </v>
   <v>       0.00861766       0.24468868       0.65194992 </v>
   <v>       0.00946040       0.76336978       0.65259842 </v>
   <v>       0.48701061       0.23175087       0.65281374 </v>
   <v>       0.49771513       0.75673918       0.65020469 </v>
   <v>       0.25161288       0.49516642       0.64919265 </v>
   <v>       0.25157409       0.99938656       0.64875134 </v>
   <v>       0.77271124       0.49360203       0.65201139 </v>
   <v>       0.75371411       0.00032551       0.64954856 </v>
   <v>       0.49998898       0.24999498       0.74327702 </v>
   <v>       0.49998903       0.74999496       0.74327702 </v>
   <v>       0.99998898       0.24999498       0.74327702 </v>
   <v>       0.99998903       0.74999496       0.74327702 </v>
   <v>       0.25000050       0.00000100       0.74325596 </v>
   <v>       0.25000052       0.50000100       0.74325596 </v>
   <v>       0.75000050       0.00000100       0.74325596 </v>
   <v>       0.75000049       0.50000100       0.74325596 </v>
   <v>       0.62391904       0.45871288       0.49722915 </v>
   <v>       0.68106323       0.44082386       0.48297258 </v>
   <v>       0.60492655       0.40596085       0.51251682 </v>
   <v>       0.71775803       0.37384110       0.48397488 </v>
   <v>       0.64128022       0.33912609       0.51392414 </v>
   <v>       0.69845043       0.32272358       0.49972428 </v>
   <v>       0.73164232       0.53115381       0.53174588 </v>
   <v>       0.83197079       0.47528091       0.55385272 </v>
   <v>       0.79047045       0.60161631       0.56221102 </v>
   <v>       0.70472817       0.49869701       0.56965282 </v>
   <v>       0.65997353       0.57745397       0.53014473 </v>
   <v>       0.63739001       0.59385547       0.50694521 </v>
   <v>       0.81769779       0.39580954       0.54741583 </v>
   <v>       0.85600251       0.63538619       0.55092721 </v>
   <v>       0.73301107       0.47464575       0.59151846 </v>
   <v>       0.58824432       0.53409845       0.49696042 </v>
   <v>       0.02294037       0.18487989       0.56919154 </v>
   <v>       0.03320704       0.68693945       0.56842601 </v>
   <v>       0.54190264       0.22166669       0.55904987 </v>
   <v>       0.50112310       0.70952679       0.56847265 </v>
   <v>       0.42395941       0.27019784       0.56136735 </v>
   <v>       0.47143904       0.83219824       0.56161276 </v>
   <v>       0.99953699       0.31088636       0.56663848 </v>
   <v>       0.98481657       0.80549680       0.56583876 </v>
   <v>       0.23522128       0.45181412       0.56670099 </v>
   <v>       0.17954235       0.97992103       0.56179291 </v>
   <v>       0.70161812       0.97412968       0.56777775 </v>
   <v>       0.30517313       0.00242699       0.56428974 </v>
   <v>       0.28370602       0.57006619       0.56450011 </v>
   <v>       0.81404367       0.03342082       0.57039210 </v>
   <v>       0.05839803       0.19321855       0.65688676 </v>
   <v>       0.05169983       0.71282279       0.66242711 </v>
   <v>       0.55300645       0.20872786       0.65910668 </v>
   <v>       0.53539214       0.71518681       0.66361387 </v>
   <v>       0.21295820       0.44418464       0.65865164 </v>
   <v>       0.20494285       0.95343839       0.65822015 </v>
   <v>       0.72233117       0.46334752       0.66433130 </v>
   <v>       0.70282490       0.95768529       0.65846868 </v>
   <v>       0.45077836       0.28687040       0.66072407 </v>
   <v>       0.44807963       0.80614927       0.65574908 </v>
   <v>       0.96868955       0.28194800       0.66560780 </v>
   <v>       0.94535952       0.78711327       0.65932700 </v>
   <v>       0.29419825       0.04640317       0.65814177 </v>
   <v>       0.29700515       0.54295040       0.65854956 </v>
   <v>       0.79236107       0.05032070       0.65910302 </v>
   <v>       0.80322263       0.55767510       0.65534098 </v>
   <v>       0.04586250       0.20411950       0.75272599 </v>
   <v>       0.04586250       0.70411946       0.75272599 </v>
   <v>       0.54586251       0.20411950       0.75272599 </v>
   <v>       0.54586250       0.70411946       0.75272599 </v>
   <v>       0.20411900       0.45410100       0.75270499 </v>
   <v>       0.20411899       0.95410095       0.75270499 </v>
   <v>       0.70411898       0.45410100       0.75270499 </v>
   <v>       0.70411896       0.95410095       0.75270499 </v>
   <v>       0.45414002       0.29588849       0.75272697 </v>
   <v>       0.45414001       0.79588852       0.75272697 </v>
   <v>       0.95414002       0.29588849       0.75272697 </v>
   <v>       0.95414006       0.79588852       0.75272697 </v>
   <v>       0.29588249       0.04590050       0.75270499 </v>
   <v>       0.29588248       0.54590053       0.75270499 </v>
   <v>       0.79588244       0.04590050       0.75270499 </v>
   <v>       0.79588248       0.54590053       0.75270499 </v>
   <v>       0.76551045       0.52667799       0.55411083 </v>
   <v>       0.50439431       0.02191623       0.55283012 </v>
   <v>       0.47158126       0.50767742       0.55647123 </v>
   <v>       0.98829661       0.99728015       0.54994911 </v>
   <v>       0.03777861       0.49413259       0.55312919 </v>
   <v>       0.23036031       0.23348406       0.55313932 </v>
   <v>       0.25872815       0.76039352       0.55304690 </v>
   <v>       0.74176571       0.20717354       0.55521157 </v>
   <v>       0.71233557       0.78929662       0.54818789 </v>
   <v>       0.00166910       0.99092056       0.65470248 </v>
   <v>       0.01202175       0.49644212       0.65580488 </v>
   <v>       0.49864851       0.00860706       0.65474491 </v>
   <v>       0.50515112       0.49336671       0.65552729 </v>
   <v>       0.25486231       0.24518804       0.65502219 </v>
   <v>       0.24688297       0.75283146       0.65467959 </v>
   <v>       0.74451184       0.26584060       0.65481823 </v>
   <v>       0.75163538       0.75279413       0.65379575 </v>
   <v>       0.13907422       0.10406558       0.61002729 </v>
   <v>       0.14708081       0.60629059       0.60988840 </v>
   <v>       0.64902556       0.10223642       0.61155371 </v>
   <v>       0.61730738       0.63664853       0.61443423 </v>
   <v>       0.35685684       0.39027956       0.60924539 </v>
   <v>       0.36334235       0.89020897       0.60796004 </v>
   <v>       0.89324577       0.36244543       0.61409084 </v>
   <v>       0.86758745       0.87868899       0.60963030 </v>
   <v>       0.11868215       0.35762215       0.61110239 </v>
   <v>       0.12010586       0.86852897       0.60778642 </v>
   <v>       0.57880302       0.32888111       0.60487629 </v>
   <v>       0.61501104       0.86768663       0.61170273 </v>
   <v>       0.38383703       0.13184521       0.60637513 </v>
   <v>       0.38837589       0.63956011       0.61131532 </v>
   <v>       0.88965587       0.13907909       0.61310548 </v>
   <v>       0.91191853       0.64572573       0.61493867 </v>
   <v>       0.00000000       0.00000000       0.75492797 </v>
   <v>       0.00000000       0.50000000       0.75492797 </v>
   <v>       0.50000000       0.00000000       0.75492797 </v>
   <v>       0.49999999       0.50000000       0.75492797 </v>
   <v>       0.25000050       0.25000000       0.75493902 </v>
   <v>       0.25000051       0.74999997       0.75493902 </v>
   <v>       0.75000047       0.25000000       0.75493902 </v>
   <v>       0.75000046       0.74999997       0.75493902 </v>
   <v>       0.13579050       0.11421000       0.70478299 </v>
   <v>       0.13579050       0.61420998       0.70478299 </v>
   <v>       0.63579045       0.11421000       0.70478299 </v>
   <v>       0.63579049       0.61420998       0.70478299 </v>
   <v>       0.36420952       0.38578999       0.70478299 </v>
   <v>       0.36420950       0.88578996       0.70478299 </v>
   <v>       0.86420954       0.38578999       0.70478299 </v>
   <v>       0.86420953       0.88578996       0.70478299 </v>
   <v>       0.11421799       0.36421899       0.70478098 </v>
   <v>       0.11421799       0.86421899       0.70478098 </v>
   <v>       0.61421800       0.36421899       0.70478098 </v>
   <v>       0.61421799       0.86421899       0.70478098 </v>
   <v>       0.38578201       0.13578149       0.70478202 </v>
   <v>       0.38578200       0.63578149       0.70478202 </v>
   <v>       0.88578199       0.13578149       0.70478202 </v>
   <v>       0.88578203       0.63578149       0.70478202 </v>
   <v>       0.13466700       0.11533200       0.80125603 </v>
   <v>       0.13466699       0.61533199       0.80125603 </v>
   <v>       0.63466699       0.11533200       0.80125603 </v>
   <v>       0.63466698       0.61533199       0.80125603 </v>
   <v>       0.36533300       0.38466799       0.80125603 </v>
   <v>       0.36533299       0.88466796       0.80125603 </v>
   <v>       0.86533295       0.38466799       0.80125603 </v>
   <v>       0.86533294       0.88466796       0.80125603 </v>
   <v>       0.11532850       0.36533700       0.80126500 </v>
   <v>       0.11532850       0.86533698       0.80126500 </v>
   <v>       0.61532850       0.36533700       0.80126500 </v>
   <v>       0.61532849       0.86533698       0.80126500 </v>
   <v>       0.38467151       0.13466300       0.80126500 </v>
   <v>       0.38467150       0.63466297       0.80126500 </v>
   <v>       0.88467149       0.13466300       0.80126500 </v>
   <v>       0.88467153       0.63466297       0.80126500 </v>
   <v>       0.99279865       0.99955744       0.60580458 </v>
   <v>       0.00773799       0.49854674       0.60674923 </v>
   <v>       0.50300358       0.00933447       0.60419476 </v>
   <v>       0.49678620       0.49357378       0.60547614 </v>
   <v>       0.24505427       0.24192657       0.60356066 </v>
   <v>       0.24811247       0.74585266       0.60301697 </v>
   <v>       0.74107145       0.24711751       0.60336555 </v>
   <v>       0.73573233       0.75414744       0.60253409 </v>
   <v>       0.00000050       0.00000050       0.70482896 </v>
   <v>       0.00000050       0.50000048       0.70482896 </v>
   <v>       0.50000048       0.00000050       0.70482896 </v>
   <v>       0.50000046       0.50000048       0.70482896 </v>
   <v>       0.24999999       0.24999947       0.70482499 </v>
   <v>       0.25000001       0.74999950       0.70482499 </v>
   <v>       0.74999999       0.24999947       0.70482499 </v>
   <v>       0.74999998       0.74999950       0.70482499 </v>
   <v>       0.00000000       0.00000000       0.80731797 </v>
   <v>       0.00000000       0.50000000       0.80731797 </v>
   <v>       0.50000000       0.00000000       0.80731797 </v>
   <v>       0.49999999       0.50000000       0.80731797 </v>
   <v>       0.24999999       0.25000000       0.80731797 </v>
   <v>       0.25000001       0.74999997       0.80731797 </v>
   <v>       0.74999999       0.25000000       0.80731797 </v>
   <v>       0.74999998       0.74999997       0.80731797 </v>
  </varray>
 </structure>
</modeling>
