<?xml version="1.0" encoding="ISO-8859-1"?>
<modeling>
 <generator>
  <i name="program" type="string">vasp </i>
  <i name="version" type="string">6.2.1  </i>
  <i name="subversion" type="string">16May21 (build Nov 15 2021 14:57:28) complex                          parallel </i>
  <i name="platform" type="string">LinuxPGI </i>
  <i name="date" type="string">2023 07 30 </i>
  <i name="time" type="string">22:00:27 </i>
 </generator>
 <incar>
  <i type="string" name="SYSTEM">PSC</i>
  <i type="int" name="ISTART">     1</i>
  <i type="string" name="PREC">Normal</i>
  <i name="BMIX">      0.01000000</i>
  <i name="AMIN">      0.01000000</i>
  <i type="int" name="ICHARG">     1</i>
  <i type="int" name="NELM">   600</i>
  <i type="int" name="ISYM">     0</i>
  <i name="ENCUT">    500.00000000</i>
  <i type="string" name="LREAL">Auto</i>
  <i type="int" name="ISMEAR">     0</i>
  <i name="SIGMA">      0.05000000</i>
  <i type="logical" name="LWAVE"> F  </i>
  <i type="logical" name="LVTOT"> T  </i>
  <i type="logical" name="GGA_COMPAT"> F  </i>
  <i type="logical" name="LDIPOL"> T  </i>
  <i type="int" name="IDIPOL">     3</i>
  <i type="int" name="IVDW">    12</i>
 </incar>
 <primitive_cell>
  <structure name="primitive_cell" >
   <crystal>
    <varray name="basis" >
     <v>      18.06080055       0.00000000       0.00000000 </v>
     <v>      -0.00491865      18.06279945       0.00000000 </v>
     <v>       0.00000000       0.00000000      62.48749924 </v>
    </varray>
    <i name="volume">  20385.21054034 </i>
    <varray name="rec_basis" >
     <v>       0.05536853       0.00001508      -0.00000000 </v>
     <v>       0.00000000       0.05536240       0.00000000 </v>
     <v>       0.00000000      -0.00000000       0.01600320 </v>
    </varray>
   </crystal>
   <varray name="positions" >
    <v>       0.46773389       0.33902672       0.56416484 </v>
    <v>       0.43943243       0.82481163       0.57469038 </v>
    <v>       0.92356460       0.27399046       0.57796820 </v>
    <v>       0.93656902       0.81829623       0.57273980 </v>
    <v>       0.32012840       0.07885452       0.57024455 </v>
    <v>       0.34807720       0.54260146       0.55714018 </v>
    <v>       0.80528466       0.09211562       0.56654483 </v>
    <v>       0.10821282       0.25042148       0.55673342 </v>
    <v>       0.07500920       0.67422513       0.57650483 </v>
    <v>       0.54841785       0.15436757       0.56091267 </v>
    <v>       0.50417800       0.64399174       0.55739701 </v>
    <v>       0.37450769       0.01558838       0.55636775 </v>
    <v>       0.29666982       0.62399921       0.55197991 </v>
    <v>       0.87673112       0.03332837       0.55717119 </v>
    <v>       0.05882893       0.27791708       0.57919647 </v>
    <v>       0.98685209       0.69707160       0.58559460 </v>
    <v>       0.57192826       0.24570596       0.56753850 </v>
    <v>       0.44877069       0.68717113       0.57613629 </v>
    <v>       0.27177736       0.43707638       0.57236900 </v>
    <v>       0.18641086       0.05841322       0.57198800 </v>
    <v>       0.68398025       0.03168752       0.57478953 </v>
    <v>       0.38285735       0.30067479       0.55577254 </v>
    <v>       0.49718710       0.86958946       0.55649583 </v>
    <v>       0.88110360       0.23818889       0.55518996 </v>
    <v>       0.98972874       0.86739324       0.55432401 </v>
    <v>       0.17553516       0.44710520       0.56961601 </v>
    <v>       0.15039057       0.98088474       0.55920059 </v>
    <v>       0.67935508       0.93666958       0.56813451 </v>
    <v>       0.42882320       0.18411425       0.55193266 </v>
    <v>       0.54474014       0.75814587       0.54276444 </v>
    <v>       0.99752641       0.22118183       0.53782296 </v>
    <v>       0.08378717       0.77782003       0.55418445 </v>
    <v>       0.18281159       0.56537850       0.55661066 </v>
    <v>       0.26910106       0.94108788       0.54786269 </v>
    <v>       0.79869142       0.93011483       0.55655718 </v>
    <v>       0.44595794       0.30108679       0.67241599 </v>
    <v>       0.44988211       0.80800474       0.67350794 </v>
    <v>       0.94313162       0.28128282       0.67446712 </v>
    <v>       0.92181988       0.73297984       0.66931649 </v>
    <v>       0.30153184       0.05288341       0.67257166 </v>
    <v>       0.29462561       0.55833708       0.67432335 </v>
    <v>       0.80448924       0.05418543       0.67491618 </v>
    <v>       0.84265577       0.47015314       0.66278766 </v>
    <v>       0.08869282       0.17058954       0.64866191 </v>
    <v>       0.11357760       0.71389627       0.65276020 </v>
    <v>       0.57978316       0.16989777       0.64973439 </v>
    <v>       0.56984775       0.66858000       0.64830209 </v>
    <v>       0.18521979       0.41144431       0.64831253 </v>
    <v>       0.16868994       0.92472271       0.64754291 </v>
    <v>       0.64212776       0.47402295       0.65586989 </v>
    <v>       0.67467225       0.92078177       0.65097469 </v>
    <v>       0.05242522       0.18627874       0.67399180 </v>
    <v>       0.04505585       0.66926442       0.66751071 </v>
    <v>       0.54856832       0.20102391       0.67448372 </v>
    <v>       0.54447477       0.69832253       0.67370360 </v>
    <v>       0.20231088       0.44701919       0.67376788 </v>
    <v>       0.19714600       0.95139663       0.67297903 </v>
    <v>       0.71331471       0.41590226       0.66415670 </v>
    <v>       0.70219126       0.95148309       0.67608951 </v>
    <v>       0.41938125       0.32395984       0.64660009 </v>
    <v>       0.42417083       0.83652237       0.64787885 </v>
    <v>       0.92305705       0.31837366       0.64954367 </v>
    <v>       0.91397182       0.81505181       0.65522883 </v>
    <v>       0.32910460       0.07883474       0.64696284 </v>
    <v>       0.32470174       0.58575693       0.64903600 </v>
    <v>       0.82998759       0.07953583       0.64892252 </v>
    <v>       0.84990073       0.55737500       0.65113237 </v>
    <v>       0.01202777       0.25277280       0.63161760 </v>
    <v>       0.03601102       0.81184699       0.64306691 </v>
    <v>       0.50146808       0.24442303       0.63018500 </v>
    <v>       0.49599595       0.75166764       0.63043695 </v>
    <v>       0.24773987       0.00104801       0.62958662 </v>
    <v>       0.26119106       0.49414104       0.63105542 </v>
    <v>       0.75205919       0.99801859       0.63224523 </v>
    <v>       0.72295602       0.57049460       0.64629534 </v>
    <v>       0.44874502       0.30128397       0.76888902 </v>
    <v>       0.44874501       0.80128391       0.76888902 </v>
    <v>       0.94874497       0.30128397       0.76888902 </v>
    <v>       0.94874501       0.80128391       0.76888902 </v>
    <v>       0.30127600       0.05129450       0.76887296 </v>
    <v>       0.30127601       0.55129450       0.76887296 </v>
    <v>       0.80127594       0.05129450       0.76887296 </v>
    <v>       0.80127598       0.55129450       0.76887296 </v>
    <v>       0.07877100       0.17118050       0.74344197 </v>
    <v>       0.07877101       0.67118045       0.74344197 </v>
    <v>       0.57877100       0.17118050       0.74344197 </v>
    <v>       0.57877099       0.67118045       0.74344197 </v>
    <v>       0.17119950       0.42117448       0.74342103 </v>
    <v>       0.17119950       0.92117451       0.74342103 </v>
    <v>       0.67119951       0.42117448       0.74342103 </v>
    <v>       0.67119950       0.92117451       0.74342103 </v>
    <v>       0.05125600       0.19871499       0.76888902 </v>
    <v>       0.05125600       0.69871493       0.76888902 </v>
    <v>       0.55125603       0.19871499       0.76888902 </v>
    <v>       0.55125602       0.69871493       0.76888902 </v>
    <v>       0.19872349       0.44870397       0.76887205 </v>
    <v>       0.19872349       0.94870397       0.76887205 </v>
    <v>       0.69872352       0.44870397       0.76887205 </v>
    <v>       0.69872351       0.94870397       0.76887205 </v>
    <v>       0.42123152       0.32881747       0.74344197 </v>
    <v>       0.42123151       0.82881744       0.74344197 </v>
    <v>       0.92123147       0.32881747       0.74344197 </v>
    <v>       0.92123151       0.82881744       0.74344197 </v>
    <v>       0.32880050       0.07882500       0.74342103 </v>
    <v>       0.32880049       0.57882496       0.74342103 </v>
    <v>       0.82880048       0.07882500       0.74342103 </v>
    <v>       0.82880052       0.57882496       0.74342103 </v>
    <v>       0.00000350       0.25000148       0.72582199 </v>
    <v>       0.00000350       0.75000145       0.72582199 </v>
    <v>       0.50000351       0.25000148       0.72582199 </v>
    <v>       0.50000350       0.75000145       0.72582199 </v>
    <v>       0.25000050       0.00000000       0.72580398 </v>
    <v>       0.25000052       0.50000000       0.72580398 </v>
    <v>       0.75000050       0.00000000       0.72580398 </v>
    <v>       0.75000049       0.50000000       0.72580398 </v>
    <v>       0.72036741       0.44360809       0.53961916 </v>
    <v>       0.74011799       0.49513902       0.51642751 </v>
    <v>       0.66236035       0.55203393       0.55668617 </v>
    <v>       0.70887822       0.63811652       0.55539923 </v>
    <v>       0.85198009       0.50872783       0.56736244 </v>
    <v>       0.79211633       0.57813321       0.57728880 </v>
    <v>       0.87686223       0.56030385       0.53105745 </v>
    <v>       0.80741916       0.62190229       0.52143053 </v>
    <v>       0.87315157       0.46107394       0.51794362 </v>
    <v>       0.86176969       0.42433041       0.54374474 </v>
    <v>       0.87250441       0.32591584       0.51839806 </v>
    <v>       0.78397973       0.32355507       0.53004748 </v>
    <v>       0.63820677       0.55135949       0.51822713 </v>
    <v>       0.69333746       0.63255338       0.51416552 </v>
    <v>       0.61121413       0.63706294       0.52931186 </v>
    <v>       0.76091736       0.46608233       0.59557389 </v>
    <v>       0.75441772       0.41236856       0.57208250 </v>
    <v>       0.68688040       0.48176594       0.57796429 </v>
    <v>       0.81855824       0.69138470       0.55760884 </v>
    <v>       0.89696246       0.69189769       0.54081886 </v>
    <v>       0.89625301       0.63222805       0.56334736 </v>
    <v>       0.82041801       0.38124960       0.48469497 </v>
    <v>       0.78660256       0.29225134       0.49138063 </v>
    <v>       0.66235316       0.30344558       0.51785266 </v>
    <v>       0.73286074       0.46226480       0.47084784 </v>
    <v>       0.53539178       0.35459360       0.51673549 </v>
    <v>       0.60480934       0.51303755       0.46916763 </v>
    <v>       0.50607677       0.46120467       0.49262273 </v>
    <v>       0.99473391       0.24201179       0.55422853 </v>
    <v>       0.03322759       0.76900239       0.56357928 </v>
    <v>       0.46619535       0.22809386       0.55718377 </v>
    <v>       0.50307206       0.75735432       0.55549557 </v>
    <v>       0.23457958       0.53527040       0.55972224 </v>
    <v>       0.26270317       0.99306600       0.55676541 </v>
    <v>       0.77774901       0.98365760       0.56229093 </v>
    <v>       0.00592030       0.24492215       0.64873840 </v>
    <v>       0.01461774       0.76719006       0.65328966 </v>
    <v>       0.49974444       0.24725338       0.64758466 </v>
    <v>       0.49640518       0.75227460       0.64784119 </v>
    <v>       0.25607541       0.49779707       0.64844256 </v>
    <v>       0.24904459       0.00172075       0.64701692 </v>
    <v>       0.74468433       0.51897196       0.65320163 </v>
    <v>       0.75274667       0.00023416       0.64970099 </v>
    <v>       0.49998898       0.24999498       0.74327702 </v>
    <v>       0.49998903       0.74999496       0.74327702 </v>
    <v>       0.99998898       0.24999498       0.74327702 </v>
    <v>       0.99998903       0.74999496       0.74327702 </v>
    <v>       0.25000050       0.00000100       0.74325596 </v>
    <v>       0.25000052       0.50000100       0.74325596 </v>
    <v>       0.75000050       0.00000100       0.74325596 </v>
    <v>       0.75000049       0.50000100       0.74325596 </v>
    <v>       0.70690762       0.37938476       0.49463317 </v>
    <v>       0.64999949       0.34932362       0.50720435 </v>
    <v>       0.68934560       0.43819382       0.48086452 </v>
    <v>       0.57862104       0.37805803       0.50656158 </v>
    <v>       0.61714484       0.46694447       0.47999933 </v>
    <v>       0.56185077       0.43749541       0.49295117 </v>
    <v>       0.76297250       0.47702513       0.53168551 </v>
    <v>       0.69815018       0.58656373       0.54666494 </v>
    <v>       0.79388286       0.52632092       0.56813677 </v>
    <v>       0.83124305       0.59665190       0.53580877 </v>
    <v>       0.83348693       0.43201517       0.52833419 </v>
    <v>       0.81896590       0.35504174       0.51888613 </v>
    <v>       0.65930206       0.60198864       0.52570756 </v>
    <v>       0.74573247       0.46812967       0.57859735 </v>
    <v>       0.86171764       0.65589953       0.55067075 </v>
    <v>       0.78537072       0.35104409       0.49636405 </v>
    <v>       0.05751684       0.25612757       0.56402486 </v>
    <v>       0.03034000       0.70896444       0.57540507 </v>
    <v>       0.53422264       0.20911352       0.56176483 </v>
    <v>       0.48338512       0.69263062       0.56318351 </v>
    <v>       0.43862080       0.29523752       0.55833580 </v>
    <v>       0.47613488       0.82063617       0.56206548 </v>
    <v>       0.92934108       0.25064572       0.56302063 </v>
    <v>       0.97955963       0.81815764       0.56209662 </v>
    <v>       0.22766531       0.46637246       0.56642304 </v>
    <v>       0.19586895       0.01209564       0.56294621 </v>
    <v>       0.70796295       0.98542034       0.56829854 </v>
    <v>       0.32228008       0.03225947       0.56094520 </v>
    <v>       0.29778069       0.56868147       0.55588023 </v>
    <v>       0.82298011       0.04048689       0.56242481 </v>
    <v>       0.05093094       0.19738355       0.65798207 </v>
    <v>       0.05990071       0.71199450       0.65771938 </v>
    <v>       0.54566432       0.20387813       0.65819317 </v>
    <v>       0.53855298       0.70323451       0.65751329 </v>
    <v>       0.21274942       0.44885064       0.65770388 </v>
    <v>       0.20222209       0.95698100       0.65673353 </v>
    <v>       0.69771362       0.46625583       0.65814574 </v>
    <v>       0.70790545       0.95460293       0.65982820 </v>
    <v>       0.45274880       0.29336811       0.65625223 </v>
    <v>       0.45452005       0.80177551       0.65727251 </v>
    <v>       0.95470988       0.28418847       0.65852692 </v>
    <v>       0.94596991       0.77194164       0.65989499 </v>
    <v>       0.29596150       0.04653753       0.65626688 </v>
    <v>       0.29390036       0.54994040       0.65812767 </v>
    <v>       0.79745658       0.04788733       0.65865841 </v>
    <v>       0.81679255       0.51477998       0.65590933 </v>
    <v>       0.04586250       0.20411950       0.75272599 </v>
    <v>       0.04586250       0.70411946       0.75272599 </v>
    <v>       0.54586251       0.20411950       0.75272599 </v>
    <v>       0.54586250       0.70411946       0.75272599 </v>
    <v>       0.20411900       0.45410100       0.75270499 </v>
    <v>       0.20411899       0.95410095       0.75270499 </v>
    <v>       0.70411898       0.45410100       0.75270499 </v>
    <v>       0.70411896       0.95410095       0.75270499 </v>
    <v>       0.45414002       0.29588849       0.75272697 </v>
    <v>       0.45414001       0.79588852       0.75272697 </v>
    <v>       0.95414002       0.29588849       0.75272697 </v>
    <v>       0.95414006       0.79588852       0.75272697 </v>
    <v>       0.29588249       0.04590050       0.75270499 </v>
    <v>       0.29588248       0.54590053       0.75270499 </v>
    <v>       0.79588244       0.04590050       0.75270499 </v>
    <v>       0.79588248       0.54590053       0.75270499 </v>
    <v>       0.77190113       0.54613416       0.54533533 </v>
    <v>       0.51598022       0.01248607       0.55316740 </v>
    <v>       0.48777455       0.49713409       0.55317284 </v>
    <v>       0.00803124       0.00778203       0.55013365 </v>
    <v>       0.02586632       0.50088003       0.55439732 </v>
    <v>       0.25034398       0.23872642       0.55275521 </v>
    <v>       0.25401330       0.76168648       0.55249961 </v>
    <v>       0.73519408       0.21194735       0.55580618 </v>
    <v>       0.69920727       0.79640805       0.55526646 </v>
    <v>       0.99780253       0.98828460       0.65368458 </v>
    <v>       0.01385752       0.49733203       0.65533982 </v>
    <v>       0.49619008       0.00372772       0.65494289 </v>
    <v>       0.50108795       0.49513797       0.65441611 </v>
    <v>       0.25284922       0.24669109       0.65465230 </v>
    <v>       0.25474764       0.75557678       0.65431074 </v>
    <v>       0.74722275       0.26770228       0.65517761 </v>
    <v>       0.74638518       0.74094966       0.65452374 </v>
    <v>       0.12923754       0.12325723       0.60742014 </v>
    <v>       0.15299926       0.60627423       0.60773453 </v>
    <v>       0.63959097       0.11377118       0.61127839 </v>
    <v>       0.63184855       0.61889430       0.60730952 </v>
    <v>       0.36138471       0.38889296       0.60582033 </v>
    <v>       0.36975193       0.88570686       0.60696619 </v>
    <v>       0.88815628       0.36875985       0.60801736 </v>
    <v>       0.86703190       0.88216762       0.60595140 </v>
    <v>       0.12222235       0.36428377       0.60871336 </v>
    <v>       0.12331401       0.87535714       0.60691991 </v>
    <v>       0.59555319       0.34707169       0.60115936 </v>
    <v>       0.61681390       0.86705417       0.61430426 </v>
    <v>       0.38764572       0.13329617       0.60711826 </v>
    <v>       0.38618854       0.63559078       0.60942682 </v>
    <v>       0.88444860       0.13718644       0.61131978 </v>
    <v>       0.89727581       0.64037790       0.61370026 </v>
    <v>       0.00000000       0.00000000       0.75492797 </v>
    <v>       0.00000000       0.50000000       0.75492797 </v>
    <v>       0.50000000       0.00000000       0.75492797 </v>
    <v>       0.49999999       0.50000000       0.75492797 </v>
    <v>       0.25000050       0.25000000       0.75493902 </v>
    <v>       0.25000051       0.74999997       0.75493902 </v>
    <v>       0.75000047       0.25000000       0.75493902 </v>
    <v>       0.75000046       0.74999997       0.75493902 </v>
    <v>       0.13579050       0.11421000       0.70478299 </v>
    <v>       0.13579050       0.61420998       0.70478299 </v>
    <v>       0.63579045       0.11421000       0.70478299 </v>
    <v>       0.63579049       0.61420998       0.70478299 </v>
    <v>       0.36420952       0.38578999       0.70478299 </v>
    <v>       0.36420950       0.88578996       0.70478299 </v>
    <v>       0.86420954       0.38578999       0.70478299 </v>
    <v>       0.86420953       0.88578996       0.70478299 </v>
    <v>       0.11421799       0.36421899       0.70478098 </v>
    <v>       0.11421799       0.86421899       0.70478098 </v>
    <v>       0.61421800       0.36421899       0.70478098 </v>
    <v>       0.61421799       0.86421899       0.70478098 </v>
    <v>       0.38578201       0.13578149       0.70478202 </v>
    <v>       0.38578200       0.63578149       0.70478202 </v>
    <v>       0.88578199       0.13578149       0.70478202 </v>
    <v>       0.88578203       0.63578149       0.70478202 </v>
    <v>       0.13466700       0.11533200       0.80125603 </v>
    <v>       0.13466699       0.61533199       0.80125603 </v>
    <v>       0.63466699       0.11533200       0.80125603 </v>
    <v>       0.63466698       0.61533199       0.80125603 </v>
    <v>       0.36533300       0.38466799       0.80125603 </v>
    <v>       0.36533299       0.88466796       0.80125603 </v>
    <v>       0.86533295       0.38466799       0.80125603 </v>
    <v>       0.86533294       0.88466796       0.80125603 </v>
    <v>       0.11532850       0.36533700       0.80126500 </v>
    <v>       0.11532850       0.86533698       0.80126500 </v>
    <v>       0.61532850       0.36533700       0.80126500 </v>
    <v>       0.61532849       0.86533698       0.80126500 </v>
    <v>       0.38467151       0.13466300       0.80126500 </v>
    <v>       0.38467150       0.63466297       0.80126500 </v>
    <v>       0.88467149       0.13466300       0.80126500 </v>
    <v>       0.88467153       0.63466297       0.80126500 </v>
    <v>       0.99736392       0.00403971       0.60381987 </v>
    <v>       0.00712406       0.50356569       0.60429885 </v>
    <v>       0.50448274       0.00129391       0.60538689 </v>
    <v>       0.50152641       0.49873697       0.60400930 </v>
    <v>       0.25410977       0.24932414       0.60412449 </v>
    <v>       0.25114687       0.75258901       0.60295000 </v>
    <v>       0.74640043       0.25134146       0.60524148 </v>
    <v>       0.74370777       0.75628031       0.60419873 </v>
    <v>       0.00000050       0.00000050       0.70482896 </v>
    <v>       0.00000050       0.50000048       0.70482896 </v>
    <v>       0.50000048       0.00000050       0.70482896 </v>
    <v>       0.50000046       0.50000048       0.70482896 </v>
    <v>       0.24999999       0.24999947       0.70482499 </v>
    <v>       0.25000001       0.74999950       0.70482499 </v>
    <v>       0.74999999       0.24999947       0.70482499 </v>
    <v>       0.74999998       0.74999950       0.70482499 </v>
    <v>       0.00000000       0.00000000       0.80731797 </v>
    <v>       0.00000000       0.50000000       0.80731797 </v>
    <v>       0.50000000       0.00000000       0.80731797 </v>
    <v>       0.49999999       0.50000000       0.80731797 </v>
    <v>       0.24999999       0.25000000       0.80731797 </v>
    <v>       0.25000001       0.74999997       0.80731797 </v>
    <v>       0.74999999       0.25000000       0.80731797 </v>
    <v>       0.74999998       0.74999997       0.80731797 </v>
   </varray>
  </structure>
  <varray name="primitive_index" >
   <v type="int" >        1 </v>
   <v type="int" >        2 </v>
   <v type="int" >        3 </v>
   <v type="int" >        4 </v>
   <v type="int" >        5 </v>
   <v type="int" >        6 </v>
   <v type="int" >        7 </v>
   <v type="int" >        8 </v>
   <v type="int" >        9 </v>
   <v type="int" >       10 </v>
   <v type="int" >       11 </v>
   <v type="int" >       12 </v>
   <v type="int" >       13 </v>
   <v type="int" >       14 </v>
   <v type="int" >       15 </v>
   <v type="int" >       16 </v>
   <v type="int" >       17 </v>
   <v type="int" >       18 </v>
   <v type="int" >       19 </v>
   <v type="int" >       20 </v>
   <v type="int" >       21 </v>
   <v type="int" >       22 </v>
   <v type="int" >       23 </v>
   <v type="int" >       24 </v>
   <v type="int" >       25 </v>
   <v type="int" >       26 </v>
   <v type="int" >       27 </v>
   <v type="int" >       28 </v>
   <v type="int" >       29 </v>
   <v type="int" >       30 </v>
   <v type="int" >       31 </v>
   <v type="int" >       32 </v>
   <v type="int" >       33 </v>
   <v type="int" >       34 </v>
   <v type="int" >       35 </v>
   <v type="int" >       36 </v>
   <v type="int" >       37 </v>
   <v type="int" >       38 </v>
   <v type="int" >       39 </v>
   <v type="int" >       40 </v>
   <v type="int" >       41 </v>
   <v type="int" >       42 </v>
   <v type="int" >       43 </v>
   <v type="int" >       44 </v>
   <v type="int" >       45 </v>
   <v type="int" >       46 </v>
   <v type="int" >       47 </v>
   <v type="int" >       48 </v>
   <v type="int" >       49 </v>
   <v type="int" >       50 </v>
   <v type="int" >       51 </v>
   <v type="int" >       52 </v>
   <v type="int" >       53 </v>
   <v type="int" >       54 </v>
   <v type="int" >       55 </v>
   <v type="int" >       56 </v>
   <v type="int" >       57 </v>
   <v type="int" >       58 </v>
   <v type="int" >       59 </v>
   <v type="int" >       60 </v>
   <v type="int" >       61 </v>
   <v type="int" >       62 </v>
   <v type="int" >       63 </v>
   <v type="int" >       64 </v>
   <v type="int" >       65 </v>
   <v type="int" >       66 </v>
   <v type="int" >       67 </v>
   <v type="int" >       68 </v>
   <v type="int" >       69 </v>
   <v type="int" >       70 </v>
   <v type="int" >       71 </v>
   <v type="int" >       72 </v>
   <v type="int" >       73 </v>
   <v type="int" >       74 </v>
   <v type="int" >       75 </v>
   <v type="int" >       76 </v>
   <v type="int" >       77 </v>
   <v type="int" >       78 </v>
   <v type="int" >       79 </v>
   <v type="int" >       80 </v>
   <v type="int" >       81 </v>
   <v type="int" >       82 </v>
   <v type="int" >       83 </v>
   <v type="int" >       84 </v>
   <v type="int" >       85 </v>
   <v type="int" >       86 </v>
   <v type="int" >       87 </v>
   <v type="int" >       88 </v>
   <v type="int" >       89 </v>
   <v type="int" >       90 </v>
   <v type="int" >       91 </v>
   <v type="int" >       92 </v>
   <v type="int" >       93 </v>
   <v type="int" >       94 </v>
   <v type="int" >       95 </v>
   <v type="int" >       96 </v>
   <v type="int" >       97 </v>
   <v type="int" >       98 </v>
   <v type="int" >       99 </v>
   <v type="int" >      100 </v>
   <v type="int" >      101 </v>
   <v type="int" >      102 </v>
   <v type="int" >      103 </v>
   <v type="int" >      104 </v>
   <v type="int" >      105 </v>
   <v type="int" >      106 </v>
   <v type="int" >      107 </v>
   <v type="int" >      108 </v>
   <v type="int" >      109 </v>
   <v type="int" >      110 </v>
   <v type="int" >      111 </v>
   <v type="int" >      112 </v>
   <v type="int" >      113 </v>
   <v type="int" >      114 </v>
   <v type="int" >      115 </v>
   <v type="int" >      116 </v>
   <v type="int" >      117 </v>
   <v type="int" >      118 </v>
   <v type="int" >      119 </v>
   <v type="int" >      120 </v>
   <v type="int" >      121 </v>
   <v type="int" >      122 </v>
   <v type="int" >      123 </v>
   <v type="int" >      124 </v>
   <v type="int" >      125 </v>
   <v type="int" >      126 </v>
   <v type="int" >      127 </v>
   <v type="int" >      128 </v>
   <v type="int" >      129 </v>
   <v type="int" >      130 </v>
   <v type="int" >      131 </v>
   <v type="int" >      132 </v>
   <v type="int" >      133 </v>
   <v type="int" >      134 </v>
   <v type="int" >      135 </v>
   <v type="int" >      136 </v>
   <v type="int" >      137 </v>
   <v type="int" >      138 </v>
   <v type="int" >      139 </v>
   <v type="int" >      140 </v>
   <v type="int" >      141 </v>
   <v type="int" >      142 </v>
   <v type="int" >      143 </v>
   <v type="int" >      144 </v>
   <v type="int" >      145 </v>
   <v type="int" >      146 </v>
   <v type="int" >      147 </v>
   <v type="int" >      148 </v>
   <v type="int" >      149 </v>
   <v type="int" >      150 </v>
   <v type="int" >      151 </v>
   <v type="int" >      152 </v>
   <v type="int" >      153 </v>
   <v type="int" >      154 </v>
   <v type="int" >      155 </v>
   <v type="int" >      156 </v>
   <v type="int" >      157 </v>
   <v type="int" >      158 </v>
   <v type="int" >      159 </v>
   <v type="int" >      160 </v>
   <v type="int" >      161 </v>
   <v type="int" >      162 </v>
   <v type="int" >      163 </v>
   <v type="int" >      164 </v>
   <v type="int" >      165 </v>
   <v type="int" >      166 </v>
   <v type="int" >      167 </v>
   <v type="int" >      168 </v>
   <v type="int" >      169 </v>
   <v type="int" >      170 </v>
   <v type="int" >      171 </v>
   <v type="int" >      172 </v>
   <v type="int" >      173 </v>
   <v type="int" >      174 </v>
   <v type="int" >      175 </v>
   <v type="int" >      176 </v>
   <v type="int" >      177 </v>
   <v type="int" >      178 </v>
   <v type="int" >      179 </v>
   <v type="int" >      180 </v>
   <v type="int" >      181 </v>
   <v type="int" >      182 </v>
   <v type="int" >      183 </v>
   <v type="int" >      184 </v>
   <v type="int" >      185 </v>
   <v type="int" >      186 </v>
   <v type="int" >      187 </v>
   <v type="int" >      188 </v>
   <v type="int" >      189 </v>
   <v type="int" >      190 </v>
   <v type="int" >      191 </v>
   <v type="int" >      192 </v>
   <v type="int" >      193 </v>
   <v type="int" >      194 </v>
   <v type="int" >      195 </v>
   <v type="int" >      196 </v>
   <v type="int" >      197 </v>
   <v type="int" >      198 </v>
   <v type="int" >      199 </v>
   <v type="int" >      200 </v>
   <v type="int" >      201 </v>
   <v type="int" >      202 </v>
   <v type="int" >      203 </v>
   <v type="int" >      204 </v>
   <v type="int" >      205 </v>
   <v type="int" >      206 </v>
   <v type="int" >      207 </v>
   <v type="int" >      208 </v>
   <v type="int" >      209 </v>
   <v type="int" >      210 </v>
   <v type="int" >      211 </v>
   <v type="int" >      212 </v>
   <v type="int" >      213 </v>
   <v type="int" >      214 </v>
   <v type="int" >      215 </v>
   <v type="int" >      216 </v>
   <v type="int" >      217 </v>
   <v type="int" >      218 </v>
   <v type="int" >      219 </v>
   <v type="int" >      220 </v>
   <v type="int" >      221 </v>
   <v type="int" >      222 </v>
   <v type="int" >      223 </v>
   <v type="int" >      224 </v>
   <v type="int" >      225 </v>
   <v type="int" >      226 </v>
   <v type="int" >      227 </v>
   <v type="int" >      228 </v>
   <v type="int" >      229 </v>
   <v type="int" >      230 </v>
   <v type="int" >      231 </v>
   <v type="int" >      232 </v>
   <v type="int" >      233 </v>
   <v type="int" >      234 </v>
   <v type="int" >      235 </v>
   <v type="int" >      236 </v>
   <v type="int" >      237 </v>
   <v type="int" >      238 </v>
   <v type="int" >      239 </v>
   <v type="int" >      240 </v>
   <v type="int" >      241 </v>
   <v type="int" >      242 </v>
   <v type="int" >      243 </v>
   <v type="int" >      244 </v>
   <v type="int" >      245 </v>
   <v type="int" >      246 </v>
   <v type="int" >      247 </v>
   <v type="int" >      248 </v>
   <v type="int" >      249 </v>
   <v type="int" >      250 </v>
   <v type="int" >      251 </v>
   <v type="int" >      252 </v>
   <v type="int" >      253 </v>
   <v type="int" >      254 </v>
   <v type="int" >      255 </v>
   <v type="int" >      256 </v>
   <v type="int" >      257 </v>
   <v type="int" >      258 </v>
   <v type="int" >      259 </v>
   <v type="int" >      260 </v>
   <v type="int" >      261 </v>
   <v type="int" >      262 </v>
   <v type="int" >      263 </v>
   <v type="int" >      264 </v>
   <v type="int" >      265 </v>
   <v type="int" >      266 </v>
   <v type="int" >      267 </v>
   <v type="int" >      268 </v>
   <v type="int" >      269 </v>
   <v type="int" >      270 </v>
   <v type="int" >      271 </v>
   <v type="int" >      272 </v>
   <v type="int" >      273 </v>
   <v type="int" >      274 </v>
   <v type="int" >      275 </v>
   <v type="int" >      276 </v>
   <v type="int" >      277 </v>
   <v type="int" >      278 </v>
   <v type="int" >      279 </v>
   <v type="int" >      280 </v>
   <v type="int" >      281 </v>
   <v type="int" >      282 </v>
   <v type="int" >      283 </v>
   <v type="int" >      284 </v>
   <v type="int" >      285 </v>
   <v type="int" >      286 </v>
   <v type="int" >      287 </v>
   <v type="int" >      288 </v>
   <v type="int" >      289 </v>
   <v type="int" >      290 </v>
   <v type="int" >      291 </v>
   <v type="int" >      292 </v>
   <v type="int" >      293 </v>
   <v type="int" >      294 </v>
   <v type="int" >      295 </v>
   <v type="int" >      296 </v>
   <v type="int" >      297 </v>
   <v type="int" >      298 </v>
   <v type="int" >      299 </v>
   <v type="int" >      300 </v>
   <v type="int" >      301 </v>
   <v type="int" >      302 </v>
   <v type="int" >      303 </v>
   <v type="int" >      304 </v>
   <v type="int" >      305 </v>
   <v type="int" >      306 </v>
   <v type="int" >      307 </v>
   <v type="int" >      308 </v>
   <v type="int" >      309 </v>
   <v type="int" >      310 </v>
   <v type="int" >      311 </v>
   <v type="int" >      312 </v>
   <v type="int" >      313 </v>
   <v type="int" >      314 </v>
   <v type="int" >      315 </v>
   <v type="int" >      316 </v>
   <v type="int" >      317 </v>
   <v type="int" >      318 </v>
   <v type="int" >      319 </v>
   <v type="int" >      320 </v>
   <v type="int" >      321 </v>
   <v type="int" >      322 </v>
   <v type="int" >      323 </v>
   <v type="int" >      324 </v>
   <v type="int" >      325 </v>
  </varray>
 </primitive_cell>
 <kpoints>
  <generation param="Gamma">
   <v type="int" name="divisions">       3        3        1 </v>
   <v name="usershift">      0.00000000       0.00000000       0.00000000 </v>
   <v name="genvec1">      0.33333333       0.00000000       0.00000000 </v>
   <v name="genvec2">      0.00000000       0.33333333       0.00000000 </v>
   <v name="genvec3">      0.00000000       0.00000000       1.00000000 </v>
   <v name="shift">      0.00000000       0.00000000       0.00000000 </v>
  </generation>
  <varray name="kpointlist" >
   <v>       0.00000000       0.00000000       0.00000000 </v>
   <v>       0.33333333       0.00000000       0.00000000 </v>
   <v>       0.00000000       0.33333333       0.00000000 </v>
   <v>       0.33333333       0.33333333       0.00000000 </v>
   <v>      -0.33333333       0.33333333       0.00000000 </v>
  </varray>
  <varray name="weights" >
   <v>       0.11111111 </v>
   <v>       0.22222222 </v>
   <v>       0.22222222 </v>
   <v>       0.22222222 </v>
   <v>       0.22222222 </v>
  </varray>
 </kpoints>
 <parameters>
  <separator name="general" >
   <i type="string" name="SYSTEM">PSC</i>
   <i type="logical" name="LCOMPAT"> F  </i>
  </separator>
  <separator name="electronic" >
   <i type="string" name="PREC">normal</i>
   <i name="ENMAX">    500.00000000</i>
   <i name="ENAUG">    644.87300000</i>
   <i name="EDIFF">      0.00010000</i>
   <i type="int" name="IALGO">    38</i>
   <i type="int" name="IWAVPR">    10</i>
   <i type="int" name="NBANDS">   732</i>
   <i type="int" name="NBANDSLOW">    -1</i>
   <i type="int" name="NBANDSHIGH">    -1</i>
   <i name="NELECT">   1134.00000000</i>
   <i type="int" name="TURBO">     0</i>
   <i type="int" name="IRESTART">     0</i>
   <i type="int" name="NREBOOT">     0</i>
   <i type="int" name="NMIN">     0</i>
   <i name="EREF">      0.00000000</i>
   <separator name="electronic smearing" >
    <i type="int" name="ISMEAR">     0</i>
    <i name="SIGMA">      0.05000000</i>
    <i name="KSPACING">      0.50000000</i>
    <i type="logical" name="KGAMMA"> T  </i>
    <i type="logical" name="KBLOWUP"> T  </i>
   </separator>
   <separator name="electronic projectors" >
    <i type="logical" name="LREAL"> T  </i>
    <v name="ROPT">     -0.00050000     -0.00050000     -0.00050000     -0.00050000     -0.00050000</v>
    <i type="int" name="LMAXPAW">  -100</i>
    <i type="int" name="LMAXMIX">     2</i>
    <i type="logical" name="NLSPLINE"> F  </i>
   </separator>
   <separator name="electronic startup" >
    <i type="int" name="ISTART">     0</i>
    <i type="int" name="ICHARG">     1</i>
    <i type="int" name="INIWAV">     1</i>
   </separator>
   <separator name="electronic spin" >
    <i type="int" name="ISPIN">     1</i>
    <i type="logical" name="LNONCOLLINEAR"> F  </i>
    <v name="MAGMOM">      1.00000000      1.00000000      1.00000000      1.00000000      1.00000000      1.00000000      1.00000000      1.00000000      1.00000000      1.00000000      1.00000000      1.00000000      1.00000000      1.00000000      1.00000000      1.00000000      1.00000000      1.00000000      1.00000000      1.00000000
      1.00000000      1.00000000      1.00000000      1.00000000      1.00000000      1.00000000      1.00000000      1.00000000      1.00000000      1.00000000      1.00000000      1.00000000      1.00000000      1.00000000      1.00000000      1.00000000      1.00000000      1.00000000      1.00000000      1.00000000
      1.00000000      1.00000000      1.00000000      1.00000000      1.00000000      1.00000000      1.00000000      1.00000000      1.00000000      1.00000000      1.00000000      1.00000000      1.00000000      1.00000000      1.00000000      1.00000000      1.00000000      1.00000000      1.00000000      1.00000000
      1.00000000      1.00000000      1.00000000      1.00000000      1.00000000      1.00000000      1.00000000      1.00000000      1.00000000      1.00000000      1.00000000      1.00000000      1.00000000      1.00000000      1.00000000      1.00000000      1.00000000      1.00000000      1.00000000      1.00000000
      1.00000000      1.00000000      1.00000000      1.00000000      1.00000000      1.00000000      1.00000000      1.00000000      1.00000000      1.00000000      1.00000000      1.00000000      1.00000000      1.00000000      1.00000000      1.00000000      1.00000000      1.00000000      1.00000000      1.00000000
      1.00000000      1.00000000      1.00000000      1.00000000      1.00000000      1.00000000      1.00000000      1.00000000      1.00000000      1.00000000      1.00000000      1.00000000      1.00000000      1.00000000      1.00000000      1.00000000      1.00000000      1.00000000      1.00000000      1.00000000
      1.00000000      1.00000000      1.00000000      1.00000000      1.00000000      1.00000000      1.00000000      1.00000000      1.00000000      1.00000000      1.00000000      1.00000000      1.00000000      1.00000000      1.00000000      1.00000000      1.00000000      1.00000000      1.00000000      1.00000000
      1.00000000      1.00000000      1.00000000      1.00000000      1.00000000      1.00000000      1.00000000      1.00000000      1.00000000      1.00000000      1.00000000      1.00000000      1.00000000      1.00000000      1.00000000      1.00000000      1.00000000      1.00000000      1.00000000      1.00000000
      1.00000000      1.00000000      1.00000000      1.00000000      1.00000000      1.00000000      1.00000000      1.00000000      1.00000000      1.00000000      1.00000000      1.00000000      1.00000000      1.00000000      1.00000000      1.00000000      1.00000000      1.00000000      1.00000000      1.00000000
      1.00000000      1.00000000      1.00000000      1.00000000      1.00000000      1.00000000      1.00000000      1.00000000      1.00000000      1.00000000      1.00000000      1.00000000      1.00000000      1.00000000      1.00000000      1.00000000      1.00000000      1.00000000      1.00000000      1.00000000
      1.00000000      1.00000000      1.00000000      1.00000000      1.00000000      1.00000000      1.00000000      1.00000000      1.00000000      1.00000000      1.00000000      1.00000000      1.00000000      1.00000000      1.00000000      1.00000000      1.00000000      1.00000000      1.00000000      1.00000000
      1.00000000      1.00000000      1.00000000      1.00000000      1.00000000      1.00000000      1.00000000      1.00000000      1.00000000      1.00000000      1.00000000      1.00000000      1.00000000      1.00000000      1.00000000      1.00000000      1.00000000      1.00000000      1.00000000      1.00000000
      1.00000000      1.00000000      1.00000000      1.00000000      1.00000000      1.00000000      1.00000000      1.00000000      1.00000000      1.00000000      1.00000000      1.00000000      1.00000000      1.00000000      1.00000000      1.00000000      1.00000000      1.00000000      1.00000000      1.00000000
      1.00000000      1.00000000      1.00000000      1.00000000      1.00000000      1.00000000      1.00000000      1.00000000      1.00000000      1.00000000      1.00000000      1.00000000      1.00000000      1.00000000      1.00000000      1.00000000      1.00000000      1.00000000      1.00000000      1.00000000
      1.00000000      1.00000000      1.00000000      1.00000000      1.00000000      1.00000000      1.00000000      1.00000000      1.00000000      1.00000000      1.00000000      1.00000000      1.00000000      1.00000000      1.00000000      1.00000000      1.00000000      1.00000000      1.00000000      1.00000000
      1.00000000      1.00000000      1.00000000      1.00000000      1.00000000      1.00000000      1.00000000      1.00000000      1.00000000      1.00000000      1.00000000      1.00000000      1.00000000      1.00000000      1.00000000      1.00000000      1.00000000      1.00000000      1.00000000      1.00000000
      1.00000000      1.00000000      1.00000000      1.00000000      1.00000000</v>
    <i name="NUPDOWN">     -1.00000000</i>
    <i type="logical" name="LSORBIT"> F  </i>
    <v name="SAXIS">      0.00000000      0.00000000      1.00000000</v>
    <i type="logical" name="LSPIRAL"> F  </i>
    <v name="QSPIRAL">      0.00000000      0.00000000      0.00000000</v>
    <i type="logical" name="LZEROZ"> F  </i>
   </separator>
   <separator name="electronic exchange-correlation" >
    <i type="logical" name="LASPH"> F  </i>
    <i type="logical" name="LMETAGGA"> F  </i>
   </separator>
   <separator name="electronic convergence" >
    <i type="int" name="NELM">   600</i>
    <i type="int" name="NELMDL">     0</i>
    <i type="int" name="NELMIN">     2</i>
    <i name="ENINI">    500.00000000</i>
    <separator name="electronic convergence detail" >
     <i type="logical" name="LDIAG"> T  </i>
     <i type="logical" name="LSUBROT"> F  </i>
     <i name="WEIMIN">      0.00000000</i>
     <i name="EBREAK">      0.00000003</i>
     <i name="DEPER">      0.30000000</i>
     <i type="int" name="NRMM">     4</i>
     <i name="TIME">      0.40000000</i>
    </separator>
   </separator>
   <separator name="electronic mixer" >
    <i name="AMIX">      0.40000000</i>
    <i name="BMIX">      0.01000000</i>
    <i name="AMIN">      0.01000000</i>
    <i name="AMIX_MAG">      1.60000000</i>
    <i name="BMIX_MAG">      0.01000000</i>
    <separator name="electronic mixer details" >
     <i type="int" name="IMIX">     4</i>
     <i type="logical" name="MIXFIRST"> F  </i>
     <i type="int" name="MAXMIX">   -45</i>
     <i name="WC">    100.00000000</i>
     <i type="int" name="INIMIX">     1</i>
     <i type="int" name="MIXPRE">     1</i>
     <i type="int" name="MREMOVE">     5</i>
    </separator>
   </separator>
   <separator name="electronic dipolcorrection" >
    <i type="logical" name="LDIPOL"> T  </i>
    <i type="logical" name="LMONO"> F  </i>
    <i type="int" name="IDIPOL">     3</i>
    <i name="EPSILON">      1.00000000</i>
    <v name="DIPOL">   -100.00000000   -100.00000000   -100.00000000</v>
    <i name="EFIELD">      0.00000000</i>
   </separator>
  </separator>
  <separator name="grids" >
   <i type="int" name="NGX">   100</i>
   <i type="int" name="NGY">   100</i>
   <i type="int" name="NGZ">   350</i>
   <i type="int" name="NGXF">   200</i>
   <i type="int" name="NGYF">   200</i>
   <i type="int" name="NGZF">   700</i>
   <i type="logical" name="ADDGRID"> F  </i>
  </separator>
  <separator name="ionic" >
   <i type="int" name="NSW">     0</i>
   <i type="int" name="IBRION">    -1</i>
   <i type="int" name="MDALGO">     0</i>
   <i type="int" name="ISIF">     2</i>
   <i name="PSTRESS">      0.00000000</i>
   <i name="EDIFFG">      0.00100000</i>
   <i type="int" name="NFREE">     0</i>
   <i name="POTIM">      0.50000000</i>
   <i name="SMASS">     -3.00000000</i>
   <i name="SCALEE">      1.00000000</i>
  </separator>
  <separator name="ionic md" >
   <i name="TEBEG">      0.00010000</i>
   <i name="TEEND">      0.00010000</i>
   <i type="int" name="NBLOCK">     1</i>
   <i type="int" name="KBLOCK">     1</i>
   <i type="int" name="NPACO">   256</i>
   <i name="APACO">     16.00000000</i>
  </separator>
  <separator name="symmetry" >
   <i type="int" name="ISYM">     0</i>
   <i name="SYMPREC">      0.00001000</i>
  </separator>
  <separator name="dos" >
   <i type="int" name="LORBIT">     0</i>
   <v name="RWIGS">     -1.00000000     -1.00000000     -1.00000000     -1.00000000     -1.00000000</v>
   <i type="int" name="NEDOS">   301</i>
   <i name="EMIN">     10.00000000</i>
   <i name="EMAX">    -10.00000000</i>
   <i name="EFERMI">      0.00000000</i>
  </separator>
  <separator name="writing" >
   <i type="int" name="NWRITE">     2</i>
   <i type="logical" name="LWAVE"> F  </i>
   <i type="logical" name="LDOWNSAMPLE"> F  </i>
   <i type="logical" name="LCHARG"> T  </i>
   <i type="logical" name="LPARD"> F  </i>
   <i type="logical" name="LVTOT"> T  </i>
   <i type="logical" name="LVHAR"> F  </i>
   <i type="logical" name="LELF"> F  </i>
   <i type="logical" name="LOPTICS"> F  </i>
   <v name="STM">      0.00000000      0.00000000      0.00000000      0.00000000      0.00000000      0.00000000      0.00000000</v>
  </separator>
  <separator name="performance" >
   <i type="int" name="NPAR">     4</i>
   <i type="int" name="NSIM">     4</i>
   <i type="int" name="NBLK">    -1</i>
   <i type="logical" name="LPLANE"> T  </i>
   <i type="logical" name="LSCALAPACK"> T  </i>
   <i type="logical" name="LSCAAWARE"> F  </i>
   <i type="logical" name="LSCALU"> F  </i>
   <i type="logical" name="LASYNC"> F  </i>
   <i type="logical" name="LORBITALREAL"> F  </i>
  </separator>
  <separator name="miscellaneous" >
   <i type="int" name="IDIOT">     3</i>
   <i type="int" name="PHON_NSTRUCT">    -1</i>
   <i type="logical" name="LMUSIC"> F  </i>
   <v name="POMASS">      1.00000000     12.01100000     14.00100000    126.90400000    207.20000000</v>
   <v name="DARWINR">      0.00000000      0.00000000      0.00000000      0.00000000      0.00000000</v>
   <v name="DARWINV">      1.00000000      1.00000000      1.00000000      1.00000000      1.00000000</v>
   <i type="logical" name="LCORR"> T  </i>
  </separator>
  <i type="logical" name="GGA_COMPAT"> F  </i>
  <i type="logical" name="LBERRY"> F  </i>
  <i type="int" name="ICORELEVEL">     0</i>
  <i type="logical" name="LDAU"> F  </i>
  <i type="int" name="I_CONSTRAINED_M">     0</i>
  <separator name="electronic exchange-correlation" >
   <i type="string" name="GGA">--</i>
   <i type="int" name="VOSKOWN">     0</i>
   <i type="logical" name="LHFCALC"> F  </i>
   <i type="string" name="PRECFOCK"></i>
   <i type="logical" name="LSYMGRAD"> F  </i>
   <i type="logical" name="LHFONE"> F  </i>
   <i type="logical" name="LRHFCALC"> F  </i>
   <i type="logical" name="LTHOMAS"> F  </i>
   <i type="logical" name="LMODELHF"> F  </i>
   <i type="logical" name="LFOCKACE"> F  </i>
   <i name="ENCUT4O">     -1.00000000</i>
   <i type="int" name="EXXOEP">     0</i>
   <i type="int" name="FOURORBIT">     0</i>
   <i name="AEXX">      0.00000000</i>
   <i name="HFALPHA">      0.00000000</i>
   <i name="MCALPHA">      0.00000000</i>
   <i name="ALDAX">      1.00000000</i>
   <i name="AGGAX">      1.00000000</i>
   <i name="ALDAC">      1.00000000</i>
   <i name="AGGAC">      1.00000000</i>
   <i type="int" name="NKREDX">     1</i>
   <i type="int" name="NKREDY">     1</i>
   <i type="int" name="NKREDZ">     1</i>
   <i type="logical" name="SHIFTRED"> F  </i>
   <i type="logical" name="ODDONLY"> F  </i>
   <i type="logical" name="EVENONLY"> F  </i>
   <i type="int" name="LMAXFOCK">     0</i>
   <i type="int" name="NMAXFOCKAE">     0</i>
   <i type="logical" name="LFOCKAEDFT"> F  </i>
   <i name="HFSCREEN">      0.00000000</i>
   <i name="HFSCREENC">      0.00000000</i>
   <i type="int" name="NBANDSGWLOW">     0</i>
  </separator>
  <separator name="vdW DFT" >
   <i type="logical" name="LUSE_VDW"> F  </i>
   <i name="Zab_VDW">     -0.84910000</i>
   <i name="PARAM1">      0.12340000</i>
   <i name="PARAM2">      1.00000000</i>
   <i name="PARAM3">      0.00000000</i>
  </separator>
  <separator name="model GW" >
   <i type="int" name="MODEL_GW">     0</i>
   <i name="MODEL_EPS0">     37.63423484</i>
   <i name="MODEL_ALPHA">      1.00000000</i>
  </separator>
  <separator name="linear response parameters" >
   <i type="logical" name="LEPSILON"> F  </i>
   <i type="logical" name="LRPA"> F  </i>
   <i type="logical" name="LNABLA"> F  </i>
   <i type="logical" name="LVEL"> F  </i>
   <i type="int" name="KINTER">     0</i>
   <i name="CSHIFT">      0.10000000</i>
   <i name="OMEGAMAX">     -1.00000000</i>
   <i name="DEG_THRESHOLD">      0.00200000</i>
   <i name="RTIME">     -0.10000000</i>
   <i name="WPLASMAI">      0.00000000</i>
   <v name="DFIELD">      0.00000000      0.00000000      0.00000000</v>
   <v name="WPLASMA">      0.00000000      0.00000000      0.00000000      0.00000000      0.00000000      0.00000000      0.00000000      0.00000000      0.00000000</v>
  </separator>
  <separator name="orbital magnetization" >
   <i type="logical" name="NUCIND"> F  </i>
   <v name="MAGPOS">      0.00000000      0.00000000      0.00000000</v>
   <i type="logical" name="LNICSALL"> T  </i>
   <i type="logical" name="ORBITALMAG"> F  </i>
   <i type="logical" name="LMAGBLOCH"> F  </i>
   <i type="logical" name="LCHIMAG"> F  </i>
   <i type="logical" name="LGAUGE"> T  </i>
   <i type="int" name="MAGATOM">     0</i>
   <v name="MAGDIPOL">      0.00000000      0.00000000      0.00000000</v>
   <v name="AVECCONST">      0.00000000      0.00000000      0.00000000</v>
  </separator>
  <separator name="response functions" >
   <i type="logical" name="LFINITE_TEMPERATURE"> F  </i>
   <i type="logical" name="LADDER"> F  </i>
   <i type="logical" name="LRPAFORCE"> F  </i>
   <i type="logical" name="LFXC"> F  </i>
   <i type="logical" name="LHARTREE"> T  </i>
   <i type="int" name="IBSE">     0</i>
   <v type="int" name="KPOINT">    -1     0     0     0</v>
   <i type="logical" name="LTCTC"> F  </i>
   <i type="logical" name="LTCTE"> F  </i>
   <i type="logical" name="LTETE"> F  </i>
   <i type="logical" name="LTRIPLET"> F  </i>
   <i type="logical" name="LFXCEPS"> F  </i>
   <i type="logical" name="LFXHEG"> F  </i>
   <i type="int" name="NATURALO">     2</i>
   <i type="logical" name="LHOLEGF"> F  </i>
   <i type="logical" name="L2ORDER"> F  </i>
   <i type="logical" name="LDMP1"> F  </i>
   <i type="logical" name="LMP2LT"> F  </i>
   <i type="logical" name="LSMP2LT"> F  </i>
   <i type="logical" name="LGWLF"> F  </i>
   <i name="ENCUTGW">     -2.00000000</i>
   <i name="ENCUTGWSOFT">     -2.00000000</i>
   <i name="ENCUTLF">     -1.00000000</i>
   <i type="logical" name="LESF_SPLINES"> F  </i>
   <i type="int" name="LMAXMP2">    -1</i>
   <i name="SCISSOR">      0.00000000</i>
   <i type="int" name="NOMEGA">     0</i>
   <i type="int" name="NOMEGAR">     0</i>
   <i type="int" name="NBANDSGW">    -1</i>
   <i type="int" name="NBANDSO">    -1</i>
   <i type="int" name="NBANDSV">    -1</i>
   <i type="int" name="NELM">   600</i>
   <i type="int" name="NELMHF">     1</i>
   <i type="int" name="DIM">     3</i>
   <i type="int" name="IESPILON">     4</i>
   <i type="int" name="ANTIRES">     0</i>
   <i name="OMEGAMAX">    -30.00000000</i>
   <i name="OMEGAMIN">    -30.00000000</i>
   <i name="OMEGATL">   -200.00000000</i>
   <i type="int" name="OMEGAGRID">     0</i>
   <i name="CSHIFT">     -0.10000000</i>
   <i type="logical" name="LSELFENERGY"> F  </i>
   <i type="logical" name="LSPECTRAL"> F  </i>
   <i type="logical" name="LSPECTRALGW"> F  </i>
   <i type="logical" name="LSINGLES"> F  </i>
   <i type="logical" name="LFERMIGW"> F  </i>
   <i type="logical" name="ODDONLYGW"> F  </i>
   <i type="logical" name="EVENONLYGW"> F  </i>
   <i type="int" name="NKREDLFX">     1</i>
   <i type="int" name="NKREDLFY">     1</i>
   <i type="int" name="NKREDLFZ">     1</i>
   <i type="int" name="MAXMEM">  2800</i>
   <i type="int" name="TELESCOPE">     0</i>
   <i type="int" name="NTAUPAR">    -1</i>
   <i type="int" name="NOMEGAPAR">    -1</i>
   <i name="DAMP_NEWTON">      0.80000001</i>
   <i name="LAMBDA">      1.00000000</i>
  </separator>
  <separator name="External order field" >
   <i name="OFIELD_KAPPA">      0.00000000</i>
   <v name="OFIELD_K">      0.00000000      0.00000000      0.00000000</v>
   <i name="OFIELD_Q6_NEAR">      0.00000000</i>
   <i name="OFIELD_Q6_FAR">      0.00000000</i>
   <i name="OFIELD_A">      0.00000000</i>
  </separator>
 </parameters>
 <atominfo>
  <atoms>     325 </atoms>
  <types>       5 </types>
  <array name="atoms" >
   <dimension dim="1">ion</dimension>
   <field type="string">element</field>
   <field type="int">atomtype</field>
   <set>
    <rc><c>H </c><c>   1</c></rc>
    <rc><c>H </c><c>   1</c></rc>
    <rc><c>H </c><c>   1</c></rc>
    <rc><c>H </c><c>   1</c></rc>
    <rc><c>H </c><c>   1</c></rc>
    <rc><c>H </c><c>   1</c></rc>
    <rc><c>H </c><c>   1</c></rc>
    <rc><c>H </c><c>   1</c></rc>
    <rc><c>H </c><c>   1</c></rc>
    <rc><c>H </c><c>   1</c></rc>
    <rc><c>H </c><c>   1</c></rc>
    <rc><c>H </c><c>   1</c></rc>
    <rc><c>H </c><c>   1</c></rc>
    <rc><c>H </c><c>   1</c></rc>
    <rc><c>H </c><c>   1</c></rc>
    <rc><c>H </c><c>   1</c></rc>
    <rc><c>H </c><c>   1</c></rc>
    <rc><c>H </c><c>   1</c></rc>
    <rc><c>H </c><c>   1</c></rc>
    <rc><c>H </c><c>   1</c></rc>
    <rc><c>H </c><c>   1</c></rc>
    <rc><c>H </c><c>   1</c></rc>
    <rc><c>H </c><c>   1</c></rc>
    <rc><c>H </c><c>   1</c></rc>
    <rc><c>H </c><c>   1</c></rc>
    <rc><c>H </c><c>   1</c></rc>
    <rc><c>H </c><c>   1</c></rc>
    <rc><c>H </c><c>   1</c></rc>
    <rc><c>H </c><c>   1</c></rc>
    <rc><c>H </c><c>   1</c></rc>
    <rc><c>H </c><c>   1</c></rc>
    <rc><c>H </c><c>   1</c></rc>
    <rc><c>H </c><c>   1</c></rc>
    <rc><c>H </c><c>   1</c></rc>
    <rc><c>H </c><c>   1</c></rc>
    <rc><c>H </c><c>   1</c></rc>
    <rc><c>H </c><c>   1</c></rc>
    <rc><c>H </c><c>   1</c></rc>
    <rc><c>H </c><c>   1</c></rc>
    <rc><c>H </c><c>   1</c></rc>
    <rc><c>H </c><c>   1</c></rc>
    <rc><c>H </c><c>   1</c></rc>
    <rc><c>H </c><c>   1</c></rc>
    <rc><c>H </c><c>   1</c></rc>
    <rc><c>H </c><c>   1</c></rc>
    <rc><c>H </c><c>   1</c></rc>
    <rc><c>H </c><c>   1</c></rc>
    <rc><c>H </c><c>   1</c></rc>
    <rc><c>H </c><c>   1</c></rc>
    <rc><c>H </c><c>   1</c></rc>
    <rc><c>H </c><c>   1</c></rc>
    <rc><c>H </c><c>   1</c></rc>
    <rc><c>H </c><c>   1</c></rc>
    <rc><c>H </c><c>   1</c></rc>
    <rc><c>H </c><c>   1</c></rc>
    <rc><c>H </c><c>   1</c></rc>
    <rc><c>H </c><c>   1</c></rc>
    <rc><c>H </c><c>   1</c></rc>
    <rc><c>H </c><c>   1</c></rc>
    <rc><c>H </c><c>   1</c></rc>
    <rc><c>H </c><c>   1</c></rc>
    <rc><c>H </c><c>   1</c></rc>
    <rc><c>H </c><c>   1</c></rc>
    <rc><c>H </c><c>   1</c></rc>
    <rc><c>H </c><c>   1</c></rc>
    <rc><c>H </c><c>   1</c></rc>
    <rc><c>H </c><c>   1</c></rc>
    <rc><c>H </c><c>   1</c></rc>
    <rc><c>H </c><c>   1</c></rc>
    <rc><c>H </c><c>   1</c></rc>
    <rc><c>H </c><c>   1</c></rc>
    <rc><c>H </c><c>   1</c></rc>
    <rc><c>H </c><c>   1</c></rc>
    <rc><c>H </c><c>   1</c></rc>
    <rc><c>H </c><c>   1</c></rc>
    <rc><c>H </c><c>   1</c></rc>
    <rc><c>H </c><c>   1</c></rc>
    <rc><c>H </c><c>   1</c></rc>
    <rc><c>H </c><c>   1</c></rc>
    <rc><c>H </c><c>   1</c></rc>
    <rc><c>H </c><c>   1</c></rc>
    <rc><c>H </c><c>   1</c></rc>
    <rc><c>H </c><c>   1</c></rc>
    <rc><c>H </c><c>   1</c></rc>
    <rc><c>H </c><c>   1</c></rc>
    <rc><c>H </c><c>   1</c></rc>
    <rc><c>H </c><c>   1</c></rc>
    <rc><c>H </c><c>   1</c></rc>
    <rc><c>H </c><c>   1</c></rc>
    <rc><c>H </c><c>   1</c></rc>
    <rc><c>H </c><c>   1</c></rc>
    <rc><c>H </c><c>   1</c></rc>
    <rc><c>H </c><c>   1</c></rc>
    <rc><c>H </c><c>   1</c></rc>
    <rc><c>H </c><c>   1</c></rc>
    <rc><c>H </c><c>   1</c></rc>
    <rc><c>H </c><c>   1</c></rc>
    <rc><c>H </c><c>   1</c></rc>
    <rc><c>H </c><c>   1</c></rc>
    <rc><c>H </c><c>   1</c></rc>
    <rc><c>H </c><c>   1</c></rc>
    <rc><c>H </c><c>   1</c></rc>
    <rc><c>H </c><c>   1</c></rc>
    <rc><c>H </c><c>   1</c></rc>
    <rc><c>H </c><c>   1</c></rc>
    <rc><c>H </c><c>   1</c></rc>
    <rc><c>H </c><c>   1</c></rc>
    <rc><c>H </c><c>   1</c></rc>
    <rc><c>H </c><c>   1</c></rc>
    <rc><c>H </c><c>   1</c></rc>
    <rc><c>H </c><c>   1</c></rc>
    <rc><c>H </c><c>   1</c></rc>
    <rc><c>H </c><c>   1</c></rc>
    <rc><c>H </c><c>   1</c></rc>
    <rc><c>H </c><c>   1</c></rc>
    <rc><c>H </c><c>   1</c></rc>
    <rc><c>H </c><c>   1</c></rc>
    <rc><c>H </c><c>   1</c></rc>
    <rc><c>H </c><c>   1</c></rc>
    <rc><c>H </c><c>   1</c></rc>
    <rc><c>H </c><c>   1</c></rc>
    <rc><c>H </c><c>   1</c></rc>
    <rc><c>H </c><c>   1</c></rc>
    <rc><c>H </c><c>   1</c></rc>
    <rc><c>H </c><c>   1</c></rc>
    <rc><c>H </c><c>   1</c></rc>
    <rc><c>H </c><c>   1</c></rc>
    <rc><c>H </c><c>   1</c></rc>
    <rc><c>H </c><c>   1</c></rc>
    <rc><c>H </c><c>   1</c></rc>
    <rc><c>H </c><c>   1</c></rc>
    <rc><c>H </c><c>   1</c></rc>
    <rc><c>H </c><c>   1</c></rc>
    <rc><c>H </c><c>   1</c></rc>
    <rc><c>H </c><c>   1</c></rc>
    <rc><c>H </c><c>   1</c></rc>
    <rc><c>H </c><c>   1</c></rc>
    <rc><c>H </c><c>   1</c></rc>
    <rc><c>H </c><c>   1</c></rc>
    <rc><c>H </c><c>   1</c></rc>
    <rc><c>H </c><c>   1</c></rc>
    <rc><c>H </c><c>   1</c></rc>
    <rc><c>H </c><c>   1</c></rc>
    <rc><c>C </c><c>   2</c></rc>
    <rc><c>C </c><c>   2</c></rc>
    <rc><c>C </c><c>   2</c></rc>
    <rc><c>C </c><c>   2</c></rc>
    <rc><c>C </c><c>   2</c></rc>
    <rc><c>C </c><c>   2</c></rc>
    <rc><c>C </c><c>   2</c></rc>
    <rc><c>C </c><c>   2</c></rc>
    <rc><c>C </c><c>   2</c></rc>
    <rc><c>C </c><c>   2</c></rc>
    <rc><c>C </c><c>   2</c></rc>
    <rc><c>C </c><c>   2</c></rc>
    <rc><c>C </c><c>   2</c></rc>
    <rc><c>C </c><c>   2</c></rc>
    <rc><c>C </c><c>   2</c></rc>
    <rc><c>C </c><c>   2</c></rc>
    <rc><c>C </c><c>   2</c></rc>
    <rc><c>C </c><c>   2</c></rc>
    <rc><c>C </c><c>   2</c></rc>
    <rc><c>C </c><c>   2</c></rc>
    <rc><c>C </c><c>   2</c></rc>
    <rc><c>C </c><c>   2</c></rc>
    <rc><c>C </c><c>   2</c></rc>
    <rc><c>C </c><c>   2</c></rc>
    <rc><c>C </c><c>   2</c></rc>
    <rc><c>C </c><c>   2</c></rc>
    <rc><c>C </c><c>   2</c></rc>
    <rc><c>C </c><c>   2</c></rc>
    <rc><c>C </c><c>   2</c></rc>
    <rc><c>C </c><c>   2</c></rc>
    <rc><c>C </c><c>   2</c></rc>
    <rc><c>C </c><c>   2</c></rc>
    <rc><c>C </c><c>   2</c></rc>
    <rc><c>C </c><c>   2</c></rc>
    <rc><c>C </c><c>   2</c></rc>
    <rc><c>C </c><c>   2</c></rc>
    <rc><c>C </c><c>   2</c></rc>
    <rc><c>C </c><c>   2</c></rc>
    <rc><c>C </c><c>   2</c></rc>
    <rc><c>N </c><c>   3</c></rc>
    <rc><c>N </c><c>   3</c></rc>
    <rc><c>N </c><c>   3</c></rc>
    <rc><c>N </c><c>   3</c></rc>
    <rc><c>N </c><c>   3</c></rc>
    <rc><c>N </c><c>   3</c></rc>
    <rc><c>N </c><c>   3</c></rc>
    <rc><c>N </c><c>   3</c></rc>
    <rc><c>N </c><c>   3</c></rc>
    <rc><c>N </c><c>   3</c></rc>
    <rc><c>N </c><c>   3</c></rc>
    <rc><c>N </c><c>   3</c></rc>
    <rc><c>N </c><c>   3</c></rc>
    <rc><c>N </c><c>   3</c></rc>
    <rc><c>N </c><c>   3</c></rc>
    <rc><c>N </c><c>   3</c></rc>
    <rc><c>N </c><c>   3</c></rc>
    <rc><c>N </c><c>   3</c></rc>
    <rc><c>N </c><c>   3</c></rc>
    <rc><c>N </c><c>   3</c></rc>
    <rc><c>N </c><c>   3</c></rc>
    <rc><c>N </c><c>   3</c></rc>
    <rc><c>N </c><c>   3</c></rc>
    <rc><c>N </c><c>   3</c></rc>
    <rc><c>N </c><c>   3</c></rc>
    <rc><c>N </c><c>   3</c></rc>
    <rc><c>N </c><c>   3</c></rc>
    <rc><c>N </c><c>   3</c></rc>
    <rc><c>N </c><c>   3</c></rc>
    <rc><c>N </c><c>   3</c></rc>
    <rc><c>N </c><c>   3</c></rc>
    <rc><c>N </c><c>   3</c></rc>
    <rc><c>N </c><c>   3</c></rc>
    <rc><c>N </c><c>   3</c></rc>
    <rc><c>N </c><c>   3</c></rc>
    <rc><c>N </c><c>   3</c></rc>
    <rc><c>N </c><c>   3</c></rc>
    <rc><c>N </c><c>   3</c></rc>
    <rc><c>N </c><c>   3</c></rc>
    <rc><c>N </c><c>   3</c></rc>
    <rc><c>N </c><c>   3</c></rc>
    <rc><c>N </c><c>   3</c></rc>
    <rc><c>N </c><c>   3</c></rc>
    <rc><c>N </c><c>   3</c></rc>
    <rc><c>N </c><c>   3</c></rc>
    <rc><c>N </c><c>   3</c></rc>
    <rc><c>N </c><c>   3</c></rc>
    <rc><c>I </c><c>   4</c></rc>
    <rc><c>I </c><c>   4</c></rc>
    <rc><c>I </c><c>   4</c></rc>
    <rc><c>I </c><c>   4</c></rc>
    <rc><c>I </c><c>   4</c></rc>
    <rc><c>I </c><c>   4</c></rc>
    <rc><c>I </c><c>   4</c></rc>
    <rc><c>I </c><c>   4</c></rc>
    <rc><c>I </c><c>   4</c></rc>
    <rc><c>I </c><c>   4</c></rc>
    <rc><c>I </c><c>   4</c></rc>
    <rc><c>I </c><c>   4</c></rc>
    <rc><c>I </c><c>   4</c></rc>
    <rc><c>I </c><c>   4</c></rc>
    <rc><c>I </c><c>   4</c></rc>
    <rc><c>I </c><c>   4</c></rc>
    <rc><c>I </c><c>   4</c></rc>
    <rc><c>I </c><c>   4</c></rc>
    <rc><c>I </c><c>   4</c></rc>
    <rc><c>I </c><c>   4</c></rc>
    <rc><c>I </c><c>   4</c></rc>
    <rc><c>I </c><c>   4</c></rc>
    <rc><c>I </c><c>   4</c></rc>
    <rc><c>I </c><c>   4</c></rc>
    <rc><c>I </c><c>   4</c></rc>
    <rc><c>I </c><c>   4</c></rc>
    <rc><c>I </c><c>   4</c></rc>
    <rc><c>I </c><c>   4</c></rc>
    <rc><c>I </c><c>   4</c></rc>
    <rc><c>I </c><c>   4</c></rc>
    <rc><c>I </c><c>   4</c></rc>
    <rc><c>I </c><c>   4</c></rc>
    <rc><c>I </c><c>   4</c></rc>
    <rc><c>I </c><c>   4</c></rc>
    <rc><c>I </c><c>   4</c></rc>
    <rc><c>I </c><c>   4</c></rc>
    <rc><c>I </c><c>   4</c></rc>
    <rc><c>I </c><c>   4</c></rc>
    <rc><c>I </c><c>   4</c></rc>
    <rc><c>I </c><c>   4</c></rc>
    <rc><c>I </c><c>   4</c></rc>
    <rc><c>I </c><c>   4</c></rc>
    <rc><c>I </c><c>   4</c></rc>
    <rc><c>I </c><c>   4</c></rc>
    <rc><c>I </c><c>   4</c></rc>
    <rc><c>I </c><c>   4</c></rc>
    <rc><c>I </c><c>   4</c></rc>
    <rc><c>I </c><c>   4</c></rc>
    <rc><c>I </c><c>   4</c></rc>
    <rc><c>I </c><c>   4</c></rc>
    <rc><c>I </c><c>   4</c></rc>
    <rc><c>I </c><c>   4</c></rc>
    <rc><c>I </c><c>   4</c></rc>
    <rc><c>I </c><c>   4</c></rc>
    <rc><c>I </c><c>   4</c></rc>
    <rc><c>I </c><c>   4</c></rc>
    <rc><c>I </c><c>   4</c></rc>
    <rc><c>I </c><c>   4</c></rc>
    <rc><c>I </c><c>   4</c></rc>
    <rc><c>I </c><c>   4</c></rc>
    <rc><c>I </c><c>   4</c></rc>
    <rc><c>I </c><c>   4</c></rc>
    <rc><c>I </c><c>   4</c></rc>
    <rc><c>I </c><c>   4</c></rc>
    <rc><c>I </c><c>   4</c></rc>
    <rc><c>I </c><c>   4</c></rc>
    <rc><c>I </c><c>   4</c></rc>
    <rc><c>I </c><c>   4</c></rc>
    <rc><c>I </c><c>   4</c></rc>
    <rc><c>I </c><c>   4</c></rc>
    <rc><c>I </c><c>   4</c></rc>
    <rc><c>I </c><c>   4</c></rc>
    <rc><c>Pb</c><c>   5</c></rc>
    <rc><c>Pb</c><c>   5</c></rc>
    <rc><c>Pb</c><c>   5</c></rc>
    <rc><c>Pb</c><c>   5</c></rc>
    <rc><c>Pb</c><c>   5</c></rc>
    <rc><c>Pb</c><c>   5</c></rc>
    <rc><c>Pb</c><c>   5</c></rc>
    <rc><c>Pb</c><c>   5</c></rc>
    <rc><c>Pb</c><c>   5</c></rc>
    <rc><c>Pb</c><c>   5</c></rc>
    <rc><c>Pb</c><c>   5</c></rc>
    <rc><c>Pb</c><c>   5</c></rc>
    <rc><c>Pb</c><c>   5</c></rc>
    <rc><c>Pb</c><c>   5</c></rc>
    <rc><c>Pb</c><c>   5</c></rc>
    <rc><c>Pb</c><c>   5</c></rc>
    <rc><c>Pb</c><c>   5</c></rc>
    <rc><c>Pb</c><c>   5</c></rc>
    <rc><c>Pb</c><c>   5</c></rc>
    <rc><c>Pb</c><c>   5</c></rc>
    <rc><c>Pb</c><c>   5</c></rc>
    <rc><c>Pb</c><c>   5</c></rc>
    <rc><c>Pb</c><c>   5</c></rc>
    <rc><c>Pb</c><c>   5</c></rc>
   </set>
  </array>
  <array name="atomtypes" >
   <dimension dim="1">type</dimension>
   <field type="int">atomspertype</field>
   <field type="string">element</field>
   <field>mass</field>
   <field>valence</field>
   <field type="string">pseudopotential</field>
   <set>
    <rc><c> 143</c><c>H </c><c>      1.00000000</c><c>      1.00000000</c><c>  PAW_PBE H 15Jun2001                   </c></rc>
    <rc><c>  39</c><c>C </c><c>     12.01100000</c><c>      4.00000000</c><c>  PAW_PBE C 08Apr2002                   </c></rc>
    <rc><c>  47</c><c>N </c><c>     14.00100000</c><c>      5.00000000</c><c>  PAW_PBE N 08Apr2002                   </c></rc>
    <rc><c>  72</c><c>I </c><c>    126.90400000</c><c>      7.00000000</c><c>  PAW_PBE I 08Apr2002                   </c></rc>
    <rc><c>  24</c><c>Pb</c><c>    207.20000000</c><c>      4.00000000</c><c>  PAW_PBE Pb 08Apr2002                  </c></rc>
   </set>
  </array>
 </atominfo>
 <structure name="initialpos" >
  <crystal>
   <varray name="basis" >
    <v>      18.06080055       0.00000000       0.00000000 </v>
    <v>      -0.00491865      18.06279945       0.00000000 </v>
    <v>       0.00000000       0.00000000      62.48749924 </v>
   </varray>
   <i name="volume">  20385.21054034 </i>
   <varray name="rec_basis" >
    <v>       0.05536853       0.00001508      -0.00000000 </v>
    <v>       0.00000000       0.05536240       0.00000000 </v>
    <v>       0.00000000      -0.00000000       0.01600320 </v>
   </varray>
  </crystal>
  <varray name="positions" >
   <v>       0.46773389       0.33902672       0.56416484 </v>
   <v>       0.43943243       0.82481163       0.57469038 </v>
   <v>       0.92356460       0.27399046       0.57796820 </v>
   <v>       0.93656902       0.81829623       0.57273980 </v>
   <v>       0.32012840       0.07885452       0.57024455 </v>
   <v>       0.34807720       0.54260146       0.55714018 </v>
   <v>       0.80528466       0.09211562       0.56654483 </v>
   <v>       0.10821282       0.25042148       0.55673342 </v>
   <v>       0.07500920       0.67422513       0.57650483 </v>
   <v>       0.54841785       0.15436757       0.56091267 </v>
   <v>       0.50417800       0.64399174       0.55739701 </v>
   <v>       0.37450769       0.01558838       0.55636775 </v>
   <v>       0.29666982       0.62399921       0.55197991 </v>
   <v>       0.87673112       0.03332837       0.55717119 </v>
   <v>       0.05882893       0.27791708       0.57919647 </v>
   <v>       0.98685209       0.69707160       0.58559460 </v>
   <v>       0.57192826       0.24570596       0.56753850 </v>
   <v>       0.44877069       0.68717113       0.57613629 </v>
   <v>       0.27177736       0.43707638       0.57236900 </v>
   <v>       0.18641086       0.05841322       0.57198800 </v>
   <v>       0.68398025       0.03168752       0.57478953 </v>
   <v>       0.38285735       0.30067479       0.55577254 </v>
   <v>       0.49718710       0.86958946       0.55649583 </v>
   <v>       0.88110360       0.23818889       0.55518996 </v>
   <v>       0.98972874       0.86739324       0.55432401 </v>
   <v>       0.17553516       0.44710520       0.56961601 </v>
   <v>       0.15039057       0.98088474       0.55920059 </v>
   <v>       0.67935508       0.93666958       0.56813451 </v>
   <v>       0.42882320       0.18411425       0.55193266 </v>
   <v>       0.54474014       0.75814587       0.54276444 </v>
   <v>       0.99752641       0.22118183       0.53782296 </v>
   <v>       0.08378717       0.77782003       0.55418445 </v>
   <v>       0.18281159       0.56537850       0.55661066 </v>
   <v>       0.26910106       0.94108788       0.54786269 </v>
   <v>       0.79869142       0.93011483       0.55655718 </v>
   <v>       0.44595794       0.30108679       0.67241599 </v>
   <v>       0.44988211       0.80800474       0.67350794 </v>
   <v>       0.94313162       0.28128282       0.67446712 </v>
   <v>       0.92181988       0.73297984       0.66931649 </v>
   <v>       0.30153184       0.05288341       0.67257166 </v>
   <v>       0.29462561       0.55833708       0.67432335 </v>
   <v>       0.80448924       0.05418543       0.67491618 </v>
   <v>       0.84265577       0.47015314       0.66278766 </v>
   <v>       0.08869282       0.17058954       0.64866191 </v>
   <v>       0.11357760       0.71389627       0.65276020 </v>
   <v>       0.57978316       0.16989777       0.64973439 </v>
   <v>       0.56984775       0.66858000       0.64830209 </v>
   <v>       0.18521979       0.41144431       0.64831253 </v>
   <v>       0.16868994       0.92472271       0.64754291 </v>
   <v>       0.64212776       0.47402295       0.65586989 </v>
   <v>       0.67467225       0.92078177       0.65097469 </v>
   <v>       0.05242522       0.18627874       0.67399180 </v>
   <v>       0.04505585       0.66926442       0.66751071 </v>
   <v>       0.54856832       0.20102391       0.67448372 </v>
   <v>       0.54447477       0.69832253       0.67370360 </v>
   <v>       0.20231088       0.44701919       0.67376788 </v>
   <v>       0.19714600       0.95139663       0.67297903 </v>
   <v>       0.71331471       0.41590226       0.66415670 </v>
   <v>       0.70219126       0.95148309       0.67608951 </v>
   <v>       0.41938125       0.32395984       0.64660009 </v>
   <v>       0.42417083       0.83652237       0.64787885 </v>
   <v>       0.92305705       0.31837366       0.64954367 </v>
   <v>       0.91397182       0.81505181       0.65522883 </v>
   <v>       0.32910460       0.07883474       0.64696284 </v>
   <v>       0.32470174       0.58575693       0.64903600 </v>
   <v>       0.82998759       0.07953583       0.64892252 </v>
   <v>       0.84990073       0.55737500       0.65113237 </v>
   <v>       0.01202777       0.25277280       0.63161760 </v>
   <v>       0.03601102       0.81184699       0.64306691 </v>
   <v>       0.50146808       0.24442303       0.63018500 </v>
   <v>       0.49599595       0.75166764       0.63043695 </v>
   <v>       0.24773987       0.00104801       0.62958662 </v>
   <v>       0.26119106       0.49414104       0.63105542 </v>
   <v>       0.75205919       0.99801859       0.63224523 </v>
   <v>       0.72295602       0.57049460       0.64629534 </v>
   <v>       0.44874502       0.30128397       0.76888902 </v>
   <v>       0.44874501       0.80128391       0.76888902 </v>
   <v>       0.94874497       0.30128397       0.76888902 </v>
   <v>       0.94874501       0.80128391       0.76888902 </v>
   <v>       0.30127600       0.05129450       0.76887296 </v>
   <v>       0.30127601       0.55129450       0.76887296 </v>
   <v>       0.80127594       0.05129450       0.76887296 </v>
   <v>       0.80127598       0.55129450       0.76887296 </v>
   <v>       0.07877100       0.17118050       0.74344197 </v>
   <v>       0.07877101       0.67118045       0.74344197 </v>
   <v>       0.57877100       0.17118050       0.74344197 </v>
   <v>       0.57877099       0.67118045       0.74344197 </v>
   <v>       0.17119950       0.42117448       0.74342103 </v>
   <v>       0.17119950       0.92117451       0.74342103 </v>
   <v>       0.67119951       0.42117448       0.74342103 </v>
   <v>       0.67119950       0.92117451       0.74342103 </v>
   <v>       0.05125600       0.19871499       0.76888902 </v>
   <v>       0.05125600       0.69871493       0.76888902 </v>
   <v>       0.55125603       0.19871499       0.76888902 </v>
   <v>       0.55125602       0.69871493       0.76888902 </v>
   <v>       0.19872349       0.44870397       0.76887205 </v>
   <v>       0.19872349       0.94870397       0.76887205 </v>
   <v>       0.69872352       0.44870397       0.76887205 </v>
   <v>       0.69872351       0.94870397       0.76887205 </v>
   <v>       0.42123152       0.32881747       0.74344197 </v>
   <v>       0.42123151       0.82881744       0.74344197 </v>
   <v>       0.92123147       0.32881747       0.74344197 </v>
   <v>       0.92123151       0.82881744       0.74344197 </v>
   <v>       0.32880050       0.07882500       0.74342103 </v>
   <v>       0.32880049       0.57882496       0.74342103 </v>
   <v>       0.82880048       0.07882500       0.74342103 </v>
   <v>       0.82880052       0.57882496       0.74342103 </v>
   <v>       0.00000350       0.25000148       0.72582199 </v>
   <v>       0.00000350       0.75000145       0.72582199 </v>
   <v>       0.50000351       0.25000148       0.72582199 </v>
   <v>       0.50000350       0.75000145       0.72582199 </v>
   <v>       0.25000050       0.00000000       0.72580398 </v>
   <v>       0.25000052       0.50000000       0.72580398 </v>
   <v>       0.75000050       0.00000000       0.72580398 </v>
   <v>       0.75000049       0.50000000       0.72580398 </v>
   <v>       0.72036741       0.44360809       0.53961916 </v>
   <v>       0.74011799       0.49513902       0.51642751 </v>
   <v>       0.66236035       0.55203393       0.55668617 </v>
   <v>       0.70887822       0.63811652       0.55539923 </v>
   <v>       0.85198009       0.50872783       0.56736244 </v>
   <v>       0.79211633       0.57813321       0.57728880 </v>
   <v>       0.87686223       0.56030385       0.53105745 </v>
   <v>       0.80741916       0.62190229       0.52143053 </v>
   <v>       0.87315157       0.46107394       0.51794362 </v>
   <v>       0.86176969       0.42433041       0.54374474 </v>
   <v>       0.87250441       0.32591584       0.51839806 </v>
   <v>       0.78397973       0.32355507       0.53004748 </v>
   <v>       0.63820677       0.55135949       0.51822713 </v>
   <v>       0.69333746       0.63255338       0.51416552 </v>
   <v>       0.61121413       0.63706294       0.52931186 </v>
   <v>       0.76091736       0.46608233       0.59557389 </v>
   <v>       0.75441772       0.41236856       0.57208250 </v>
   <v>       0.68688040       0.48176594       0.57796429 </v>
   <v>       0.81855824       0.69138470       0.55760884 </v>
   <v>       0.89696246       0.69189769       0.54081886 </v>
   <v>       0.89625301       0.63222805       0.56334736 </v>
   <v>       0.82041801       0.38124960       0.48469497 </v>
   <v>       0.78660256       0.29225134       0.49138063 </v>
   <v>       0.66235316       0.30344558       0.51785266 </v>
   <v>       0.73286074       0.46226480       0.47084784 </v>
   <v>       0.53539178       0.35459360       0.51673549 </v>
   <v>       0.60480934       0.51303755       0.46916763 </v>
   <v>       0.50607677       0.46120467       0.49262273 </v>
   <v>       0.99473391       0.24201179       0.55422853 </v>
   <v>       0.03322759       0.76900239       0.56357928 </v>
   <v>       0.46619535       0.22809386       0.55718377 </v>
   <v>       0.50307206       0.75735432       0.55549557 </v>
   <v>       0.23457958       0.53527040       0.55972224 </v>
   <v>       0.26270317       0.99306600       0.55676541 </v>
   <v>       0.77774901       0.98365760       0.56229093 </v>
   <v>       0.00592030       0.24492215       0.64873840 </v>
   <v>       0.01461774       0.76719006       0.65328966 </v>
   <v>       0.49974444       0.24725338       0.64758466 </v>
   <v>       0.49640518       0.75227460       0.64784119 </v>
   <v>       0.25607541       0.49779707       0.64844256 </v>
   <v>       0.24904459       0.00172075       0.64701692 </v>
   <v>       0.74468433       0.51897196       0.65320163 </v>
   <v>       0.75274667       0.00023416       0.64970099 </v>
   <v>       0.49998898       0.24999498       0.74327702 </v>
   <v>       0.49998903       0.74999496       0.74327702 </v>
   <v>       0.99998898       0.24999498       0.74327702 </v>
   <v>       0.99998903       0.74999496       0.74327702 </v>
   <v>       0.25000050       0.00000100       0.74325596 </v>
   <v>       0.25000052       0.50000100       0.74325596 </v>
   <v>       0.75000050       0.00000100       0.74325596 </v>
   <v>       0.75000049       0.50000100       0.74325596 </v>
   <v>       0.70690762       0.37938476       0.49463317 </v>
   <v>       0.64999949       0.34932362       0.50720435 </v>
   <v>       0.68934560       0.43819382       0.48086452 </v>
   <v>       0.57862104       0.37805803       0.50656158 </v>
   <v>       0.61714484       0.46694447       0.47999933 </v>
   <v>       0.56185077       0.43749541       0.49295117 </v>
   <v>       0.76297250       0.47702513       0.53168551 </v>
   <v>       0.69815018       0.58656373       0.54666494 </v>
   <v>       0.79388286       0.52632092       0.56813677 </v>
   <v>       0.83124305       0.59665190       0.53580877 </v>
   <v>       0.83348693       0.43201517       0.52833419 </v>
   <v>       0.81896590       0.35504174       0.51888613 </v>
   <v>       0.65930206       0.60198864       0.52570756 </v>
   <v>       0.74573247       0.46812967       0.57859735 </v>
   <v>       0.86171764       0.65589953       0.55067075 </v>
   <v>       0.78537072       0.35104409       0.49636405 </v>
   <v>       0.05751684       0.25612757       0.56402486 </v>
   <v>       0.03034000       0.70896444       0.57540507 </v>
   <v>       0.53422264       0.20911352       0.56176483 </v>
   <v>       0.48338512       0.69263062       0.56318351 </v>
   <v>       0.43862080       0.29523752       0.55833580 </v>
   <v>       0.47613488       0.82063617       0.56206548 </v>
   <v>       0.92934108       0.25064572       0.56302063 </v>
   <v>       0.97955963       0.81815764       0.56209662 </v>
   <v>       0.22766531       0.46637246       0.56642304 </v>
   <v>       0.19586895       0.01209564       0.56294621 </v>
   <v>       0.70796295       0.98542034       0.56829854 </v>
   <v>       0.32228008       0.03225947       0.56094520 </v>
   <v>       0.29778069       0.56868147       0.55588023 </v>
   <v>       0.82298011       0.04048689       0.56242481 </v>
   <v>       0.05093094       0.19738355       0.65798207 </v>
   <v>       0.05990071       0.71199450       0.65771938 </v>
   <v>       0.54566432       0.20387813       0.65819317 </v>
   <v>       0.53855298       0.70323451       0.65751329 </v>
   <v>       0.21274942       0.44885064       0.65770388 </v>
   <v>       0.20222209       0.95698100       0.65673353 </v>
   <v>       0.69771362       0.46625583       0.65814574 </v>
   <v>       0.70790545       0.95460293       0.65982820 </v>
   <v>       0.45274880       0.29336811       0.65625223 </v>
   <v>       0.45452005       0.80177551       0.65727251 </v>
   <v>       0.95470988       0.28418847       0.65852692 </v>
   <v>       0.94596991       0.77194164       0.65989499 </v>
   <v>       0.29596150       0.04653753       0.65626688 </v>
   <v>       0.29390036       0.54994040       0.65812767 </v>
   <v>       0.79745658       0.04788733       0.65865841 </v>
   <v>       0.81679255       0.51477998       0.65590933 </v>
   <v>       0.04586250       0.20411950       0.75272599 </v>
   <v>       0.04586250       0.70411946       0.75272599 </v>
   <v>       0.54586251       0.20411950       0.75272599 </v>
   <v>       0.54586250       0.70411946       0.75272599 </v>
   <v>       0.20411900       0.45410100       0.75270499 </v>
   <v>       0.20411899       0.95410095       0.75270499 </v>
   <v>       0.70411898       0.45410100       0.75270499 </v>
   <v>       0.70411896       0.95410095       0.75270499 </v>
   <v>       0.45414002       0.29588849       0.75272697 </v>
   <v>       0.45414001       0.79588852       0.75272697 </v>
   <v>       0.95414002       0.29588849       0.75272697 </v>
[...]
   <v>       0.54841785       0.15436757       0.56091267 </v>
   <v>       0.50417800       0.64399174       0.55739701 </v>
   <v>       0.37450769       0.01558838       0.55636775 </v>
   <v>       0.29666982       0.62399921       0.55197991 </v>
   <v>       0.87673112       0.03332837       0.55717119 </v>
   <v>       0.05882893       0.27791708       0.57919647 </v>
   <v>       0.98685209       0.69707160       0.58559460 </v>
   <v>       0.57192826       0.24570596       0.56753850 </v>
   <v>       0.44877069       0.68717113       0.57613629 </v>
   <v>       0.27177736       0.43707638       0.57236900 </v>
   <v>       0.18641086       0.05841322       0.57198800 </v>
   <v>       0.68398025       0.03168752       0.57478953 </v>
   <v>       0.38285735       0.30067479       0.55577254 </v>
   <v>       0.49718710       0.86958946       0.55649583 </v>
   <v>       0.88110360       0.23818889       0.55518996 </v>
   <v>       0.98972874       0.86739324       0.55432401 </v>
   <v>       0.17553516       0.44710520       0.56961601 </v>
   <v>       0.15039057       0.98088474       0.55920059 </v>
   <v>       0.67935508       0.93666958       0.56813451 </v>
   <v>       0.42882320       0.18411425       0.55193266 </v>
   <v>       0.54474014       0.75814587       0.54276444 </v>
   <v>       0.99752641       0.22118183       0.53782296 </v>
   <v>       0.08378717       0.77782003       0.55418445 </v>
   <v>       0.18281159       0.56537850       0.55661066 </v>
   <v>       0.26910106       0.94108788       0.54786269 </v>
   <v>       0.79869142       0.93011483       0.55655718 </v>
   <v>       0.44595794       0.30108679       0.67241599 </v>
   <v>       0.44988211       0.80800474       0.67350794 </v>
   <v>       0.94313162       0.28128282       0.67446712 </v>
   <v>       0.92181988       0.73297984       0.66931649 </v>
   <v>       0.30153184       0.05288341       0.67257166 </v>
   <v>       0.29462561       0.55833708       0.67432335 </v>
   <v>       0.80448924       0.05418543       0.67491618 </v>
   <v>       0.84265577       0.47015314       0.66278766 </v>
   <v>       0.08869282       0.17058954       0.64866191 </v>
   <v>       0.11357760       0.71389627       0.65276020 </v>
   <v>       0.57978316       0.16989777       0.64973439 </v>
   <v>       0.56984775       0.66858000       0.64830209 </v>
   <v>       0.18521979       0.41144431       0.64831253 </v>
   <v>       0.16868994       0.92472271       0.64754291 </v>
   <v>       0.64212776       0.47402295       0.65586989 </v>
   <v>       0.67467225       0.92078177       0.65097469 </v>
   <v>       0.05242522       0.18627874       0.67399180 </v>
   <v>       0.04505585       0.66926442       0.66751071 </v>
   <v>       0.54856832       0.20102391       0.67448372 </v>
   <v>       0.54447477       0.69832253       0.67370360 </v>
   <v>       0.20231088       0.44701919       0.67376788 </v>
   <v>       0.19714600       0.95139663       0.67297903 </v>
   <v>       0.71331471       0.41590226       0.66415670 </v>
   <v>       0.70219126       0.95148309       0.67608951 </v>
   <v>       0.41938125       0.32395984       0.64660009 </v>
   <v>       0.42417083       0.83652237       0.64787885 </v>
   <v>       0.92305705       0.31837366       0.64954367 </v>
   <v>       0.91397182       0.81505181       0.65522883 </v>
   <v>       0.32910460       0.07883474       0.64696284 </v>
   <v>       0.32470174       0.58575693       0.64903600 </v>
   <v>       0.82998759       0.07953583       0.64892252 </v>
   <v>       0.84990073       0.55737500       0.65113237 </v>
   <v>       0.01202777       0.25277280       0.63161760 </v>
   <v>       0.03601102       0.81184699       0.64306691 </v>
   <v>       0.50146808       0.24442303       0.63018500 </v>
   <v>       0.49599595       0.75166764       0.63043695 </v>
   <v>       0.24773987       0.00104801       0.62958662 </v>
   <v>       0.26119106       0.49414104       0.63105542 </v>
   <v>       0.75205919       0.99801859       0.63224523 </v>
   <v>       0.72295602       0.57049460       0.64629534 </v>
   <v>       0.44874502       0.30128397       0.76888902 </v>
   <v>       0.44874501       0.80128391       0.76888902 </v>
   <v>       0.94874497       0.30128397       0.76888902 </v>
   <v>       0.94874501       0.80128391       0.76888902 </v>
   <v>       0.30127600       0.05129450       0.76887296 </v>
   <v>       0.30127601       0.55129450       0.76887296 </v>
   <v>       0.80127594       0.05129450       0.76887296 </v>
   <v>       0.80127598       0.55129450       0.76887296 </v>
   <v>       0.07877100       0.17118050       0.74344197 </v>
   <v>       0.07877101       0.67118045       0.74344197 </v>
   <v>       0.57877100       0.17118050       0.74344197 </v>
   <v>       0.57877099       0.67118045       0.74344197 </v>
   <v>       0.17119950       0.42117448       0.74342103 </v>
   <v>       0.17119950       0.92117451       0.74342103 </v>
   <v>       0.67119951       0.42117448       0.74342103 </v>
   <v>       0.67119950       0.92117451       0.74342103 </v>
   <v>       0.05125600       0.19871499       0.76888902 </v>
   <v>       0.05125600       0.69871493       0.76888902 </v>
   <v>       0.55125603       0.19871499       0.76888902 </v>
   <v>       0.55125602       0.69871493       0.76888902 </v>
   <v>       0.19872349       0.44870397       0.76887205 </v>
   <v>       0.19872349       0.94870397       0.76887205 </v>
   <v>       0.69872352       0.44870397       0.76887205 </v>
   <v>       0.69872351       0.94870397       0.76887205 </v>
   <v>       0.42123152       0.32881747       0.74344197 </v>
   <v>       0.42123151       0.82881744       0.74344197 </v>
   <v>       0.92123147       0.32881747       0.74344197 </v>
   <v>       0.92123151       0.82881744       0.74344197 </v>
   <v>       0.32880050       0.07882500       0.74342103 </v>
   <v>       0.32880049       0.57882496       0.74342103 </v>
   <v>       0.82880048       0.07882500       0.74342103 </v>
   <v>       0.82880052       0.57882496       0.74342103 </v>
   <v>       0.00000350       0.25000148       0.72582199 </v>
   <v>       0.00000350       0.75000145       0.72582199 </v>
   <v>       0.50000351       0.25000148       0.72582199 </v>
   <v>       0.50000350       0.75000145       0.72582199 </v>
   <v>       0.25000050       0.00000000       0.72580398 </v>
   <v>       0.25000052       0.50000000       0.72580398 </v>
   <v>       0.75000050       0.00000000       0.72580398 </v>
   <v>       0.75000049       0.50000000       0.72580398 </v>
   <v>       0.72036741       0.44360809       0.53961916 </v>
   <v>       0.74011799       0.49513902       0.51642751 </v>
   <v>       0.66236035       0.55203393       0.55668617 </v>
   <v>       0.70887822       0.63811652       0.55539923 </v>
   <v>       0.85198009       0.50872783       0.56736244 </v>
   <v>       0.79211633       0.57813321       0.57728880 </v>
   <v>       0.87686223       0.56030385       0.53105745 </v>
   <v>       0.80741916       0.62190229       0.52143053 </v>
   <v>       0.87315157       0.46107394       0.51794362 </v>
   <v>       0.86176969       0.42433041       0.54374474 </v>
   <v>       0.87250441       0.32591584       0.51839806 </v>
   <v>       0.78397973       0.32355507       0.53004748 </v>
   <v>       0.63820677       0.55135949       0.51822713 </v>
   <v>       0.69333746       0.63255338       0.51416552 </v>
   <v>       0.61121413       0.63706294       0.52931186 </v>
   <v>       0.76091736       0.46608233       0.59557389 </v>
   <v>       0.75441772       0.41236856       0.57208250 </v>
   <v>       0.68688040       0.48176594       0.57796429 </v>
   <v>       0.81855824       0.69138470       0.55760884 </v>
   <v>       0.89696246       0.69189769       0.54081886 </v>
   <v>       0.89625301       0.63222805       0.56334736 </v>
   <v>       0.82041801       0.38124960       0.48469497 </v>
   <v>       0.78660256       0.29225134       0.49138063 </v>
   <v>       0.66235316       0.30344558       0.51785266 </v>
   <v>       0.73286074       0.46226480       0.47084784 </v>
   <v>       0.53539178       0.35459360       0.51673549 </v>
   <v>       0.60480934       0.51303755       0.46916763 </v>
   <v>       0.50607677       0.46120467       0.49262273 </v>
   <v>       0.99473391       0.24201179       0.55422853 </v>
   <v>       0.03322759       0.76900239       0.56357928 </v>
   <v>       0.46619535       0.22809386       0.55718377 </v>
   <v>       0.50307206       0.75735432       0.55549557 </v>
   <v>       0.23457958       0.53527040       0.55972224 </v>
   <v>       0.26270317       0.99306600       0.55676541 </v>
   <v>       0.77774901       0.98365760       0.56229093 </v>
   <v>       0.00592030       0.24492215       0.64873840 </v>
   <v>       0.01461774       0.76719006       0.65328966 </v>
   <v>       0.49974444       0.24725338       0.64758466 </v>
   <v>       0.49640518       0.75227460       0.64784119 </v>
   <v>       0.25607541       0.49779707       0.64844256 </v>
   <v>       0.24904459       0.00172075       0.64701692 </v>
   <v>       0.74468433       0.51897196       0.65320163 </v>
   <v>       0.75274667       0.00023416       0.64970099 </v>
   <v>       0.49998898       0.24999498       0.74327702 </v>
   <v>       0.49998903       0.74999496       0.74327702 </v>
   <v>       0.99998898       0.24999498       0.74327702 </v>
   <v>       0.99998903       0.74999496       0.74327702 </v>
   <v>       0.25000050       0.00000100       0.74325596 </v>
   <v>       0.25000052       0.50000100       0.74325596 </v>
   <v>       0.75000050       0.00000100       0.74325596 </v>
   <v>       0.75000049       0.50000100       0.74325596 </v>
   <v>       0.70690762       0.37938476       0.49463317 </v>
   <v>       0.64999949       0.34932362       0.50720435 </v>
   <v>       0.68934560       0.43819382       0.48086452 </v>
   <v>       0.57862104       0.37805803       0.50656158 </v>
   <v>       0.61714484       0.46694447       0.47999933 </v>
   <v>       0.56185077       0.43749541       0.49295117 </v>
   <v>       0.76297250       0.47702513       0.53168551 </v>
   <v>       0.69815018       0.58656373       0.54666494 </v>
   <v>       0.79388286       0.52632092       0.56813677 </v>
   <v>       0.83124305       0.59665190       0.53580877 </v>
   <v>       0.83348693       0.43201517       0.52833419 </v>
   <v>       0.81896590       0.35504174       0.51888613 </v>
   <v>       0.65930206       0.60198864       0.52570756 </v>
   <v>       0.74573247       0.46812967       0.57859735 </v>
   <v>       0.86171764       0.65589953       0.55067075 </v>
   <v>       0.78537072       0.35104409       0.49636405 </v>
   <v>       0.05751684       0.25612757       0.56402486 </v>
   <v>       0.03034000       0.70896444       0.57540507 </v>
   <v>       0.53422264       0.20911352       0.56176483 </v>
   <v>       0.48338512       0.69263062       0.56318351 </v>
   <v>       0.43862080       0.29523752       0.55833580 </v>
   <v>       0.47613488       0.82063617       0.56206548 </v>
   <v>       0.92934108       0.25064572       0.56302063 </v>
   <v>       0.97955963       0.81815764       0.56209662 </v>
   <v>       0.22766531       0.46637246       0.56642304 </v>
   <v>       0.19586895       0.01209564       0.56294621 </v>
   <v>       0.70796295       0.98542034       0.56829854 </v>
   <v>       0.32228008       0.03225947       0.56094520 </v>
   <v>       0.29778069       0.56868147       0.55588023 </v>
   <v>       0.82298011       0.04048689       0.56242481 </v>
   <v>       0.05093094       0.19738355       0.65798207 </v>
   <v>       0.05990071       0.71199450       0.65771938 </v>
   <v>       0.54566432       0.20387813       0.65819317 </v>
   <v>       0.53855298       0.70323451       0.65751329 </v>
   <v>       0.21274942       0.44885064       0.65770388 </v>
   <v>       0.20222209       0.95698100       0.65673353 </v>
   <v>       0.69771362       0.46625583       0.65814574 </v>
   <v>       0.70790545       0.95460293       0.65982820 </v>
   <v>       0.45274880       0.29336811       0.65625223 </v>
   <v>       0.45452005       0.80177551       0.65727251 </v>
   <v>       0.95470988       0.28418847       0.65852692 </v>
   <v>       0.94596991       0.77194164       0.65989499 </v>
   <v>       0.29596150       0.04653753       0.65626688 </v>
   <v>       0.29390036       0.54994040       0.65812767 </v>
   <v>       0.79745658       0.04788733       0.65865841 </v>
   <v>       0.81679255       0.51477998       0.65590933 </v>
   <v>       0.04586250       0.20411950       0.75272599 </v>
   <v>       0.04586250       0.70411946       0.75272599 </v>
   <v>       0.54586251       0.20411950       0.75272599 </v>
   <v>       0.54586250       0.70411946       0.75272599 </v>
   <v>       0.20411900       0.45410100       0.75270499 </v>
   <v>       0.20411899       0.95410095       0.75270499 </v>
   <v>       0.70411898       0.45410100       0.75270499 </v>
   <v>       0.70411896       0.95410095       0.75270499 </v>
   <v>       0.45414002       0.29588849       0.75272697 </v>
   <v>       0.45414001       0.79588852       0.75272697 </v>
   <v>       0.95414002       0.29588849       0.75272697 </v>
   <v>       0.95414006       0.79588852       0.75272697 </v>
   <v>       0.29588249       0.04590050       0.75270499 </v>
   <v>       0.29588248       0.54590053       0.75270499 </v>
   <v>       0.79588244       0.04590050       0.75270499 </v>
   <v>       0.79588248       0.54590053       0.75270499 </v>
   <v>       0.77190113       0.54613416       0.54533533 </v>
   <v>       0.51598022       0.01248607       0.55316740 </v>
   <v>       0.48777455       0.49713409       0.55317284 </v>
   <v>       0.00803124       0.00778203       0.55013365 </v>
   <v>       0.02586632       0.50088003       0.55439732 </v>
   <v>       0.25034398       0.23872642       0.55275521 </v>
   <v>       0.25401330       0.76168648       0.55249961 </v>
   <v>       0.73519408       0.21194735       0.55580618 </v>
   <v>       0.69920727       0.79640805       0.55526646 </v>
   <v>       0.99780253       0.98828460       0.65368458 </v>
   <v>       0.01385752       0.49733203       0.65533982 </v>
   <v>       0.49619008       0.00372772       0.65494289 </v>
   <v>       0.50108795       0.49513797       0.65441611 </v>
   <v>       0.25284922       0.24669109       0.65465230 </v>
   <v>       0.25474764       0.75557678       0.65431074 </v>
   <v>       0.74722275       0.26770228       0.65517761 </v>
   <v>       0.74638518       0.74094966       0.65452374 </v>
   <v>       0.12923754       0.12325723       0.60742014 </v>
   <v>       0.15299926       0.60627423       0.60773453 </v>
   <v>       0.63959097       0.11377118       0.61127839 </v>
   <v>       0.63184855       0.61889430       0.60730952 </v>
   <v>       0.36138471       0.38889296       0.60582033 </v>
   <v>       0.36975193       0.88570686       0.60696619 </v>
   <v>       0.88815628       0.36875985       0.60801736 </v>
   <v>       0.86703190       0.88216762       0.60595140 </v>
   <v>       0.12222235       0.36428377       0.60871336 </v>
   <v>       0.12331401       0.87535714       0.60691991 </v>
   <v>       0.59555319       0.34707169       0.60115936 </v>
   <v>       0.61681390       0.86705417       0.61430426 </v>
   <v>       0.38764572       0.13329617       0.60711826 </v>
   <v>       0.38618854       0.63559078       0.60942682 </v>
   <v>       0.88444860       0.13718644       0.61131978 </v>
   <v>       0.89727581       0.64037790       0.61370026 </v>
   <v>       0.00000000       0.00000000       0.75492797 </v>
   <v>       0.00000000       0.50000000       0.75492797 </v>
   <v>       0.50000000       0.00000000       0.75492797 </v>
   <v>       0.49999999       0.50000000       0.75492797 </v>
   <v>       0.25000050       0.25000000       0.75493902 </v>
   <v>       0.25000051       0.74999997       0.75493902 </v>
   <v>       0.75000047       0.25000000       0.75493902 </v>
   <v>       0.75000046       0.74999997       0.75493902 </v>
   <v>       0.13579050       0.11421000       0.70478299 </v>
   <v>       0.13579050       0.61420998       0.70478299 </v>
   <v>       0.63579045       0.11421000       0.70478299 </v>
   <v>       0.63579049       0.61420998       0.70478299 </v>
   <v>       0.36420952       0.38578999       0.70478299 </v>
   <v>       0.36420950       0.88578996       0.70478299 </v>
   <v>       0.86420954       0.38578999       0.70478299 </v>
   <v>       0.86420953       0.88578996       0.70478299 </v>
   <v>       0.11421799       0.36421899       0.70478098 </v>
   <v>       0.11421799       0.86421899       0.70478098 </v>
   <v>       0.61421800       0.36421899       0.70478098 </v>
   <v>       0.61421799       0.86421899       0.70478098 </v>
   <v>       0.38578201       0.13578149       0.70478202 </v>
   <v>       0.38578200       0.63578149       0.70478202 </v>
   <v>       0.88578199       0.13578149       0.70478202 </v>
   <v>       0.88578203       0.63578149       0.70478202 </v>
   <v>       0.13466700       0.11533200       0.80125603 </v>
   <v>       0.13466699       0.61533199       0.80125603 </v>
   <v>       0.63466699       0.11533200       0.80125603 </v>
   <v>       0.63466698       0.61533199       0.80125603 </v>
   <v>       0.36533300       0.38466799       0.80125603 </v>
   <v>       0.36533299       0.88466796       0.80125603 </v>
   <v>       0.86533295       0.38466799       0.80125603 </v>
   <v>       0.86533294       0.88466796       0.80125603 </v>
   <v>       0.11532850       0.36533700       0.80126500 </v>
   <v>       0.11532850       0.86533698       0.80126500 </v>
   <v>       0.61532850       0.36533700       0.80126500 </v>
   <v>       0.61532849       0.86533698       0.80126500 </v>
   <v>       0.38467151       0.13466300       0.80126500 </v>
   <v>       0.38467150       0.63466297       0.80126500 </v>
   <v>       0.88467149       0.13466300       0.80126500 </v>
   <v>       0.88467153       0.63466297       0.80126500 </v>
   <v>       0.99736392       0.00403971       0.60381987 </v>
   <v>       0.00712406       0.50356569       0.60429885 </v>
   <v>       0.50448274       0.00129391       0.60538689 </v>
   <v>       0.50152641       0.49873697       0.60400930 </v>
   <v>       0.25410977       0.24932414       0.60412449 </v>
   <v>       0.25114687       0.75258901       0.60295000 </v>
   <v>       0.74640043       0.25134146       0.60524148 </v>
   <v>       0.74370777       0.75628031       0.60419873 </v>
   <v>       0.00000050       0.00000050       0.70482896 </v>
   <v>       0.00000050       0.50000048       0.70482896 </v>
   <v>       0.50000048       0.00000050       0.70482896 </v>
   <v>       0.50000046       0.50000048       0.70482896 </v>
   <v>       0.24999999       0.24999947       0.70482499 </v>
   <v>       0.25000001       0.74999950       0.70482499 </v>
   <v>       0.74999999       0.24999947       0.70482499 </v>
   <v>       0.74999998       0.74999950       0.70482499 </v>
   <v>       0.00000000       0.00000000       0.80731797 </v>
   <v>       0.00000000       0.50000000       0.80731797 </v>
   <v>       0.50000000       0.00000000       0.80731797 </v>
   <v>       0.49999999       0.50000000       0.80731797 </v>
   <v>       0.24999999       0.25000000       0.80731797 </v>
   <v>       0.25000001       0.74999997       0.80731797 </v>
   <v>       0.74999999       0.25000000       0.80731797 </v>
   <v>       0.74999998       0.74999997       0.80731797 </v>
  </varray>
 </structure>
</modeling>
