 vasp.6.2.1 16May21 (build Nov 15 2021 14:57:28) complex                         
 executed on             LinuxPGI date 2023.07.30  14:34:31
 running on    4 total cores
 distrk:  each k-point on    4 cores,    1 groups
 distr:  one band on NCORE=   1 cores,    4 groups


--------------------------------------------------------------------------------------------------------


 INCAR:
   SYSTEM = PSC
   ISTART = 1
   ICHARG = 1
   PREC = Normal
   ENCUT = 500
   GGA_COMPAT = F
   NELM = 600
   ISYM = 0
   LREAL = Auto
   ISMEAR = 0
   SIGMA = 0.05
   AMIN = 0.01
   BMIX = 0.01
   LVTOT = T
   LWAVE = F
   LDIPOL = T
   IDIPOL = 3
   LVDW = T
   IVDW = 12

 POTCAR:    PAW_PBE H 15Jun2001                   
 POTCAR:    PAW_PBE C 08Apr2002                   
 POTCAR:    PAW_PBE N 08Apr2002                   
 POTCAR:    PAW_PBE I 08Apr2002                   
 POTCAR:    PAW_PBE Pb 08Apr2002                  
 WARNING: For LVTOT=.TRUE., VASP.5.x writes the TOTAL local potential to the
     file LOCPOT. If you want only the Hartree contributions, use LVHAR=.TRUE.
     instead. 

 POTCAR:    PAW_PBE H 15Jun2001                   
   SHA256 =  030f79b5d3ab3cf0e668861823c8fb652ff669f3e15e46930bd03bfd63a607b6 H/POTCAR              
   COPYR  = (c) Copyright 15Jun2001 Georg Kresse                                                    
   COPYR  = This file is part of the software VASP. Any use, copying, and all other rights are regul
   COPYR  = If you do not have a valid VASP license, you may not use, copy or distribute this file. 
   VRHFIN =H: ultrasoft test                                                                        
   LEXCH  = PE                                                                                      
   EATOM  =    12.4884 eV,    0.9179 Ry                                                             
                                                                                                    
   TITEL  = PAW_PBE H 15Jun2001                                                                     
   LULTRA =        F    use ultrasoft PP ?                                                          
   IUNSCR =        0    unscreen: 0-lin 1-nonlin 2-no                                               
   RPACOR =    0.000    partial core radius                                                         
   POMASS =    1.000; ZVAL   =    1.000    mass and valenz                                          
   RCORE  =    1.100    outmost cutoff radius                                                       
   RWIGS  =    0.700; RWIGS  =    0.370    wigner-seitz radius (au A)                               
   ENMAX  =  250.000; ENMIN  =  200.000 eV                                                          
   RCLOC  =    0.701    cutoff for local pot                                                        
   LCOR   =        T    correct aug charges                                                         
   LPAW   =        T    paw PP                                                                      
   EAUG   =  400.000                                                                                
   RMAX   =    1.123    core radius for proj-oper                                                   
   RAUG   =    1.200    factor for augmentation sphere                                              
   RDEP   =    1.112    radius for radial grids                                                     
   RDEPT  =    0.926    core radius for aug-charge                                                  
                                                                                                    
   Atomic configuration                                                                             
    2 entries                                                                                       
     n  l   j            E        occ.                                                              
     1  0  0.50        -6.4927   1.0000                                                             
     2  1  0.50        -3.4015   0.0000                                                             
   Description                                                                                      
     l       E           TYP  RCUT    TYP  RCUT                                                     
     0     -6.4927494     23  1.100                                                                 
     0      6.8029130     23  1.100                                                                 
     1     -4.0817478     23  1.100                                                                 
  local pseudopotential read in
  atomic valenz-charges read in
  non local Contribution for L=            0  read in
    real space projection operators read in
  non local Contribution for L=            0  read in
    real space projection operators read in
  non local Contribution for L=            1  read in
    real space projection operators read in
    PAW grid and wavefunctions read in
 
   number of l-projection  operators is LMAX  =            3
   number of lm-projection operators is LMMAX =            5
 
 POTCAR:    PAW_PBE C 08Apr2002                   
   SHA256 =  253f7b50bb8d59471dbedb8285d89021f4a42ed1a2c5d38a03a736e69125dd95 C/POTCAR              
   COPYR  = (c) Copyright 08Apr2002 Georg Kresse                                                    
   COPYR  = This file is part of the software VASP. Any use, copying, and all other rights are regul
   COPYR  = If you do not have a valid VASP license, you may not use, copy or distribute this file. 
   VRHFIN =C: s2p2                                                                                  
   LEXCH  = PE                                                                                      
   EATOM  =   147.1560 eV,   10.8157 Ry                                                             
                                                                                                    
   TITEL  = PAW_PBE C 08Apr2002                                                                     
   LULTRA =        F    use ultrasoft PP ?                                                          
   IUNSCR =        1    unscreen: 0-lin 1-nonlin 2-no                                               
   RPACOR =    1.200    partial core radius                                                         
   POMASS =   12.011; ZVAL   =    4.000    mass and valenz                                          
   RCORE  =    1.500    outmost cutoff radius                                                       
   RWIGS  =    1.630; RWIGS  =    0.863    wigner-seitz radius (au A)                               
   ENMAX  =  400.000; ENMIN  =  300.000 eV                                                          
   ICORE  =        2    local potential                                                             
   LCOR   =        T    correct aug charges                                                         
   LPAW   =        T    paw PP                                                                      
   EAUG   =  644.873                                                                                
   DEXC   =    0.000                                                                                
   RMAX   =    1.529    core radius for proj-oper                                                   
   RAUG   =    1.300    factor for augmentation sphere                                              
   RDEP   =    1.501    radius for radial grids                                                     
   RDEPT  =    1.300    core radius for aug-charge                                                  
                                                                                                    
   Atomic configuration                                                                             
    4 entries                                                                                       
     n  l   j            E        occ.                                                              
     1  0  0.50      -273.3789   2.0000                                                             
     2  0  0.50       -13.7508   2.0000                                                             
     2  1  0.50        -5.2854   2.0000                                                             
     3  2  1.50        -5.4423   0.0000                                                             
   Description                                                                                      
     l       E           TYP  RCUT    TYP  RCUT                                                     
     0    -13.7508458     23  1.200                                                                 
     0     -8.2022199     23  1.200                                                                 
     1     -5.2854383     23  1.500                                                                 
     1     34.0145650     23  1.500                                                                 
     2     -5.4423304      7  1.500                                                                 
  local pseudopotential read in
  partial core-charges read in
  partial kinetic energy density read in
  atomic valenz-charges read in
  non local Contribution for L=            0  read in
    real space projection operators read in
  non local Contribution for L=            0  read in
    real space projection operators read in
  non local Contribution for L=            1  read in
    real space projection operators read in
  non local Contribution for L=            1  read in
    real space projection operators read in
    PAW grid and wavefunctions read in
 
   number of l-projection  operators is LMAX  =            4
   number of lm-projection operators is LMMAX =            8
 
 POTCAR:    PAW_PBE N 08Apr2002                   
   SHA256 =  e053789ff3a61a86a1b75d8a110fcc91f86041011e7b0817c7c99e4e8a6349d7 N/POTCAR              
   COPYR  = (c) Copyright 08Apr2002 Georg Kresse                                                    
   COPYR  = This file is part of the software VASP. Any use, copying, and all other rights are regul
   COPYR  = If you do not have a valid VASP license, you may not use, copy or distribute this file. 
   VRHFIN =N: s2p3                                                                                  
   LEXCH  = PE                                                                                      
   EATOM  =   264.5486 eV,   19.4438 Ry                                                             
                                                                                                    
   TITEL  = PAW_PBE N 08Apr2002                                                                     
   LULTRA =        F    use ultrasoft PP ?                                                          
   IUNSCR =        1    unscreen: 0-lin 1-nonlin 2-no                                               
   RPACOR =    1.200    partial core radius                                                         
   POMASS =   14.001; ZVAL   =    5.000    mass and valenz                                          
   RCORE  =    1.500    outmost cutoff radius                                                       
   RWIGS  =    1.400; RWIGS  =    0.741    wigner-seitz radius (au A)                               
   ENMAX  =  400.000; ENMIN  =  300.000 eV                                                          
   ICORE  =        2    local potential                                                             
   LCOR   =        T    correct aug charges                                                         
   LPAW   =        T    paw PP                                                                      
   EAUG   =  627.112                                                                                
   DEXC   =    0.000                                                                                
   RMAX   =    1.529    core radius for proj-oper                                                   
   RAUG   =    1.300    factor for augmentation sphere                                              
   RDEP   =    1.514    radius for radial grids                                                     
   RDEPT  =    1.338    core radius for aug-charge                                                  
                                                                                                    
   Atomic configuration                                                                             
    4 entries                                                                                       
     n  l   j            E        occ.                                                              
     1  0  0.50      -384.7179   2.0000                                                             
     2  0  0.50       -18.5828   2.0000                                                             
     2  1  0.50        -7.0898   3.0000                                                             
     3  2  1.50        -6.8029   0.0000                                                             
   Description                                                                                      
     l       E           TYP  RCUT    TYP  RCUT                                                     
     0    -18.5828119     23  1.200                                                                 
     0    -13.5018863     23  1.200                                                                 
     1     -7.0897853     23  1.500                                                                 
     1      9.5240782     23  1.500                                                                 
     2     -6.8029130      7  1.500                                                                 
  local pseudopotential read in
  partial core-charges read in
  partial kinetic energy density read in
  atomic valenz-charges read in
  non local Contribution for L=            0  read in
    real space projection operators read in
  non local Contribution for L=            0  read in
    real space projection operators read in
  non local Contribution for L=            1  read in
    real space projection operators read in
  non local Contribution for L=            1  read in
    real space projection operators read in
    PAW grid and wavefunctions read in
 
   number of l-projection  operators is LMAX  =            4
   number of lm-projection operators is LMMAX =            8
 
 POTCAR:    PAW_PBE I 08Apr2002                   
   SHA256 =  e40f3f59b681c1fc3e3091736183c4589116986673d2b852a5012aec72758799 I/POTCAR              
   COPYR  = (c) Copyright 08Apr2002 Georg Kresse                                                    
   COPYR  = This file is part of the software VASP. Any use, copying, and all other rights are regul
   COPYR  = If you do not have a valid VASP license, you may not use, copy or distribute this file. 
   VRHFIN =I : s2p5                                                                                 
   LEXCH  = PE                                                                                      
   EATOM  =   315.8678 eV,   23.2156 Ry                                                             
                                                                                                    
   TITEL  = PAW_PBE I 08Apr2002                                                                     
   LULTRA =        F    use ultrasoft PP ?                                                          
   IUNSCR =        1    unscreen: 0-lin 1-nonlin 2-no                                               
   RPACOR =    2.200    partial core radius                                                         
   POMASS =  126.904; ZVAL   =    7.000    mass and valenz                                          
   RCORE  =    2.300    outmost cutoff radius                                                       
   RWIGS  =    2.810; RWIGS  =    1.487    wigner-seitz radius (au A)                               
   ENMAX  =  175.647; ENMIN  =  131.735 eV                                                          
   ICORE  =        3    local potential                                                             
   LCOR   =        T    correct aug charges                                                         
   LPAW   =        T    paw PP                                                                      
   EAUG   =  370.139                                                                                
   DEXC   =    0.000                                                                                
   RMAX   =    2.359    core radius for proj-oper                                                   
   RAUG   =    1.300    factor for augmentation sphere                                              
   RDEP   =    2.392    radius for radial grids                                                     
   RDEPT  =    2.170    core radius for aug-charge                                                  
                                                                                                    
   Atomic configuration                                                                             
   13 entries                                                                                       
     n  l   j            E        occ.                                                              
     1  0  0.50    -32976.3739   2.0000                                                             
     2  0  0.50     -5094.5933   2.0000                                                             
     2  1  1.50     -4572.0131   6.0000                                                             
     3  0  0.50     -1028.2813   2.0000                                                             
     3  1  1.50      -859.0250   6.0000                                                             
     3  2  2.50      -605.7620  10.0000                                                             
     4  0  0.50      -180.5540   2.0000                                                             
     4  1  1.50      -127.5306   6.0000                                                             
     4  2  2.50       -50.2720  10.0000                                                             
     5  0  0.50       -17.4058   2.0000                                                             
     5  1  0.50        -7.0851   5.0000                                                             
     5  2  1.50        -7.0750   0.0000                                                             
     4  3  2.50        -7.0750   0.0000                                                             
   Description                                                                                      
     l       E           TYP  RCUT    TYP  RCUT                                                     
     0    -17.4058016     23  2.300                                                                 
     0    -18.7663842     23  2.300                                                                 
     1     -7.0850686     23  2.300                                                                 
     1     -4.2150896     23  2.300                                                                 
     2     -7.0750295     23  2.300                                                                 
     3     -1.3605826     23  2.300                                                                 
  local pseudopotential read in
  partial core-charges read in
  partial kinetic energy density read in
  atomic valenz-charges read in
  non local Contribution for L=            0  read in
    real space projection operators read in
  non local Contribution for L=            0  read in
    real space projection operators read in
  non local Contribution for L=            1  read in
    real space projection operators read in
  non local Contribution for L=            1  read in
    real space projection operators read in
  non local Contribution for L=            2  read in
    real space projection operators read in
    PAW grid and wavefunctions read in
 
   number of l-projection  operators is LMAX  =            5
   number of lm-projection operators is LMMAX =           13
 
 POTCAR:    PAW_PBE Pb 08Apr2002                  
   SHA256 =  797118a27cf1bcd06b9881c67a26cdde129e3cd1a551dd4a281f9681ce847303 Pb/POTCAR             
   COPYR  = (c) Copyright 08Apr2002 Georg Kresse                                                    
   COPYR  = This file is part of the software VASP. Any use, copying, and all other rights are regul
   COPYR  = If you do not have a valid VASP license, you may not use, copy or distribute this file. 
   VRHFIN =Pb:                                                                                      
   LEXCH  = PE                                                                                      
   EATOM  =    96.9868 eV,    7.1283 Ry                                                             
                                                                                                    
   TITEL  = PAW_PBE Pb 08Apr2002                                                                    
   LULTRA =        F    use ultrasoft PP ?                                                          
   IUNSCR =        1    unscreen: 0-lin 1-nonlin 2-no                                               
   RPACOR =    2.200    partial core radius                                                         
   POMASS =  207.200; ZVAL   =    4.000    mass and valenz                                          
   RCORE  =    3.100    outmost cutoff radius                                                       
   RWIGS  =    3.260; RWIGS  =    1.725    wigner-seitz radius (au A)                               
   ENMAX  =   97.973; ENMIN  =   73.480 eV                                                          
   ICORE  =        3    local potential                                                             
   LCOR   =        T    correct aug charges                                                         
   LPAW   =        T    paw PP                                                                      
   EAUG   =  234.873                                                                                
   DEXC   =    0.000                                                                                
   RMAX   =    3.158    core radius for proj-oper                                                   
   RAUG   =    1.300    factor for augmentation sphere                                              
   RDEP   =    3.202    radius for radial grids                                                     
   RDEPT  =    2.659    core radius for aug-charge                                                  
                                                                                                    
   Atomic configuration                                                                             
   17 entries                                                                                       
     n  l   j            E        occ.                                                              
     1  0  0.50    -88091.8466   2.0000                                                             
     2  0  0.50    -15753.4197   2.0000                                                             
     2  1  1.50    -13508.1797   6.0000                                                             
     3  0  0.50     -3781.7194   2.0000                                                             
     3  1  1.50     -3138.2529   6.0000                                                             
     3  2  2.50     -2483.2977  10.0000                                                             
     4  0  0.50      -856.2895   2.0000                                                             
     4  1  1.50      -645.4943   6.0000                                                             
     4  2  2.50      -401.8768  10.0000                                                             
     4  3  3.50      -132.9059  14.0000                                                             
     5  0  0.50      -144.0950   2.0000                                                             
     5  1  1.50       -85.7879   6.0000                                                             
     5  2  2.50       -21.1769  10.0000                                                             
     6  0  0.50       -12.0372   2.0000                                                             
     6  1  1.50        -3.4971   2.0000                                                             
     6  2  2.50        -1.3606   0.0000                                                             
     5  3  2.50        -2.7212   0.0000                                                             
   Description                                                                                      
     l       E           TYP  RCUT    TYP  RCUT                                                     
     0    -12.0371566     23  3.100                                                                 
     0    -13.3977392     23  3.100                                                                 
     1     -3.4971341     23  3.100                                                                 
     1     -5.4423304     23  3.100                                                                 
     2     -1.3605826     23  3.100                                                                 
     3     -1.3605826     23  3.100                                                                 
  local pseudopotential read in
  partial core-charges read in
  partial kinetic energy density read in
  atomic valenz-charges read in
  non local Contribution for L=            0  read in
    real space projection operators read in
  non local Contribution for L=            0  read in
    real space projection operators read in
  non local Contribution for L=            1  read in
    real space projection operators read in
  non local Contribution for L=            1  read in
    real space projection operators read in
  non local Contribution for L=            2  read in
    real space projection operators read in
    PAW grid and wavefunctions read in
 
   number of l-projection  operators is LMAX  =            5
   number of lm-projection operators is LMMAX =           13
 
 Optimization of the real space projectors (new method)

 maximal supplied QI-value         = 34.20
 optimisation between [QCUT,QGAM] = [ 11.29, 22.57] = [ 35.68,142.71] Ry 
 Optimized for a Real-space Cutoff    1.16 Angstroem

   l    n(q)    QCUT    max X(q) W(low)/X(q) W(high)/X(q)  e(spline) 
   0      8    11.287    19.460    0.40E-03    0.73E-03    0.16E-06
   0      8    11.287    12.209    0.38E-03    0.70E-03    0.15E-06
   1      7    11.287     4.655    0.22E-03    0.25E-04    0.22E-06
 Optimization of the real space projectors (new method)

 maximal supplied QI-value         = 25.13
 optimisation between [QCUT,QGAM] = [ 11.31, 22.87] = [ 35.82,146.48] Ry 
 Optimized for a Real-space Cutoff    1.00 Angstroem

   l    n(q)    QCUT    max X(q) W(low)/X(q) W(high)/X(q)  e(spline) 
   0      7    11.310   115.676    0.43E-03    0.13E-02    0.19E-06
   0      7    11.310    87.132    0.43E-03    0.13E-02    0.18E-06
   1      6    11.310     4.429    0.42E-03    0.74E-03    0.11E-06
   1      6    11.310     2.733    0.34E-03    0.55E-03    0.92E-07
 Optimization of the real space projectors (new method)

 maximal supplied QI-value         = 25.13
 optimisation between [QCUT,QGAM] = [ 11.31, 22.87] = [ 35.82,146.48] Ry 
 Optimized for a Real-space Cutoff    1.27 Angstroem

   l    n(q)    QCUT    max X(q) W(low)/X(q) W(high)/X(q)  e(spline) 
   0      9    11.310    79.467    0.75E-04    0.16E-03    0.36E-06
   0      9    11.310    66.151    0.74E-04    0.16E-03    0.36E-06
   1      8    11.310    17.416    0.35E-03    0.12E-03    0.95E-06
   1      8    11.310    12.382    0.37E-03    0.13E-03    0.98E-06
 Optimization of the real space projectors (new method)

 maximal supplied QI-value         = 16.25
 optimisation between [QCUT,QGAM] = [ 11.38, 22.75] = [ 36.24,144.96] Ry 
 Optimized for a Real-space Cutoff    1.31 Angstroem

   l    n(q)    QCUT    max X(q) W(low)/X(q) W(high)/X(q)  e(spline) 
   0      9    11.376   194.483    0.24E-03    0.23E-03    0.67E-07
   0      9    11.376   190.334    0.23E-03    0.22E-03    0.65E-07
   1      8    11.376   116.687    0.25E-03    0.63E-04    0.16E-06
   1      8    11.376    88.696    0.25E-03    0.61E-04    0.16E-06
   2      8    11.376     4.877    0.17E-03    0.14E-03    0.29E-07
 Optimization of the real space projectors (new method)

 maximal supplied QI-value         = 12.09
 optimisation between [QCUT,QGAM] = [ 11.37, 22.86] = [ 36.19,146.31] Ry 
 Optimized for a Real-space Cutoff    1.66 Angstroem

   l    n(q)    QCUT    max X(q) W(low)/X(q) W(high)/X(q)  e(spline) 
   0     11    11.369   135.111    0.12E-03    0.69E-04    0.19E-05
   0     11    11.369   146.850    0.11E-03    0.65E-04    0.18E-05
   1     11    11.369   148.016    0.17E-03    0.32E-03    0.89E-06
   1     11    11.369   122.989    0.17E-03    0.32E-03    0.91E-06
   2     10    11.369     8.916    0.12E-03    0.45E-04    0.33E-06
  PAW_PBE H 15Jun2001                   :
 energy of atom  1       EATOM=  -12.4884
 kinetic energy error for atom=    0.0020 (will be added to EATOM!!)
  PAW_PBE C 08Apr2002                   :
 energy of atom  2       EATOM= -147.1560
 kinetic energy error for atom=    0.0076 (will be added to EATOM!!)
  PAW_PBE N 08Apr2002                   :
 energy of atom  3       EATOM= -264.5486
 kinetic energy error for atom=    0.0138 (will be added to EATOM!!)
  PAW_PBE I 08Apr2002                   :
 energy of atom  4       EATOM= -315.8678
 kinetic energy error for atom=    0.0009 (will be added to EATOM!!)
  PAW_PBE Pb 08Apr2002                  :
 energy of atom  5       EATOM=  -96.9868
 kinetic energy error for atom=    0.0000 (will be added to EATOM!!)
 
 
 POSCAR:  H  C  N  I Pb
  positions in cartesian coordinates
  No initial velocities read in
 exchange correlation table for  LEXCH =        8
   RHO(1)=    0.500       N(1)  =     2000
   RHO(2)=  100.500       N(2)  =     4000
 


--------------------------------------------------------------------------------------------------------


 ion  position               nearest neighbor table
   1  0.408  0.285  0.560- 187 1.03
   2  0.416  0.695  0.571- 188 1.03
   3  0.925  0.293  0.579- 189 1.03
   4  0.926  0.814  0.573- 190 1.03
   5  0.322  0.091  0.563- 194 1.02
   6  0.325  0.571  0.568- 195 1.02
   7  0.797  0.104  0.564- 196 1.02
   8  0.109  0.241  0.562- 183 1.02
   9  0.079  0.684  0.569- 184 1.02
  10  0.583  0.185  0.565- 185 1.02
  11  0.599  0.766  0.559- 186 1.03
  12  0.378  0.017  0.554- 194 1.03
  13  0.256  0.622  0.555- 195 1.03
  14  0.874  0.051  0.556- 196 1.03
  15  0.063  0.290  0.582- 183 1.02
  16  0.993  0.694  0.581- 184 1.03
  17  0.488  0.174  0.570- 185 1.02
  18  0.553  0.696  0.573- 186 1.03
  19  0.307  0.436  0.572- 191 1.02
  20  0.191  0.067  0.569- 192 1.02
  21  0.683  0.032  0.573- 193 1.02
  22  0.458  0.365  0.554- 187 1.03
  23  0.374  0.760  0.554- 188 1.02
  24  0.884  0.244  0.558- 189 1.02
  25  0.972  0.873  0.555- 190 1.03
  26  0.231  0.398  0.559- 191 1.02
  27  0.157  0.981  0.561- 192 1.02
  28  0.684  0.938  0.566- 193 1.02
  29  0.571  0.306  0.555- 146 1.09
  30  0.490  0.814  0.545- 147 1.09
  31  0.999  0.204  0.545- 144 1.10
  32  0.070  0.793  0.550- 145 1.10
  33  0.188  0.514  0.547- 148 1.10
  34  0.275  0.938  0.551- 149 1.10
  35  0.805  0.942  0.555- 150 1.10
  36  0.455  0.298  0.673- 205 1.03
  37  0.442  0.815  0.671- 206 1.03
  38  0.956  0.284  0.676- 207 1.02
  39  0.913  0.739  0.663- 208 1.01
  40  0.296  0.041  0.675- 209 1.02
  41  0.301  0.561  0.673- 210 1.03
  42  0.797  0.051  0.676- 211 1.03
  43  0.833  0.469  0.665- 212 1.02
  44  0.091  0.170  0.647- 197 1.02
  45  0.109  0.700  0.655- 198 1.02
  46  0.577  0.165  0.646- 199 1.02
  47  0.573  0.674  0.652- 200 1.01
  48  0.185  0.412  0.651- 201 1.02
  49  0.164  0.930  0.644- 202 1.02
  50  0.634  0.486  0.654- 203 1.03
  51  0.672  0.918  0.649- 204 1.02
  52  0.063  0.188  0.673- 197 1.03
  53  0.025  0.655  0.660- 198 1.03
  54  0.548  0.189  0.672- 199 1.03
  55  0.544  0.714  0.676- 200 1.03
  56  0.212  0.447  0.676- 201 1.02
  57  0.183  0.952  0.670- 202 1.02
  58  0.697  0.434  0.670- 203 1.02
  59  0.697  0.946  0.675- 204 1.02
  60  0.436  0.337  0.648- 205 1.02
  61  0.417  0.830  0.644- 206 1.02
  62  0.926  0.319  0.652- 207 1.01
  63  0.929  0.832  0.658- 208 1.02
  64  0.343  0.062  0.652- 209 1.02
  65  0.321  0.587  0.647- 210 1.02
  66  0.825  0.080  0.650- 211 1.02
  67  0.851  0.543  0.648- 212 1.02
  68  0.007  0.251  0.632- 151 1.09
  69  0.054  0.816  0.651- 152 1.09
  70  0.510  0.256  0.629- 153 1.09
  71  0.496  0.742  0.630- 154 1.09
  72  0.263  0.996  0.630- 156 1.09
  73  0.250  0.496  0.631- 155 1.09
  74  0.750  0.999  0.632- 158 1.09
  75  0.727  0.558  0.639- 157 1.09
  76  0.449  0.301  0.769- 221 1.02
  77  0.449  0.801  0.769- 222 1.02
  78  0.949  0.301  0.769- 223 1.02
  79  0.949  0.801  0.769- 224 1.02
  80  0.301  0.051  0.769- 225 1.02
  81  0.301  0.551  0.769- 226 1.02
  82  0.801  0.051  0.769- 227 1.02
  83  0.801  0.551  0.769- 228 1.02
  84  0.079  0.171  0.743- 213 1.02
  85  0.079  0.671  0.743- 214 1.02
  86  0.579  0.171  0.743- 215 1.02
  87  0.579  0.671  0.743- 216 1.02
  88  0.171  0.421  0.743- 217 1.02
  89  0.171  0.921  0.743- 218 1.02
  90  0.671  0.421  0.743- 219 1.02
  91  0.671  0.921  0.743- 220 1.02
  92  0.051  0.199  0.769- 213 1.02
  93  0.051  0.699  0.769- 214 1.02
  94  0.551  0.199  0.769- 215 1.02
  95  0.551  0.699  0.769- 216 1.02
  96  0.199  0.449  0.769- 217 1.02
  97  0.199  0.949  0.769- 218 1.02
  98  0.699  0.449  0.769- 219 1.02
  99  0.699  0.949  0.769- 220 1.02
 100  0.421  0.329  0.743- 221 1.02
 101  0.421  0.829  0.743- 222 1.02
 102  0.921  0.329  0.743- 223 1.02
 103  0.921  0.829  0.743- 224 1.02
 104  0.329  0.079  0.743- 225 1.02
 105  0.329  0.579  0.743- 226 1.02
 106  0.829  0.079  0.743- 227 1.02
 107  0.829  0.579  0.743- 228 1.02
 108  0.000  0.250  0.726- 161 1.09
 109  0.000  0.750  0.726- 162 1.09
 110  0.500  0.250  0.726- 159 1.09
 111  0.500  0.750  0.726- 160 1.09
 112  0.250  0.000  0.726- 163 1.09
 113  0.250  0.500  0.726- 164 1.09
 114  0.750  0.000  0.726- 165 1.09
 115  0.750  0.500  0.726- 166 1.09
 116  0.799  0.508  0.514- 173 1.10
 117  0.878  0.500  0.531- 173 1.10
 118  0.757  0.618  0.532- 174 1.10
 119  0.755  0.619  0.560- 174 1.09
 120  0.687  0.441  0.549- 175 1.09
 121  0.668  0.533  0.557- 175 1.10
 122  0.796  0.421  0.566- 176 1.09
 123  0.863  0.491  0.568- 176 1.10
 124  0.858  0.373  0.538- 177 1.10
 125  0.764  0.376  0.532- 177 1.10
 126  0.786  0.383  0.494- 178 1.11
 127  0.880  0.410  0.497- 178 1.11
 128  0.896  0.616  0.532- 179 1.10
 129  0.896  0.605  0.561- 179 1.10
 130  0.861  0.688  0.549- 179 1.10
 131  0.601  0.504  0.524- 180 1.10
 132  0.681  0.479  0.510- 180 1.09
 133  0.667  0.573  0.518- 180 1.09
 134  0.704  0.498  0.587- 181 1.10
 135  0.774  0.567  0.590- 181 1.09
 136  0.785  0.478  0.601- 181 1.10
 137  0.822  0.258  0.512- 182 1.11
 138  0.849  0.275  0.485- 182 1.10
 139  0.925  0.159  0.499- 168 1.09
 140  0.974  0.385  0.516- 169 1.09
 141  0.056  0.125  0.504- 170 1.09
 142  0.104  0.351  0.521- 171 1.09
 143  0.148  0.222  0.515- 172 1.09
 144  0.997  0.239  0.559-  31 1.10 189 1.31 183 1.32
 145  0.024  0.776  0.560-  32 1.10 184 1.31 190 1.32
 146  0.521  0.275  0.558-  29 1.09 187 1.31 185 1.31
 147  0.487  0.765  0.555-  30 1.09 188 1.31 186 1.32
 148  0.240  0.510  0.556-  33 1.10 195 1.31 191 1.32
 149  0.268  0.995  0.557-  34 1.10 194 1.31 192 1.32
 150  0.779  0.993  0.560-  35 1.10 193 1.32 196 1.32
 151  0.008  0.245  0.649-  68 1.09 197 1.31 207 1.32
 152  0.020  0.768  0.656-  69 1.09 208 1.31 198 1.32
 153  0.506  0.251  0.647-  70 1.09 205 1.31 199 1.32
 154  0.494  0.751  0.648-  71 1.09 206 1.31 200 1.31
 155  0.253  0.500  0.649-  73 1.09 210 1.31 201 1.32
 156  0.253  0.997  0.647-  72 1.09 209 1.31 202 1.31
 157  0.742  0.515  0.650-  75 1.09 203 1.31 212 1.32
 158  0.749  0.999  0.649-  74 1.09 211 1.31 204 1.32
 159  0.500  0.250  0.743- 110 1.09 221 1.31 215 1.31
 160  0.500  0.750  0.743- 111 1.09 222 1.31 216 1.31
 161  1.000  0.250  0.743- 108 1.09 223 1.31 213 1.31
 162  1.000  0.750  0.743- 109 1.09 224 1.31 214 1.31
 163  0.250  0.000  0.743- 112 1.09 225 1.31 218 1.31
 164  0.250  0.500  0.743- 113 1.09 226 1.31 217 1.31
 165  0.750  0.000  0.743- 114 1.09 227 1.31 220 1.31
 166  0.750  0.500  0.743- 115 1.09 228 1.31 219 1.31
 167  0.939  0.275  0.507- 169 1.40 168 1.42 182 1.51
 168  0.965  0.201  0.503- 139 1.09 170 1.39 167 1.42
 169  0.991  0.328  0.513- 140 1.09 167 1.40 171 1.40
 170  0.039  0.183  0.506- 141 1.09 168 1.39 172 1.40
 171  0.066  0.309  0.516- 142 1.09 172 1.39 169 1.40
 172  0.090  0.237  0.512- 143 1.09 171 1.39 170 1.40
 173  0.821  0.482  0.529- 117 1.10 116 1.10 229 1.51 177 1.52
 174  0.786  0.599  0.547- 119 1.09 118 1.10 179 1.51 229 1.52
 175  0.694  0.499  0.545- 120 1.09 121 1.10 180 1.51 229 1.52
 176  0.803  0.481  0.568- 122 1.09 123 1.10 181 1.51 229 1.52
 177  0.818  0.397  0.527- 124 1.10 125 1.10 173 1.52 178 1.54
 178  0.836  0.374  0.504- 126 1.11 127 1.11 182 1.52 177 1.54
 179  0.865  0.627  0.547- 129 1.10 128 1.10 130 1.10 174 1.51
 180  0.661  0.515  0.523- 133 1.09 132 1.09 131 1.10 175 1.51
 181  0.764  0.509  0.587- 135 1.09 136 1.10 134 1.10 176 1.51
 182  0.859  0.293  0.502- 138 1.10 137 1.11 167 1.51 178 1.52
 183  0.059  0.257  0.568-   8 1.02  15 1.02 144 1.32
 184  0.030  0.712  0.570-   9 1.02  16 1.03 145 1.31
 185  0.530  0.205  0.564-  17 1.02  10 1.02 146 1.31
 186  0.550  0.739  0.563-  18 1.03  11 1.03 147 1.32
 187  0.457  0.309  0.557-  22 1.03   1 1.03 146 1.31
 188  0.422  0.736  0.560-  23 1.02   2 1.03 147 1.31
 189  0.931  0.260  0.566-  24 1.02   3 1.03 144 1.31
 190  0.967  0.821  0.561-   4 1.03  25 1.03 145 1.32
 191  0.262  0.444  0.562-  26 1.02  19 1.02 148 1.32
 192  0.200  0.016  0.562-  20 1.02  27 1.02 149 1.32
 193  0.709  0.989  0.566-  28 1.02  21 1.02 150 1.32
 194  0.326  0.038  0.557-   5 1.02  12 1.03 149 1.31
 195  0.277  0.571  0.559-   6 1.02  13 1.03 148 1.31
 196  0.819  0.054  0.560-   7 1.02  14 1.03 150 1.32
 197  0.056  0.198  0.657-  44 1.02  52 1.03 151 1.31
 198  0.053  0.703  0.657-  45 1.02  53 1.03 152 1.32
 199  0.546  0.199  0.656-  46 1.02  54 1.03 153 1.32
 200  0.539  0.710  0.659-  47 1.01  55 1.03 154 1.31
 201  0.215  0.450  0.660-  48 1.02  56 1.02 155 1.32
 202  0.197  0.958  0.655-  57 1.02  49 1.02 156 1.31
 203  0.689  0.475  0.659-  58 1.02  50 1.03 157 1.31
 204  0.704  0.951  0.659-  51 1.02  59 1.02 158 1.32
 205  0.463  0.298  0.657-  60 1.02  36 1.03 153 1.31
 206  0.448  0.801  0.655-  61 1.02  37 1.03 154 1.31
 207  0.961  0.285  0.660-  62 1.01  38 1.02 151 1.32
 208  0.949  0.780  0.659-  39 1.01  63 1.02 152 1.31
 209  0.299  0.036  0.659-  40 1.02  64 1.02 156 1.31
 210  0.294  0.552  0.657-  65 1.02  41 1.03 155 1.31
 211  0.792  0.046  0.659-  66 1.02  42 1.03 158 1.31
 212  0.813  0.509  0.655-  67 1.02  43 1.02 157 1.32
 213  0.046  0.204  0.753-  92 1.02  84 1.02 161 1.31
 214  0.046  0.704  0.753-  93 1.02  85 1.02 162 1.31
 215  0.546  0.204  0.753-  94 1.02  86 1.02 159 1.31
 216  0.546  0.704  0.753-  95 1.02  87 1.02 160 1.31
 217  0.204  0.454  0.753-  96 1.02  88 1.02 164 1.31
 218  0.204  0.954  0.753-  97 1.02  89 1.02 163 1.31
 219  0.704  0.454  0.753-  98 1.02  90 1.02 166 1.31
 220  0.704  0.954  0.753-  99 1.02  91 1.02 165 1.31
 221  0.454  0.296  0.753-  76 1.02 100 1.02 159 1.31
 222  0.454  0.796  0.753-  77 1.02 101 1.02 160 1.31
 223  0.954  0.296  0.753-  78 1.02 102 1.02 161 1.31
 224  0.954  0.796  0.753-  79 1.02 103 1.02 162 1.31
 225  0.296  0.046  0.753-  80 1.02 104 1.02 163 1.31
 226  0.296  0.546  0.753-  81 1.02 105 1.02 164 1.31
 227  0.796  0.046  0.753-  82 1.02 106 1.02 165 1.31
 228  0.796  0.546  0.753-  83 1.02 107 1.02 166 1.31
 229  0.777  0.515  0.547- 173 1.51 175 1.52 176 1.52 174 1.52
 230  0.514  0.983  0.553- 304 3.16
 231  0.475  0.511  0.553- 305 3.14
 232  0.006  0.013  0.551- 302 3.29
 233  0.031  0.487  0.554- 303 3.12
 234  0.259  0.239  0.554- 306 3.24
 235  0.230  0.765  0.551- 307 3.28
 236  0.734  0.231  0.554- 308 3.24
 237  0.734  0.795  0.554- 309 3.23
 238  0.996  0.985  0.654- 302 3.16 310 3.17
 239  0.011  0.505  0.655- 311 3.12 303 3.20
 240  0.497  0.002  0.655- 312 3.14 304 3.20
 241  0.494  0.504  0.654- 313 3.19 305 3.20
 242  0.263  0.243  0.655- 306 3.10 314 3.12
 243  0.246  0.756  0.654- 307 3.17 315 3.20
 244  0.745  0.269  0.655- 308 3.11 316 3.11
 245  0.749  0.733  0.655- 317 3.16 309 3.17
 246  0.135  0.117  0.608- 302 3.21 306 3.22
 247  0.147  0.609  0.606- 303 3.14 307 3.18
 248  0.637  0.114  0.608- 308 3.20 304 3.27
 249  0.619  0.631  0.607- 305 3.20 309 3.31
 250  0.368  0.384  0.608- 306 3.19 305 3.20
 251  0.364  0.885  0.605- 304 3.17 307 3.21
 252  0.887  0.367  0.611- 308 3.29 303 3.32
 253  0.862  0.890  0.607- 309 3.12 302 3.22
 254  0.127  0.368  0.612- 306 3.21 303 3.23
 255  0.116  0.873  0.606- 307 3.14 302 3.23
 256  0.613  0.365  0.602- 305 3.17 308 3.19
 257  0.616  0.864  0.613- 309 3.16 304 3.17
 258  0.395  0.138  0.604- 306 3.21 304 3.24
 259  0.379  0.634  0.607- 305 3.27 307 3.31
 260  0.882  0.136  0.612- 302 3.16 308 3.23
 261  0.902  0.647  0.610- 303 3.30 309 3.38
 262  0.000  0.000  0.755- 310 3.13 318 3.27
 263  0.000  0.500  0.755- 311 3.13 319 3.27
 264  0.500  0.000  0.755- 312 3.13 320 3.27
 265  0.500  0.500  0.755- 313 3.13 321 3.27
 266  0.250  0.250  0.755- 314 3.13 322 3.27
 267  0.250  0.750  0.755- 315 3.13 323 3.27
 268  0.750  0.250  0.755- 316 3.13 324 3.27
 269  0.750  0.750  0.755- 317 3.13 325 3.27
 270  0.136  0.114  0.705- 310 3.20 314 3.20
 271  0.136  0.614  0.705- 311 3.20 315 3.20
 272  0.636  0.114  0.705- 312 3.20 316 3.20
 273  0.636  0.614  0.705- 313 3.20 317 3.20
 274  0.364  0.386  0.705- 313 3.20 314 3.20
 275  0.364  0.886  0.705- 312 3.20 315 3.20
 276  0.864  0.386  0.705- 311 3.20 316 3.20
 277  0.864  0.886  0.705- 310 3.20 317 3.20
 278  0.114  0.364  0.705- 314 3.21 311 3.21
 279  0.114  0.864  0.705- 315 3.21 310 3.21
 280  0.614  0.364  0.705- 316 3.21 313 3.21
 281  0.614  0.864  0.705- 317 3.21 312 3.21
 282  0.386  0.136  0.705- 314 3.21 312 3.21
 283  0.386  0.636  0.705- 315 3.21 313 3.21
 284  0.886  0.136  0.705- 316 3.21 310 3.21
 285  0.886  0.636  0.705- 317 3.21 311 3.21
 286  0.135  0.115  0.801- 318 3.22 322 3.22
 287  0.135  0.615  0.801- 319 3.22 323 3.22
 288  0.635  0.115  0.801- 320 3.22 324 3.22
 289  0.635  0.615  0.801- 321 3.22 325 3.22
 290  0.365  0.385  0.801- 321 3.22 322 3.22
 291  0.365  0.885  0.801- 320 3.22 323 3.22
 292  0.865  0.385  0.801- 319 3.22 324 3.22
 293  0.865  0.885  0.801- 318 3.22 325 3.22
 294  0.115  0.365  0.801- 319 3.23 322 3.23
 295  0.115  0.865  0.801- 318 3.23 323 3.23
 296  0.615  0.365  0.801- 321 3.23 324 3.23
 297  0.615  0.865  0.801- 320 3.23 325 3.23
 298  0.385  0.135  0.801- 320 3.23 322 3.23
 299  0.385  0.635  0.801- 321 3.23 323 3.23
 300  0.885  0.135  0.801- 318 3.23 324 3.23
 301  0.885  0.635  0.801- 319 3.23 325 3.23
 302  0.997  0.007  0.604- 260 3.16 238 3.16 246 3.21 253 3.22 255 3.23 232 3.29
 303  0.011  0.501  0.604- 233 3.12 247 3.14 239 3.20 254 3.23 261 3.30 252 3.32
 304  0.502  0.994  0.604- 230 3.16 251 3.17 257 3.17 240 3.20 258 3.24 248 3.27
 305  0.500  0.500  0.603- 231 3.14 256 3.17 241 3.20 250 3.20 249 3.20 259 3.27
 306  0.256  0.248  0.606- 242 3.10 250 3.19 258 3.21 254 3.21 246 3.22 234 3.24
 307  0.243  0.756  0.603- 255 3.14 243 3.17 247 3.18 251 3.21 235 3.28 259 3.31
 308  0.747  0.252  0.606- 244 3.11 256 3.19 248 3.20 260 3.23 236 3.24 252 3.29
 309  0.752  0.757  0.604- 253 3.12 257 3.16 245 3.17 237 3.23 249 3.31 261 3.38
 310  0.000  0.000  0.705- 262 3.13 238 3.17 270 3.20 277 3.20 279 3.21 284 3.21
 311  0.000  0.500  0.705- 239 3.12 263 3.13 271 3.20 276 3.20 278 3.21 285 3.21
 312  0.500  0.000  0.705- 264 3.13 240 3.14 272 3.20 275 3.20 281 3.21 282 3.21
 313  0.500  0.500  0.705- 265 3.13 241 3.19 273 3.20 274 3.20 280 3.21 283 3.21
 314  0.250  0.250  0.705- 242 3.12 266 3.13 270 3.20 274 3.20 282 3.21 278 3.21
 315  0.250  0.750  0.705- 267 3.13 243 3.20 271 3.20 275 3.20 283 3.21 279 3.21
 316  0.750  0.250  0.705- 244 3.11 268 3.13 272 3.20 276 3.20 284 3.21 280 3.21
 317  0.750  0.750  0.705- 269 3.13 245 3.16 273 3.20 277 3.20 285 3.21 281 3.21
 318  0.000  0.000  0.807- 286 3.22 293 3.22 300 3.23 295 3.23 262 3.27
 319  0.000  0.500  0.807- 287 3.22 292 3.22 301 3.23 294 3.23 263 3.27
 320  0.500  0.000  0.807- 288 3.22 291 3.22 298 3.23 297 3.23 264 3.27
 321  0.500  0.500  0.807- 289 3.22 290 3.22 299 3.23 296 3.23 265 3.27
 322  0.250  0.250  0.807- 290 3.22 286 3.22 294 3.23 298 3.23 266 3.27
 323  0.250  0.750  0.807- 291 3.22 287 3.22 299 3.23 295 3.23 267 3.27
 324  0.750  0.250  0.807- 292 3.22 288 3.22 296 3.23 300 3.23 268 3.27
 325  0.750  0.750  0.807- 293 3.22 289 3.22 297 3.23 301 3.23 269 3.27
 

IMPORTANT INFORMATION: All symmetrisations will be switched off!
NOSYMM: (Re-)initialisation of all symmetry stuff for point group C_1.


----------------------------------------------------------------------------------------

                                     Primitive cell                                     

  volume of cell :   20385.2105

  direct lattice vectors                    reciprocal lattice vectors
    18.060800552  0.000000000  0.000000000     0.055368531  0.000015077 -0.000000000
    -0.004918649 18.062799454  0.000000000     0.000000000  0.055362404  0.000000000
     0.000000000  0.000000000 62.487499237     0.000000000 -0.000000000  0.016003201

  length of vectors
    18.060800552 18.062800123 62.487499237     0.055368533  0.055362404  0.016003201

  position of ions in fractional coordinates (direct lattice)
     0.407716520  0.284569586  0.560372518
     0.416333086  0.695340465  0.570912407
     0.924744425  0.292917589  0.579227791
     0.925837724  0.814290522  0.572776733
     0.322445567  0.090835649  0.562841701
     0.325141603  0.571457995  0.568079993
     0.796882453  0.104140835  0.564494681
     0.109054477  0.241391440  0.561902976
     0.078869881  0.683544297  0.568954557
     0.582770060  0.185260222  0.565023900
     0.598983058  0.765520545  0.559141193
     0.378433256  0.016806109  0.554171815
     0.255687271  0.621750552  0.554895593
     0.873831247  0.050752650  0.555890482
     0.063001888  0.289564381  0.581693128
     0.992573517  0.693807959  0.581078259
     0.488269815  0.173592577  0.569869840
     0.552704287  0.696493039  0.573442698
     0.306878854  0.436189568  0.571665243
     0.190734074  0.067116757  0.568626122
     0.682668478  0.031976998  0.573447887
     0.457519446  0.365497747  0.554074445
     0.374229012  0.759696430  0.553999479
     0.884040014  0.244231693  0.558095452
     0.971651206  0.873488573  0.555264563
     0.231289387  0.397691515  0.558598787
     0.156567106  0.981476221  0.560997765
     0.684188261  0.938100970  0.565905546
     0.571169906  0.305834627  0.554814217
     0.489575593  0.813619569  0.544785722
     0.999428574  0.204023378  0.544668694
     0.070082086  0.792834063  0.549653761
     0.187673847  0.513557975  0.546958703
     0.274580753  0.937528359  0.551320476
     0.804531999  0.941667336  0.554629304
     0.455086493  0.297915710  0.672989648
     0.441874836  0.815412156  0.670644208
     0.956486679  0.284419535  0.676454086
     0.912903879  0.739478078  0.663084346
     0.296340672  0.040873302  0.675125878
     0.300839553  0.561145284  0.673094161
     0.797295098  0.051154453  0.675500282
     0.832677983  0.469063292  0.665381498
     0.090885061  0.170405721  0.647228453
     0.108562072  0.700354083  0.654940872
     0.576860866  0.164701642  0.646211281
     0.572916815  0.673869752  0.651920858
     0.184998440  0.411681587  0.651238227
     0.164468156  0.930055959  0.643779154
     0.634385930  0.486109294  0.654462382
     0.672495499  0.918139769  0.649243016
     0.063146256  0.188217197  0.673480468
     0.024553028  0.654914268  0.660059327
     0.548252676  0.188860669  0.671805085
     0.543753470  0.713813590  0.675724509
     0.211792095  0.447356678  0.675819681
     0.183253425  0.952200867  0.670342145
     0.697196520  0.434071218  0.669565440
     0.696943465  0.945782329  0.674851592
     0.435770433  0.337296514  0.648290738
     0.416866536  0.829713259  0.643948378
     0.926088177  0.318535563  0.652015848
     0.929230395  0.832434188  0.657703143
     0.342532213  0.062109647  0.651752124
     0.320642287  0.587436428  0.646873706
     0.825007427  0.080136320  0.650044018
     0.850538390  0.542655845  0.647967126
     0.006685399  0.251098826  0.631820525
     0.053924459  0.815849216  0.651244270
     0.510097935  0.256115241  0.629255681
     0.495963976  0.741681168  0.630465945
     0.262541551  0.995623296  0.630059003
     0.250382708  0.495925443  0.631252906
     0.750386291  0.999055503  0.631944512
     0.726647684  0.558496053  0.639035102
     0.448745018  0.301283966  0.768889017
     0.448745007  0.801283913  0.768889017
     0.948744965  0.301283966  0.768889017
     0.948745007  0.801283913  0.768889017
     0.301275995  0.051294496  0.768872961
     0.301276011  0.551294499  0.768872961
     0.801275943  0.051294496  0.768872961
     0.801275984  0.551294499  0.768872961
     0.078771004  0.171180501  0.743441971
     0.078771006  0.671180448  0.743441971
     0.578771004  0.171180501  0.743441971
     0.578770992  0.671180448  0.743441971
     0.171199499  0.421174482  0.743421032
     0.171199501  0.921174508  0.743421032
     0.671199512  0.421174482  0.743421032
     0.671199501  0.921174508  0.743421032
     0.051256000  0.198714991  0.768889017
     0.051256002  0.698714925  0.768889017
     0.551256027  0.198714991  0.768889017
     0.551256016  0.698714925  0.768889017
     0.198723491  0.448703970  0.768872046
     0.198723493  0.948703970  0.768872046
     0.698723518  0.448703970  0.768872046
     0.698723507  0.948703970  0.768872046
     0.421231519  0.328817467  0.743441971
     0.421231508  0.828817440  0.743441971
     0.921231466  0.328817467  0.743441971
     0.921231508  0.828817440  0.743441971
     0.328800503  0.078824997  0.743421032
     0.328800492  0.578824964  0.743421032
     0.828800477  0.078824997  0.743421032
     0.828800519  0.578824964  0.743421032
     0.000003500  0.250001478  0.725821992
     0.000003500  0.750001452  0.725821992
     0.500003506  0.250001478  0.725821992
     0.500003495  0.750001452  0.725821992
     0.250000502  0.000000000  0.725803983
     0.250000517  0.500000000  0.725803983
     0.750000502  0.000000000  0.725803983
     0.750000490  0.500000000  0.725803983
     0.799217624  0.507577790  0.513877684
     0.878136772  0.499908713  0.530777121
     0.757321557  0.618128683  0.532142140
     0.754941669  0.619367369  0.560375327
     0.687124061  0.440963641  0.549006292
     0.667585229  0.532711978  0.556938970
     0.795844514  0.421417140  0.566099799
     0.863394453  0.491021539  0.568175043
     0.858148974  0.373035094  0.538306581
     0.763685421  0.375501327  0.531588014
     0.786225209  0.383306095  0.494141406
     0.879687078  0.409922051  0.497123814
     0.895732513  0.615715986  0.532346832
     0.896147967  0.605230837  0.560714017
     0.861268874  0.687727142  0.549000493
     0.601151067  0.504352801  0.524488083
     0.681481761  0.479242742  0.510123973
     0.666866253  0.573031366  0.518300688
     0.703778306  0.497989358  0.587038924
     0.774146656  0.567478949  0.590429922
     0.785433283  0.478392012  0.601142697
     0.822312272  0.258285649  0.511734158
     0.848637102  0.274929887  0.485125992
     0.924857592  0.158584355  0.498794009
     0.974067403  0.384542353  0.516126242
     0.056441345  0.125463300  0.503929009
     0.104261334  0.351299679  0.521268994
     0.148102599  0.222407921  0.514890460
     0.996723001  0.238829986  0.559002371
     0.023995860  0.776047773  0.559963867
     0.520871808  0.274713364  0.558432921
     0.486570957  0.764729741  0.555099796
     0.240401592  0.509771218  0.555582315
     0.267686152  0.994960192  0.556750761
     0.779019274  0.993222086  0.560360736
     0.008174113  0.244634275  0.649197963
     0.019772151  0.768336827  0.655587669
     0.506212275  0.251246316  0.646593133
     0.494459452  0.751209411  0.647691863
     0.253086663  0.499575665  0.648673261
     0.252877519  0.996665798  0.647272040
     0.741873350  0.515361703  0.650489542
     0.749276093  0.999043122  0.649411812
     0.499988984  0.249994984  0.743277021
     0.499989025  0.749994958  0.743277021
     0.999988984  0.249994984  0.743277021
     0.999989025  0.749994958  0.743277021
     0.250000502  0.000001000  0.743255960
     0.250000517  0.500001003  0.743255960
     0.750000502  0.000001000  0.743255960
     0.750000491  0.500001003  0.743255960
     0.938984763  0.274545335  0.506604348
     0.964501639  0.201200680  0.503455830
     0.990837199  0.327625083  0.512987553
     0.038525870  0.182570536  0.506327254
     0.065589458  0.308897897  0.515837610
     0.090047354  0.236890806  0.512360901
     0.820749066  0.481609610  0.528583995
     0.786093268  0.598773362  0.546573616
     0.694358915  0.499040824  0.544591347
     0.803474062  0.481196785  0.567669327
     0.818316663  0.397434892  0.526996153
     0.836199365  0.373547284  0.503986759
     0.864861880  0.627193731  0.547091969
     0.660774863  0.514966301  0.522934488
     0.763729452  0.508870964  0.587319314
     0.859003779  0.292845441  0.501697514
     0.059410268  0.256884372  0.568365999
     0.030463748  0.712385781  0.569910498
     0.529905006  0.204875361  0.563517007
     0.549606923  0.738903375  0.562528162
     0.457437345  0.309495699  0.556909912
     0.421911272  0.736323837  0.559672061
     0.931316594  0.260059705  0.565870749
     0.966720143  0.820931206  0.561489624
     0.261810977  0.443760204  0.561964206
     0.200489576  0.016490026  0.562119938
     0.709208010  0.988719912  0.566255348
     0.326368463  0.037859682  0.557314717
     0.277400094  0.571163067  0.559226659
     0.819060949  0.054130403  0.560394923
     0.056411909  0.198226190  0.657382156
     0.052513556  0.703371524  0.657097980
     0.545926148  0.198734341  0.655662818
     0.539067246  0.710465001  0.659384021
     0.214783883  0.449995296  0.659503796
     0.196880397  0.957823251  0.654545590
     0.688660801  0.475081913  0.658567635
     0.704383824  0.951295215  0.658714454
     0.463387179  0.297993693  0.656761915
     0.447990273  0.801239035  0.654851376
     0.960856557  0.284886663  0.660194791
     0.948919485  0.779793770  0.658643639
     0.298928068  0.035718167  0.658914017
     0.293603501  0.552280496  0.656919661
     0.792440437  0.046469146  0.659157291
     0.812971789  0.508556290  0.655094039
     0.045862501  0.204119496  0.752725994
     0.045862500  0.704119456  0.752725994
     0.545862507  0.204119496  0.752725994
     0.545862496  0.704119456  0.752725994
     0.204119002  0.454101003  0.752704994
     0.204118991  0.954100951  0.752704994
     0.704118976  0.454101003  0.752704994
     0.704118964  0.954100951  0.752704994
     0.454140018  0.295888490  0.752726971
     0.454140007  0.795888516  0.752726971
     0.954140018  0.295888490  0.752726971
     0.954140060  0.795888516  0.752726971
     0.295882492  0.045900498  0.752704994
     0.295882481  0.545900528  0.752704994
     0.795882439  0.045900498  0.752704994
     0.795882481  0.545900528  0.752704994
     0.776645742  0.514934992  0.546753034
     0.513653134  0.983464467  0.553188159
     0.474913991  0.511305150  0.553060570
     0.006407144  0.012721270  0.551394648
     0.030607846  0.486928820  0.554230604
     0.259201906  0.239419182  0.553803761
     0.230027366  0.765247633  0.550633815
     0.734213582  0.231191346  0.554451290
     0.733771212  0.794895286  0.554077436
     0.995838130  0.985424767  0.654239315
     0.010564917  0.504889912  0.654943253
     0.497128716  0.002381198  0.654665670
     0.494393397  0.503816429  0.653839272
     0.262591354  0.242671600  0.655102342
     0.245905045  0.756020390  0.653630856
     0.745412684  0.268604749  0.655286583
     0.749399749  0.733072133  0.654542049
     0.134971046  0.116991605  0.608441398
     0.147016404  0.608587926  0.606433855
     0.636980982  0.113530689  0.608349827
     0.619249834  0.630896487  0.606841102
     0.367546179  0.384166777  0.607938062
     0.364284124  0.885044987  0.605282563
     0.887419802  0.366930254  0.611164294
     0.861607810  0.890305064  0.606773584
     0.127029334  0.368443990  0.611803948
     0.115572797  0.873177489  0.605943828
     0.612545805  0.365131595  0.602317614
     0.616248443  0.864009485  0.612631994
     0.395391451  0.137861296  0.603838121
     0.379373143  0.634187526  0.607074914
     0.882079493  0.135734341  0.612009800
     0.901860246  0.646692768  0.609743782
     0.000000000  0.000000000  0.754927972
     0.000000000  0.500000000  0.754927972
     0.500000000  0.000000000  0.754927972
     0.499999989  0.500000000  0.754927972
     0.250000496  0.250000000  0.754939022
     0.250000511  0.749999974  0.754939022
     0.750000470  0.250000000  0.754939022
     0.750000458  0.749999974  0.754939022
     0.135790500  0.114209997  0.704782994
     0.135790502  0.614209984  0.704782994
     0.635790447  0.114209997  0.704782994
     0.635790488  0.614209984  0.704782994
     0.364209516  0.385789989  0.704782994
     0.364209505  0.885789963  0.704782994
     0.864209542  0.385789989  0.704782994
     0.864209531  0.885789963  0.704782994
     0.114217990  0.364218986  0.704780979
     0.114217992  0.864218986  0.704780979
     0.614218004  0.364218986  0.704780979
     0.614217992  0.864218986  0.704780979
     0.385782012  0.135781489  0.704782017
     0.385782001  0.635781489  0.704782017
     0.885781985  0.135781489  0.704782017
     0.885782027  0.635781489  0.704782017
     0.134667000  0.115332001  0.801256025
     0.134666989  0.615331988  0.801256025
     0.634666987  0.115332001  0.801256025
     0.634666976  0.615331988  0.801256025
     0.365333002  0.384667985  0.801256025
     0.365332990  0.884667959  0.801256025
     0.865332949  0.384667985  0.801256025
     0.865332938  0.884667959  0.801256025
     0.115328503  0.365337004  0.801264999
     0.115328505  0.865336978  0.801264999
     0.615328503  0.365337004  0.801264999
     0.615328492  0.865336978  0.801264999
     0.384671513  0.134662996  0.801264999
     0.384671501  0.634662970  0.801264999
     0.884671486  0.134662996  0.801264999
     0.884671528  0.634662970  0.801264999
     0.996718792  0.006605038  0.603963818
     0.010598018  0.501145657  0.603668287
     0.502005474  0.993776663  0.603596740
     0.500266070  0.500015787  0.602739818
     0.255728202  0.247573550  0.605571317
     0.243146868  0.755501283  0.602862157
     0.747327815  0.251540320  0.605773079
     0.751857399  0.757362508  0.604275526
     0.000000500  0.000000500  0.704828963
     0.000000500  0.500000475  0.704828963
     0.500000475  0.000000500  0.704828963
     0.500000464  0.500000475  0.704828963
     0.249999994  0.249999472  0.704824995
     0.250000010  0.749999498  0.704824995
     0.749999994  0.249999472  0.704824995
     0.749999983  0.749999498  0.704824995
     0.000000000  0.000000000  0.807317968
     0.000000000  0.500000000  0.807317968
     0.500000000  0.000000000  0.807317968
     0.499999989  0.500000000  0.807317968
     0.249999994  0.250000000  0.807317968
     0.250000010  0.749999974  0.807317968
     0.749999994  0.250000000  0.807317968
     0.749999983  0.749999974  0.807317968

  ion indices of the primitive-cell ions
   primitive index   ion index
                 1           1
                 2           2
                 3           3
                 4           4
                 5           5
                 6           6
                 7           7
                 8           8
                 9           9
                10          10
                11          11
                12          12
                13          13
                14          14
                15          15
                16          16
                17          17
                18          18
                19          19
                20          20
                21          21
                22          22
                23          23
                24          24
                25          25
                26          26
                27          27
                28          28
                29          29
                30          30
                31          31
                32          32
                33          33
                34          34
                35          35
                36          36
                37          37
                38          38
                39          39
                40          40
                41          41
                42          42
                43          43
                44          44
                45          45
                46          46
                47          47
                48          48
                49          49
                50          50
                51          51
                52          52
                53          53
                54          54
                55          55
                56          56
                57          57
                58          58
                59          59
                60          60
                61          61
                62          62
                63          63
                64          64
                65          65
                66          66
                67          67
                68          68
                69          69
                70          70
                71          71
                72          72
                73          73
                74          74
                75          75
                76          76
                77          77
                78          78
                79          79
                80          80
                81          81
                82          82
                83          83
                84          84
                85          85
                86          86
                87          87
                88          88
                89          89
                90          90
                91          91
                92          92
                93          93
                94          94
                95          95
                96          96
                97          97
                98          98
                99          99
               100         100
               101         101
               102         102
               103         103
               104         104
               105         105
               106         106
               107         107
               108         108
               109         109
               110         110
               111         111
               112         112
               113         113
               114         114
               115         115
               116         116
               117         117
               118         118
               119         119
               120         120
               121         121
               122         122
               123         123
               124         124
               125         125
               126         126
               127         127
               128         128
               129         129
               130         130
               131         131
               132         132
               133         133
               134         134
               135         135
               136         136
               137         137
               138         138
               139         139
               140         140
               141         141
               142         142
               143         143
               144         144
               145         145
               146         146
               147         147
               148         148
               149         149
               150         150
               151         151
               152         152
               153         153
               154         154
               155         155
               156         156
               157         157
               158         158
               159         159
               160         160
               161         161
               162         162
               163         163
               164         164
               165         165
               166         166
               167         167
               168         168
               169         169
               170         170
               171         171
               172         172
               173         173
               174         174
               175         175
               176         176
               177         177
               178         178
               179         179
               180         180
               181         181
               182         182
               183         183
               184         184
               185         185
               186         186
               187         187
               188         188
               189         189
               190         190
               191         191
               192         192
               193         193
               194         194
               195         195
               196         196
               197         197
               198         198
               199         199
               200         200
               201         201
               202         202
               203         203
               204         204
               205         205
               206         206
               207         207
               208         208
               209         209
               210         210
               211         211
               212         212
               213         213
               214         214
               215         215
               216         216
               217         217
               218         218
               219         219
               220         220
               221         221
               222         222
               223         223
               224         224
               225         225
               226         226
               227         227
               228         228
               229         229
               230         230
               231         231
               232         232
               233         233
               234         234
               235         235
               236         236
               237         237
               238         238
               239         239
               240         240
               241         241
               242         242
               243         243
               244         244
               245         245
               246         246
               247         247
               248         248
               249         249
               250         250
               251         251
               252         252
               253         253
               254         254
               255         255
               256         256
               257         257
               258         258
               259         259
               260         260
               261         261
               262         262
               263         263
               264         264
               265         265
               266         266
               267         267
               268         268
               269         269
               270         270
               271         271
               272         272
               273         273
               274         274
               275         275
               276         276
               277         277
               278         278
               279         279
               280         280
               281         281
               282         282
               283         283
               284         284
               285         285
               286         286
               287         287
               288         288
               289         289
               290         290
               291         291
               292         292
               293         293
               294         294
               295         295
               296         296
               297         297
               298         298
               299         299
               300         300
               301         301
               302         302
               303         303
               304         304
               305         305
               306         306
               307         307
               308         308
               309         309
               310         310
               311         311
               312         312
               313         313
               314         314
               315         315
               316         316
               317         317
               318         318
               319         319
               320         320
               321         321
               322         322
               323         323
               324         324
               325         325

----------------------------------------------------------------------------------------

 
 
 KPOINTS: Automatic Mesh                          

Automatic generation of k-mesh.
 Grid dimensions read from file:
 generate k-points for:    3    3    1

 Generating k-lattice:

  Cartesian coordinates                     Fractional coordinates (reciprocal lattice)
     0.018456177  0.000005026 -0.000000000     0.333333333  0.000000000  0.000000000
     0.000000000  0.018454135  0.000000000     0.000000000  0.333333333  0.000000000
     0.000000000 -0.000000000  0.016003201     0.000000000  0.000000000  1.000000000

  Length of vectors
     0.018456178  0.018454135  0.016003201

  Shift w.r.t. Gamma in fractional coordinates (k-lattice)
     0.000000000  0.000000000  0.000000000

 
 Subroutine IBZKPT returns following result:
 ===========================================
 
 Found      5 irreducible k-points:
 
 Following reciprocal coordinates:
            Coordinates               Weight
  0.000000  0.000000  0.000000      1.000000
  0.333333  0.000000  0.000000      2.000000
  0.000000  0.333333  0.000000      2.000000
  0.333333  0.333333  0.000000      2.000000
 -0.333333  0.333333  0.000000      2.000000
 
 Following cartesian coordinates:
            Coordinates               Weight
  0.000000  0.000000  0.000000      1.000000
  0.018456  0.000005  0.000000      2.000000
  0.000000  0.018454  0.000000      2.000000
  0.018456  0.018459  0.000000      2.000000
 -0.018456  0.018449  0.000000      2.000000
 


--------------------------------------------------------------------------------------------------------




 Dimension of arrays:
   k-points           NKPTS =      5   k-points in BZ     NKDIM =      5   number of bands    NBANDS=    732
   number of dos      NEDOS =    301   number of ions     NIONS =    325
   non local maximal  LDIM  =      5   non local SUM 2l+1 LMDIM =     13
   total plane-waves  NPLWV = ******
   max r-space proj   IRMAX =   3336   max aug-charges    IRDMAX=  19845
   dimension x,y,z NGX =   100 NGY =  100 NGZ =  350
   dimension x,y,z NGXF=   200 NGYF=  200 NGZF=  700
   support grid    NGXF=   200 NGYF=  200 NGZF=  700
   ions per type =             143  39  47  72  24
   NGX,Y,Z   is equivalent  to a cutoff of   9.20,  9.20,  9.31 a.u.
   NGXF,Y,Z  is equivalent  to a cutoff of  18.41, 18.41, 18.62 a.u.

 SYSTEM =  PSC                                     
 POSCAR =   H  C  N  I Pb                          

 Startparameter for this run:
   NWRITE =      2    write-flag & timer
   PREC   = normal    normal or accurate (medium, high low for compatibility)
   ISTART =      0    job   : 0-new  1-cont  2-samecut
   ICHARG =      1    charge: 1-file 2-atom 10-const
   ISPIN  =      1    spin polarized calculation?
   LNONCOLLINEAR =      F non collinear calculations
   LSORBIT =      F    spin-orbit coupling
   INIWAV =      1    electr: 0-lowe 1-rand  2-diag
   LASPH  =      F    aspherical Exc in radial PAW
 Electronic Relaxation 1
   ENCUT  =  500.0 eV  36.75 Ry    6.06 a.u.  32.93 32.93113.93*2*pi/ulx,y,z
   ENINI  =  500.0     initial cutoff
   ENAUG  =  644.9 eV  augmentation charge cutoff
   NELM   =    600;   NELMIN=  2; NELMDL=  0     # of ELM steps 
   EDIFF  = 0.1E-03   stopping-criterion for ELM
   LREAL  =      T    real-space projection
   NLSPLINE    = F    spline interpolate recip. space projectors
   LCOMPAT=      F    compatible to vasp.4.4
   GGA_COMPAT  = F    GGA compatible to vasp.4.4-vasp.4.6
   LMAXPAW     = -100 max onsite density
   LMAXMIX     =    2 max onsite mixed and CHGCAR
   VOSKOWN=      0    Vosko Wilk Nusair interpolation
   ROPT   =   -0.00050  -0.00050  -0.00050  -0.00050
   ROPT   =   -0.00050
 Ionic relaxation
   EDIFFG = 0.1E-02   stopping-criterion for IOM
   NSW    =      0    number of steps for IOM
   NBLOCK =      1;   KBLOCK =      1    inner block; outer block 
   IBRION =     -1    ionic relax: 0-MD 1-quasi-New 2-CG
   NFREE  =      0    steps in history (QN), initial steepest desc. (CG)
   ISIF   =      2    stress and relaxation
   IWAVPR =     10    prediction:  0-non 1-charg 2-wave 3-comb
   ISYM   =      0    0-nonsym 1-usesym 2-fastsym
   LCORR  =      T    Harris-Foulkes like correction to forces

   POTIM  = 0.5000    time-step for ionic-motion
   TEIN   =    0.0    initial temperature
   TEBEG  =    0.0;   TEEND  =   0.0 temperature during run
   SMASS  =  -3.00    Nose mass-parameter (am)
   estimated Nose-frequenzy (Omega)   =  0.10E-29 period in steps = 0.13E+47 mass=  -0.745E-26a.u.
   SCALEE = 1.0000    scale energy and forces
   NPACO  =    256;   APACO  = 16.0  distance and # of slots for P.C.
   PSTRESS=    0.0 pullay stress

  Mass of Ions in am
   POMASS =   1.00 12.01 14.00126.90207.20
  Ionic Valenz
   ZVAL   =   1.00  4.00  5.00  7.00  4.00
  Atomic Wigner-Seitz radii
   RWIGS  =  -1.00 -1.00 -1.00 -1.00 -1.00
  virtual crystal weights 
   VCA    =   1.00  1.00  1.00  1.00  1.00
   NELECT =    1134.0000    total number of electrons
   NUPDOWN=      -1.0000    fix difference up-down

 DOS related values:
   EMIN   =  10.00;   EMAX   =-10.00  energy-range for DOS
   EFERMI =   0.00
   ISMEAR =     0;   SIGMA  =   0.05  broadening in eV -4-tet -1-fermi 0-gaus

 Electronic relaxation 2 (details)
   IALGO  =     38    algorithm
   LDIAG  =      T    sub-space diagonalisation (order eigenvalues)
   LSUBROT=      F    optimize rotation matrix (better conditioning)
   TURBO    =      0    0=normal 1=particle mesh
   IRESTART =      0    0=no restart 2=restart with 2 vectors
   NREBOOT  =      0    no. of reboots
   NMIN     =      0    reboot dimension
   EREF     =   0.00    reference energy to select bands
   IMIX   =      4    mixing-type and parameters
     AMIX     =   0.40;   BMIX     =  0.01
     AMIX_MAG =   1.60;   BMIX_MAG =  0.01
     AMIN     =   0.01
     WC   =   100.;   INIMIX=   1;  MIXPRE=   1;  MAXMIX= -45

 Intra band minimization:
   WEIMIN = 0.0000     energy-eigenvalue tresh-hold
   EBREAK =  0.34E-07  absolut break condition
   DEPER  =   0.30     relativ break condition  

   TIME   =   0.40     timestep for ELM

  volume/ion in A,a.u.               =      62.72       423.28
  Fermi-wavevector in a.u.,A,eV,Ry     =   0.624944  1.180972  5.313816  0.390554
  Thomas-Fermi vector in A             =   1.685677
 
 Write flags
   LWAVE        =      F    write WAVECAR
   LDOWNSAMPLE  =      F    k-point downsampling of WAVECAR
   LCHARG       =      T    write CHGCAR
   LVTOT        =      T    write LOCPOT, total local potential
   LVHAR        =      F    write LOCPOT, Hartree potential only
   LELF         =      F    write electronic localiz. function (ELF)
   LORBIT       =      0    0 simple, 1 ext, 2 COOP (PROOUT), +10 PAW based schemes


 Dipole corrections
   LMONO  =      F    monopole corrections only (constant potential shift)
   LDIPOL =      T    correct potential (dipole corrections)
   IDIPOL =      3    1-x, 2-y, 3-z, 4-all directions 
   EPSILON=  1.0000000 bulk dielectric constant

 Exchange correlation treatment:
   GGA     =    --    GGA type
   LEXCH   =     8    internal setting for exchange type
   VOSKOWN=      0    Vosko Wilk Nusair interpolation
   LHFCALC =     F    Hartree Fock is set to
   LHFONE  =     F    Hartree Fock one center treatment
   AEXX    =    0.0000 exact exchange contribution

 Linear response parameters
   LEPSILON=     F    determine dielectric tensor
   LRPA    =     F    only Hartree local field effects (RPA)
   LNABLA  =     F    use nabla operator in PAW spheres
   LVEL    =     F    velocity operator in full k-point grid
   LINTERFAST=   F  fast interpolation
   KINTER  =     0    interpolate to denser k-point grid
   CSHIFT  =0.1000    complex shift for real part using Kramers Kronig
   OMEGAMAX=  -1.0    maximum frequency
   DEG_THRESHOLD= 0.2000000E-02 threshold for treating states as degnerate
   RTIME   =   -0.100 relaxation time in fs
  (WPLASMAI=    0.000 imaginary part of plasma frequency in eV, 0.658/RTIME)
   DFIELD  = 0.0000000 0.0000000 0.0000000 field for delta impulse in time
 
 Orbital magnetization related:
   ORBITALMAG=     F  switch on orbital magnetization
   LCHIMAG   =     F  perturbation theory with respect to B field
   DQ        =  0.001000  dq finite difference perturbation B field
   LLRAUG    =     F  two centre corrections for induced B field



--------------------------------------------------------------------------------------------------------


 Static calculation
 charge density and potential will be updated during run
 non-spin polarized calculation
 Variant of blocked Davidson
 Davidson routine will perform the subspace rotation
 perform sub-space diagonalisation
    after iterative eigenvector-optimisation
 modified Broyden-mixing scheme, WC =      100.0
 initial mixing is a Kerker type mixing with AMIX =  0.4000 and BMIX =      0.0100
 Hartree-type preconditioning will be used
 using additional bands           165
 real space projection scheme for non local part
[...]
     13.54561      0.00000     45.35368         0.004941     -0.008859      0.012927
     13.54315      9.03140     45.35368        -0.002585      0.010729     -0.006557
     14.43201      9.16828     32.11093         0.064102     -0.068528      0.104616
     15.85739      9.02975     33.16693         0.028902      0.008162      0.041208
     13.67479     11.16513     33.25223         0.053041      0.013773      0.076264
     13.63180     11.18751     35.01645        -0.050336     -0.006990      0.005026
     12.40784      7.96504     34.30603        -0.077687     -0.143043      0.073462
     12.05450      9.62227     34.80172        -0.079735     -0.016927     -0.004129
     14.37152      7.61197     35.37416        -0.066674     -0.134538     -0.082314
     15.59118      8.86922     35.50384         0.038973      0.064658      0.065122
     15.49702      6.73806     33.63743         0.009515      0.039658     -0.055886
     13.79092      6.78261     33.21761         0.095049     -0.024213     -0.075813
     14.19797      6.92358     30.87766         0.136245     -0.008134      0.048971
     15.88584      7.40434     31.06402        -0.146437     -0.138311      0.085002
     16.17462     11.12155     33.26502        -0.000419      0.009128      0.023813
     16.18217     10.93216     35.03762         0.025436      0.018915     -0.017973
     15.55182     12.42228     34.30567        -0.002307     -0.110249     -0.029340
     10.85479      9.11002     32.77395        -0.035219      0.030780     -0.000731
     12.30575      8.65647     31.87637         0.108453     -0.051183     -0.044504
     12.04132     10.35055     32.38731        -0.008328      0.086279     -0.117322
     12.70835      8.99508     36.68259         0.227853      0.053622     -0.040541
     13.97892     10.25026     36.89449        -0.052797      0.053738     -0.009646
     14.18320      8.64110     37.56390         0.058387     -0.015325     -0.044856
     14.85035      4.66536     31.97699         0.030277     -0.008197     -0.032753
     15.32571      4.96600     30.31431        -0.039368     -0.014188     -0.035822
     16.70289      2.86448     31.16839        -0.038176     -0.048736     -0.041482
     17.59055      6.94591     32.25144         0.015920      0.013090      0.001919
      1.01876      2.26622     31.48926        -0.013693      0.017655      0.009354
      1.88132      6.34546     32.57280         0.001803      0.033096     -0.013030
      2.67376      4.01731     32.17422        -0.050494      0.023912     -0.035778
     18.00044      4.31394     34.93066         0.104850      0.094947      0.071125
      0.42957     14.01760     34.99074        -0.077186      0.034053      0.161928
      9.40601      4.96209     34.89508         0.237589      0.105872     -0.077210
      8.78410     13.81316     34.68680         0.611449      0.051279      0.122265
      4.33934      9.20790     34.71695         0.026683      0.051783      0.045507
      4.82973     17.97177     34.78996         0.010252     -0.088750     -0.051879
     14.06483     17.94037     35.01554         0.045479      0.016492     -0.076842
      0.14643      4.41878     40.56676        -0.048961      0.026704      0.230841
      0.35332     13.87831     40.96603         0.252394     -0.507710      0.059980
      9.14136      4.53821     40.40399         0.310849     -0.363429      0.288179
      8.92664     13.56894     40.47264        -0.001828     -0.006841      0.105253
      4.56849      9.02374     40.53397        -0.320525     -0.445343      0.116072
      4.56227     18.00257     40.44641        -0.067964     -0.052261      0.080607
     13.39629      9.30888     40.64746         0.498783      0.093722      0.070804
     13.52761     18.04552     40.58012        -0.381325     -0.361595      0.163383
      9.02897      4.51561     46.44552         0.009078      0.003011      0.025575
      9.02651     13.54701     46.44552         0.026069     -0.011466      0.043021
     18.05937      4.51561     46.44552         0.017362     -0.000259      0.037349
     18.05691     13.54701     46.44552         0.014928     -0.002851     -0.011670
      4.51521      0.00002     46.44421         0.001060     -0.001475      0.053832
      4.51275      9.03142     46.44421        -0.005707     -0.003948      0.029097
     13.54561      0.00002     46.44421        -0.009189     -0.011617      0.033691
     13.54315      9.03142     46.44421         0.008040      0.015222      0.020576
     16.95747      4.95906     31.65644         0.227662     -0.268737     -0.151046
     17.41868      3.63425     31.45970        -0.295696      0.323869      0.113600
     17.89370      5.91783     32.05531         0.152803     -0.020796      0.035863
      0.69491      3.29773     31.63912         0.217449      0.005177      0.005020
      1.18308      5.57956     32.23340        -0.108678      0.142430      0.020055
      1.62516      4.27891     32.01615        -0.026977     -0.188628     -0.014372
     14.82102      8.69922     33.02989        -0.095268      0.076568     -0.175459
     14.19453     10.81552     34.15402        -0.011707      0.009254     -0.084916
     12.53822      9.01407     34.03015         0.027101     -0.021557     -0.040241
     14.50902      8.69176     35.47224         0.046677      0.005280      0.073059
     14.77750      7.17879     32.93067         0.008495      0.103948      0.018995
     15.10059      6.74731     31.49287        -0.079160      0.306240     -0.183340
     15.61701     11.32887     34.18641         0.040914      0.085792      0.011660
     11.93159      9.30173     32.67687        -0.107669     -0.027395     -0.029233
     13.79106      9.19163     36.70012        -0.168948      0.041042      0.029654
     15.51286      5.28961     31.34982        -0.039965     -0.229041      0.010768
      1.07173      4.64005     35.51577        -0.022027     -0.170514     -0.229266
      0.54670     12.86768     35.61228         0.004350     -0.025659     -0.039272
      9.56950      3.70062     35.21277         0.174657     -0.135812      0.059731
      9.92271     13.34666     35.15098         0.063812      0.161704     -0.078468
      8.26016      5.59036     34.79991        -0.297160     -0.045938      0.059480
      7.61643     13.30007     34.97251        -0.214793      0.045560     -0.119803
     16.81904      4.69741     35.35985         0.019377     -0.054477     -0.200886
     17.45570     14.82832     35.08608        -0.031918      0.012036      0.016738
      4.72633      8.01555     35.11574        -0.078297      0.048908     -0.090699
      3.62092      0.29786     35.12547         0.372414     -0.262497     -0.173283
     12.80400     17.85905     35.38388         0.364154      0.056602     -0.032954
      5.89429      0.68385     34.82520        -0.189889     -0.238386     -0.071225
      5.00726     10.31680     34.94468        -0.157600      0.004120     -0.100468
     14.79263      0.97775     35.01768        -0.099845     -0.469089     -0.110430
      1.01787      3.58052     41.07817        -0.017406      0.007641      0.080771
      0.94498     12.70486     41.06041        -0.224429      0.193575     -0.075227
      9.85889      3.58970     40.97073        -0.119739      0.129657      0.067505
      9.73249     12.83299     41.20326        -0.011273      0.096642      0.366887
      3.87696      8.12817     41.21074         0.186785      0.217425      0.007468
      3.55111     17.30097     40.90092        -0.088613     -0.045646     -0.014384
     12.43543      8.58131     41.15224        -0.230490     -0.029661     -0.053746
     12.71706     17.18305     41.16142         0.214040      0.211671     -0.085161
      8.36768      5.38260     41.03941        -0.122434      0.099456      0.265160
      8.08712     14.47262     40.92002         0.000322      0.033143      0.031948
     17.35244      5.14585     41.25392         0.248802     -0.194488      0.090538
     17.13441     14.08526     41.15699         0.035572      0.277141     -0.036724
      5.39870      0.64517     41.17389         0.300935      0.255681     -0.104242
      5.30000      9.97573     41.04927         0.171709      0.248682      0.489678
     14.31188      0.83936     41.18909         0.111050      0.135581      0.402423
     14.68042      9.18595     40.93519        -0.361784     -0.072160     -0.111888
      0.82731      3.68697     47.03596         0.017877     -0.023919     -0.095065
      0.82485     12.71837     47.03596         0.025908     -0.020937     -0.053894
      9.85771      3.68697     47.03596         0.024964     -0.025280     -0.082039
      9.85525     12.71837     47.03596         0.007052     -0.012657     -0.080693
      3.68432      8.20234     47.03465        -0.009232     -0.016816     -0.065512
      3.68186     17.23373     47.03465        -0.012080     -0.009802     -0.070733
     12.71472      8.20234     47.03465        -0.018751     -0.026281     -0.052163
     12.71226     17.23373     47.03465        -0.012961     -0.006167     -0.074475
      8.20068      5.34457     47.03603        -0.021426      0.018765     -0.082607
      8.19822     14.37597     47.03603        -0.029610      0.026164     -0.086549
     17.23108      5.34457     47.03603        -0.030347      0.021768     -0.106956
     17.22862     14.37597     47.03603        -0.023726      0.030862     -0.057173
      5.34365      0.82909     47.03465         0.007152      0.010274     -0.071597
      5.34119      9.86049     47.03465         0.019511      0.014131     -0.057790
     14.37405      0.82909     47.03465         0.018438      0.022211     -0.067083
     14.37159      9.86049     47.03465         0.007510      0.002806     -0.058161
     14.02431      9.30117     34.16523         0.068014      0.034088      0.009107
      9.27215     17.76412     34.56734        -0.016105     -0.014745      0.000342
      8.57481      9.23560     34.55937        -0.056460     -0.043508      0.015536
      0.11566      0.22978     34.45527         0.002429     -0.001397      0.005215
      0.55041      8.79530     34.63248        -0.033616     -0.020800     -0.033293
      4.68022      4.32458     34.60581        -0.023336     -0.006496      0.017178
      4.15071     13.82251     34.40773        -0.014484     -0.004390      0.013806
     13.25935      4.17596     34.64627        -0.015299     -0.000949      0.020008
     13.24859     14.35803     34.62291         0.035893     -0.018436     -0.027935
     17.98079     17.79953     40.88178        -0.011393      0.004195      0.002481
      0.18833      9.11973     40.92577        -0.018925     -0.008184      0.029496
      8.97853      0.04301     40.90842        -0.003471      0.011550      0.011809
      8.92666      9.10034     40.85678         0.009992      0.012958      0.046960
      4.74142      4.38333     40.93571         0.002117     -0.016593      0.007380
      4.43752     13.65584     40.84376        -0.005285     -0.024000     -0.009845
     13.46143      4.85175     40.94722        -0.003841     -0.003631     -0.009220
     13.53115     13.24133     40.90070         0.011657      0.016159     -0.012829
      2.43711      2.11320     38.01998         0.010582      0.000418      0.003972
      2.65224     10.99280     37.89454        -0.007302      0.001654     -0.027414
     11.50383      2.05068     38.01426         0.019675      0.000986     -0.018533
     11.18104     11.39576     37.91998        -0.053972      0.024876      0.009046
      6.63629      6.93913     37.98853         0.012732      0.000878     -0.016343
      6.57491     15.98639     37.82259         0.013469     -0.004285     -0.023294
     16.02571      6.62779     38.19013         0.063823      0.011890     -0.006737
     15.55695     16.08140     37.91576         0.029372      0.031599     -0.011841
      2.29244      6.65513     38.23010        -0.030306     -0.020110     -0.035499
      2.08304     15.77203     37.86391        -0.012268     -0.007043     -0.026844
     11.06127      6.59530     37.63732         0.006270      0.003979     -0.009952
     11.12569     15.60643     38.28184         0.037191     -0.002476     -0.040777
      7.14041      2.49016     37.73233        -0.012263      0.008183      0.002271
      6.84866     11.45520     37.93459         0.003547     -0.001371     -0.000525
     15.93039      2.45174     38.24296        -0.014880     -0.024139      0.021305
     16.28514     11.68108     38.10136         0.010636     -0.007776     -0.021570
      0.00000      0.00000     47.17356         0.001244      0.006175      0.372573
     -0.00246      9.03140     47.17356        -0.000693     -0.009635      0.452956
      9.03040      0.00000     47.17356         0.000926     -0.001525      0.446889
      9.02794      9.03140     47.17356        -0.004568     -0.000523      0.383028
      4.51398      4.51570     47.17425        -0.002008     -0.004886      0.418527
      4.51152     13.54710     47.17425         0.003702      0.004169      0.348422
     13.54438      4.51570     47.17425         0.004970      0.001655      0.411317
     13.54192     13.54710     47.17425        -0.004738      0.000085      0.422005
      2.45192      2.06295     44.04013         0.007975     -0.028385     -0.041723
      2.44946     11.09435     44.04013         0.079686     -0.021708     -0.001697
     11.48232      2.06295     44.04013         0.005952      0.021508     -0.085210
     11.47986     11.09435     44.04013        -0.091959      0.020870      0.005413
      6.57602      6.96845     44.04013         0.010944     -0.023387     -0.065747
      6.57356     15.99985     44.04013         0.033275     -0.016393     -0.070494
     15.60642      6.96845     44.04013         0.002864     -0.000279     -0.098093
     15.60396     15.99985     44.04013        -0.045937      0.049134     -0.037998
      2.06108      6.57881     44.04000         0.025368     -0.054878     -0.047162
      2.05862     15.61021     44.04000         0.057288      0.082771     -0.054433
     11.09148      6.57881     44.04000        -0.018223      0.004645     -0.034783
     11.08902     15.61021     44.04000        -0.031163     -0.005733     -0.051268
      6.96686      2.45259     44.04007         0.016267     -0.014203     -0.010494
      6.96440     11.48399     44.04007        -0.032131      0.003910     -0.067544
     15.99726      2.45259     44.04007         0.012192      0.021911     -0.066080
     15.99481     11.48399     44.04007         0.018796     -0.017151     -0.072184
      2.43163      2.08322     50.06849         0.006476     -0.013179      0.019942
      2.42917     11.11462     50.06849         0.019272     -0.004531      0.025546
     11.46203      2.08322     50.06849         0.013202     -0.007888      0.021453
     11.45957     11.11462     50.06849         0.004178     -0.015442      0.024080
      6.59631      6.94818     50.06849        -0.010516      0.009188      0.022566
      6.59385     15.97958     50.06849        -0.015225      0.005666      0.022286
     15.62671      6.94818     50.06849        -0.013995      0.002300      0.020808
     15.62425     15.97958     50.06849        -0.004842      0.018926      0.025246
      2.08113      6.59901     50.06905        -0.005807     -0.017199      0.022561
      2.07867     15.63041     50.06905        -0.009170     -0.008585      0.022944
     11.11153      6.59901     50.06905        -0.011721     -0.011182      0.023205
     11.10907     15.63041     50.06905        -0.011816     -0.008603      0.023202
      6.94681      2.43239     50.06905         0.007567      0.010725      0.021780
      6.94435     11.46379     50.06905         0.007526      0.012643      0.023437
     15.97721      2.43239     50.06905         0.013121      0.007643      0.020968
     15.97475     11.46379     50.06905         0.008840      0.009515      0.025917
     18.00151      0.11931     37.74019        -0.008378      0.004770      0.012680
      0.18894      9.05209     37.72172        -0.017470     -0.004094     -0.001362
      9.06173     17.95039     37.71725        -0.014958     -0.028329     -0.024562
      9.03275      9.03168     37.66370        -0.014099      0.035349     -0.006087
      4.61744      4.47187     37.84064         0.022053     -0.000217     -0.014601
      4.38771     13.64647     37.67135         0.014153      0.003084      0.027374
     13.49610      4.54352     37.85324         0.005350      0.015441     -0.010487
     13.57542     13.68009     37.75967        -0.017777     -0.011125     -0.005315
      0.00001      0.00001     44.04300        -0.051179     -0.118432      0.104844
     -0.00245      9.03141     44.04300         0.053832      0.136993      0.159163
      9.03041      0.00001     44.04300        -0.021281      0.004869      0.071737
      9.02795      9.03141     44.04300         0.054002      0.026196      0.109951
      4.51397      4.51569     44.04275         0.033932      0.037714      0.160325
      4.51151     13.54709     44.04275        -0.091501     -0.035202      0.107764
     13.54437      4.51569     44.04275        -0.070695     -0.024584      0.171271
     13.54191     13.54709     44.04275         0.071044     -0.059260      0.113100
      0.00000      0.00000     50.44728        -0.004830     -0.005577     -0.620330
     -0.00246      9.03140     50.44728        -0.003631      0.004743     -0.645516
      9.03040      0.00000     50.44728         0.003390     -0.002633     -0.639082
      9.02794      9.03140     50.44728         0.004204      0.000904     -0.626238
      4.51397      4.51570     50.44728         0.000869      0.003803     -0.631283
      4.51151     13.54710     50.44728        -0.001934     -0.005105     -0.617733
     13.54437      4.51570     50.44728        -0.001578      0.003685     -0.627178
     13.54191     13.54710     50.44728         0.001862     -0.004822     -0.640335
 -----------------------------------------------------------------------------------
    total drift:                                0.061800      0.196352      0.127307


--------------------------------------------------------------------------------------------------------



  FREE ENERGIE OF THE ION-ELECTRON SYSTEM (eV)
  ---------------------------------------------------
  free  energy   TOTEN  =     -1576.40941326 eV

  energy  without entropy=    -1576.40941326  energy(sigma->0) =    -1576.40941326
 


--------------------------------------------------------------------------------------------------------


    POTLOK:  cpu time    0.5020: real time    0.5019


--------------------------------------------------------------------------------------------------------


     LOOP+:  cpu time  265.4385: real time  265.8633
 vacuum level on the upper side and lower side of the slab         2.369         1.542
    4ORBIT:  cpu time    0.0000: real time    0.0000

 total amount of memory used by VASP MPI-rank0  8653579. kBytes
=======================================================================

   base      :      30000. kBytes
   nonlr-proj:      53617. kBytes
   fftplans  :     249280. kBytes
   grid      :     701440. kBytes
   one-center:       2636. kBytes
   wavefun   :    7616606. kBytes
 
  
  
 General timing and accounting informations for this job:
 ========================================================
  
                  Total CPU time used (sec):      478.207
                            User time (sec):      389.698
                          System time (sec):       88.509
                         Elapsed time (sec):      479.772
  
                   Maximum memory used (kb):    10307868.
                   Average memory used (kb):          N/A
  
                          Minor page faults:      3542619
                          Major page faults:           13
                 Voluntary context switches:        11044
