 vasp.6.2.1 16May21 (build Nov 15 2021 14:57:28) complex                         
 executed on             LinuxPGI date 2023.07.24  21:04:03
 running on    4 total cores
 distrk:  each k-point on    4 cores,    1 groups
 distr:  one band on NCORE=   1 cores,    4 groups


--------------------------------------------------------------------------------------------------------


 INCAR:
   SYSTEM = PSC
   ISTART = 1
   ICHARG = 1
   PREC = Normal
   ENCUT = 500
   GGA_COMPAT = F
   NELM = 600
   ISYM = 0
   LREAL = Auto
   ISMEAR = 0
   SIGMA = 0.05
   AMIN = 0.01
   BMIX = 0.01
   LVTOT = T
   LWAVE = F
   LDIPOL = T
   IDIPOL = 3
   LVDW = T
   IVDW = 12

 POTCAR:    PAW_PBE H 15Jun2001                   
 POTCAR:    PAW_PBE C 08Apr2002                   
 POTCAR:    PAW_PBE N 08Apr2002                   
 POTCAR:    PAW_PBE I 08Apr2002                   
 POTCAR:    PAW_PBE Pb 08Apr2002                  
 WARNING: For LVTOT=.TRUE., VASP.5.x writes the TOTAL local potential to the
     file LOCPOT. If you want only the Hartree contributions, use LVHAR=.TRUE.
     instead. 

 POTCAR:    PAW_PBE H 15Jun2001                   
   SHA256 =  030f79b5d3ab3cf0e668861823c8fb652ff669f3e15e46930bd03bfd63a607b6 H/POTCAR              
   COPYR  = (c) Copyright 15Jun2001 Georg Kresse                                                    
   COPYR  = This file is part of the software VASP. Any use, copying, and all other rights are regul
   COPYR  = If you do not have a valid VASP license, you may not use, copy or distribute this file. 
   VRHFIN =H: ultrasoft test                                                                        
   LEXCH  = PE                                                                                      
   EATOM  =    12.4884 eV,    0.9179 Ry                                                             
                                                                                                    
   TITEL  = PAW_PBE H 15Jun2001                                                                     
   LULTRA =        F    use ultrasoft PP ?                                                          
   IUNSCR =        0    unscreen: 0-lin 1-nonlin 2-no                                               
   RPACOR =    0.000    partial core radius                                                         
   POMASS =    1.000; ZVAL   =    1.000    mass and valenz                                          
   RCORE  =    1.100    outmost cutoff radius                                                       
   RWIGS  =    0.700; RWIGS  =    0.370    wigner-seitz radius (au A)                               
   ENMAX  =  250.000; ENMIN  =  200.000 eV                                                          
   RCLOC  =    0.701    cutoff for local pot                                                        
   LCOR   =        T    correct aug charges                                                         
   LPAW   =        T    paw PP                                                                      
   EAUG   =  400.000                                                                                
   RMAX   =    1.123    core radius for proj-oper                                                   
   RAUG   =    1.200    factor for augmentation sphere                                              
   RDEP   =    1.112    radius for radial grids                                                     
   RDEPT  =    0.926    core radius for aug-charge                                                  
                                                                                                    
   Atomic configuration                                                                             
    2 entries                                                                                       
     n  l   j            E        occ.                                                              
     1  0  0.50        -6.4927   1.0000                                                             
     2  1  0.50        -3.4015   0.0000                                                             
   Description                                                                                      
     l       E           TYP  RCUT    TYP  RCUT                                                     
     0     -6.4927494     23  1.100                                                                 
     0      6.8029130     23  1.100                                                                 
     1     -4.0817478     23  1.100                                                                 
  local pseudopotential read in
  atomic valenz-charges read in
  non local Contribution for L=            0  read in
    real space projection operators read in
  non local Contribution for L=            0  read in
    real space projection operators read in
  non local Contribution for L=            1  read in
    real space projection operators read in
    PAW grid and wavefunctions read in
 
   number of l-projection  operators is LMAX  =            3
   number of lm-projection operators is LMMAX =            5
 
 POTCAR:    PAW_PBE C 08Apr2002                   
   SHA256 =  253f7b50bb8d59471dbedb8285d89021f4a42ed1a2c5d38a03a736e69125dd95 C/POTCAR              
   COPYR  = (c) Copyright 08Apr2002 Georg Kresse                                                    
   COPYR  = This file is part of the software VASP. Any use, copying, and all other rights are regul
   COPYR  = If you do not have a valid VASP license, you may not use, copy or distribute this file. 
   VRHFIN =C: s2p2                                                                                  
   LEXCH  = PE                                                                                      
   EATOM  =   147.1560 eV,   10.8157 Ry                                                             
                                                                                                    
   TITEL  = PAW_PBE C 08Apr2002                                                                     
   LULTRA =        F    use ultrasoft PP ?                                                          
   IUNSCR =        1    unscreen: 0-lin 1-nonlin 2-no                                               
   RPACOR =    1.200    partial core radius                                                         
   POMASS =   12.011; ZVAL   =    4.000    mass and valenz                                          
   RCORE  =    1.500    outmost cutoff radius                                                       
   RWIGS  =    1.630; RWIGS  =    0.863    wigner-seitz radius (au A)                               
   ENMAX  =  400.000; ENMIN  =  300.000 eV                                                          
   ICORE  =        2    local potential                                                             
   LCOR   =        T    correct aug charges                                                         
   LPAW   =        T    paw PP                                                                      
   EAUG   =  644.873                                                                                
   DEXC   =    0.000                                                                                
   RMAX   =    1.529    core radius for proj-oper                                                   
   RAUG   =    1.300    factor for augmentation sphere                                              
   RDEP   =    1.501    radius for radial grids                                                     
   RDEPT  =    1.300    core radius for aug-charge                                                  
                                                                                                    
   Atomic configuration                                                                             
    4 entries                                                                                       
     n  l   j            E        occ.                                                              
     1  0  0.50      -273.3789   2.0000                                                             
     2  0  0.50       -13.7508   2.0000                                                             
     2  1  0.50        -5.2854   2.0000                                                             
     3  2  1.50        -5.4423   0.0000                                                             
   Description                                                                                      
     l       E           TYP  RCUT    TYP  RCUT                                                     
     0    -13.7508458     23  1.200                                                                 
     0     -8.2022199     23  1.200                                                                 
     1     -5.2854383     23  1.500                                                                 
     1     34.0145650     23  1.500                                                                 
     2     -5.4423304      7  1.500                                                                 
  local pseudopotential read in
  partial core-charges read in
  partial kinetic energy density read in
  atomic valenz-charges read in
  non local Contribution for L=            0  read in
    real space projection operators read in
  non local Contribution for L=            0  read in
    real space projection operators read in
  non local Contribution for L=            1  read in
    real space projection operators read in
  non local Contribution for L=            1  read in
    real space projection operators read in
    PAW grid and wavefunctions read in
 
   number of l-projection  operators is LMAX  =            4
   number of lm-projection operators is LMMAX =            8
 
 POTCAR:    PAW_PBE N 08Apr2002                   
   SHA256 =  e053789ff3a61a86a1b75d8a110fcc91f86041011e7b0817c7c99e4e8a6349d7 N/POTCAR              
   COPYR  = (c) Copyright 08Apr2002 Georg Kresse                                                    
   COPYR  = This file is part of the software VASP. Any use, copying, and all other rights are regul
   COPYR  = If you do not have a valid VASP license, you may not use, copy or distribute this file. 
   VRHFIN =N: s2p3                                                                                  
   LEXCH  = PE                                                                                      
   EATOM  =   264.5486 eV,   19.4438 Ry                                                             
                                                                                                    
   TITEL  = PAW_PBE N 08Apr2002                                                                     
   LULTRA =        F    use ultrasoft PP ?                                                          
   IUNSCR =        1    unscreen: 0-lin 1-nonlin 2-no                                               
   RPACOR =    1.200    partial core radius                                                         
   POMASS =   14.001; ZVAL   =    5.000    mass and valenz                                          
   RCORE  =    1.500    outmost cutoff radius                                                       
   RWIGS  =    1.400; RWIGS  =    0.741    wigner-seitz radius (au A)                               
   ENMAX  =  400.000; ENMIN  =  300.000 eV                                                          
   ICORE  =        2    local potential                                                             
   LCOR   =        T    correct aug charges                                                         
   LPAW   =        T    paw PP                                                                      
   EAUG   =  627.112                                                                                
   DEXC   =    0.000                                                                                
   RMAX   =    1.529    core radius for proj-oper                                                   
   RAUG   =    1.300    factor for augmentation sphere                                              
   RDEP   =    1.514    radius for radial grids                                                     
   RDEPT  =    1.338    core radius for aug-charge                                                  
                                                                                                    
   Atomic configuration                                                                             
    4 entries                                                                                       
     n  l   j            E        occ.                                                              
     1  0  0.50      -384.7179   2.0000                                                             
     2  0  0.50       -18.5828   2.0000                                                             
     2  1  0.50        -7.0898   3.0000                                                             
     3  2  1.50        -6.8029   0.0000                                                             
   Description                                                                                      
     l       E           TYP  RCUT    TYP  RCUT                                                     
     0    -18.5828119     23  1.200                                                                 
     0    -13.5018863     23  1.200                                                                 
     1     -7.0897853     23  1.500                                                                 
     1      9.5240782     23  1.500                                                                 
     2     -6.8029130      7  1.500                                                                 
  local pseudopotential read in
  partial core-charges read in
  partial kinetic energy density read in
  atomic valenz-charges read in
  non local Contribution for L=            0  read in
    real space projection operators read in
  non local Contribution for L=            0  read in
    real space projection operators read in
  non local Contribution for L=            1  read in
    real space projection operators read in
  non local Contribution for L=            1  read in
    real space projection operators read in
    PAW grid and wavefunctions read in
 
   number of l-projection  operators is LMAX  =            4
   number of lm-projection operators is LMMAX =            8
 
 POTCAR:    PAW_PBE I 08Apr2002                   
   SHA256 =  e40f3f59b681c1fc3e3091736183c4589116986673d2b852a5012aec72758799 I/POTCAR              
   COPYR  = (c) Copyright 08Apr2002 Georg Kresse                                                    
   COPYR  = This file is part of the software VASP. Any use, copying, and all other rights are regul
   COPYR  = If you do not have a valid VASP license, you may not use, copy or distribute this file. 
   VRHFIN =I : s2p5                                                                                 
   LEXCH  = PE                                                                                      
   EATOM  =   315.8678 eV,   23.2156 Ry                                                             
                                                                                                    
   TITEL  = PAW_PBE I 08Apr2002                                                                     
   LULTRA =        F    use ultrasoft PP ?                                                          
   IUNSCR =        1    unscreen: 0-lin 1-nonlin 2-no                                               
   RPACOR =    2.200    partial core radius                                                         
   POMASS =  126.904; ZVAL   =    7.000    mass and valenz                                          
   RCORE  =    2.300    outmost cutoff radius                                                       
   RWIGS  =    2.810; RWIGS  =    1.487    wigner-seitz radius (au A)                               
   ENMAX  =  175.647; ENMIN  =  131.735 eV                                                          
   ICORE  =        3    local potential                                                             
   LCOR   =        T    correct aug charges                                                         
   LPAW   =        T    paw PP                                                                      
   EAUG   =  370.139                                                                                
   DEXC   =    0.000                                                                                
   RMAX   =    2.359    core radius for proj-oper                                                   
   RAUG   =    1.300    factor for augmentation sphere                                              
   RDEP   =    2.392    radius for radial grids                                                     
   RDEPT  =    2.170    core radius for aug-charge                                                  
                                                                                                    
   Atomic configuration                                                                             
   13 entries                                                                                       
     n  l   j            E        occ.                                                              
     1  0  0.50    -32976.3739   2.0000                                                             
     2  0  0.50     -5094.5933   2.0000                                                             
     2  1  1.50     -4572.0131   6.0000                                                             
     3  0  0.50     -1028.2813   2.0000                                                             
     3  1  1.50      -859.0250   6.0000                                                             
     3  2  2.50      -605.7620  10.0000                                                             
     4  0  0.50      -180.5540   2.0000                                                             
     4  1  1.50      -127.5306   6.0000                                                             
     4  2  2.50       -50.2720  10.0000                                                             
     5  0  0.50       -17.4058   2.0000                                                             
     5  1  0.50        -7.0851   5.0000                                                             
     5  2  1.50        -7.0750   0.0000                                                             
     4  3  2.50        -7.0750   0.0000                                                             
   Description                                                                                      
     l       E           TYP  RCUT    TYP  RCUT                                                     
     0    -17.4058016     23  2.300                                                                 
     0    -18.7663842     23  2.300                                                                 
     1     -7.0850686     23  2.300                                                                 
     1     -4.2150896     23  2.300                                                                 
     2     -7.0750295     23  2.300                                                                 
     3     -1.3605826     23  2.300                                                                 
  local pseudopotential read in
  partial core-charges read in
  partial kinetic energy density read in
  atomic valenz-charges read in
  non local Contribution for L=            0  read in
    real space projection operators read in
  non local Contribution for L=            0  read in
    real space projection operators read in
  non local Contribution for L=            1  read in
    real space projection operators read in
  non local Contribution for L=            1  read in
    real space projection operators read in
  non local Contribution for L=            2  read in
    real space projection operators read in
    PAW grid and wavefunctions read in
 
   number of l-projection  operators is LMAX  =            5
   number of lm-projection operators is LMMAX =           13
 
 POTCAR:    PAW_PBE Pb 08Apr2002                  
   SHA256 =  797118a27cf1bcd06b9881c67a26cdde129e3cd1a551dd4a281f9681ce847303 Pb/POTCAR             
   COPYR  = (c) Copyright 08Apr2002 Georg Kresse                                                    
   COPYR  = This file is part of the software VASP. Any use, copying, and all other rights are regul
   COPYR  = If you do not have a valid VASP license, you may not use, copy or distribute this file. 
   VRHFIN =Pb:                                                                                      
   LEXCH  = PE                                                                                      
   EATOM  =    96.9868 eV,    7.1283 Ry                                                             
                                                                                                    
   TITEL  = PAW_PBE Pb 08Apr2002                                                                    
   LULTRA =        F    use ultrasoft PP ?                                                          
   IUNSCR =        1    unscreen: 0-lin 1-nonlin 2-no                                               
   RPACOR =    2.200    partial core radius                                                         
   POMASS =  207.200; ZVAL   =    4.000    mass and valenz                                          
   RCORE  =    3.100    outmost cutoff radius                                                       
   RWIGS  =    3.260; RWIGS  =    1.725    wigner-seitz radius (au A)                               
   ENMAX  =   97.973; ENMIN  =   73.480 eV                                                          
   ICORE  =        3    local potential                                                             
   LCOR   =        T    correct aug charges                                                         
   LPAW   =        T    paw PP                                                                      
   EAUG   =  234.873                                                                                
   DEXC   =    0.000                                                                                
   RMAX   =    3.158    core radius for proj-oper                                                   
   RAUG   =    1.300    factor for augmentation sphere                                              
   RDEP   =    3.202    radius for radial grids                                                     
   RDEPT  =    2.659    core radius for aug-charge                                                  
                                                                                                    
   Atomic configuration                                                                             
   17 entries                                                                                       
     n  l   j            E        occ.                                                              
     1  0  0.50    -88091.8466   2.0000                                                             
     2  0  0.50    -15753.4197   2.0000                                                             
     2  1  1.50    -13508.1797   6.0000                                                             
     3  0  0.50     -3781.7194   2.0000                                                             
     3  1  1.50     -3138.2529   6.0000                                                             
     3  2  2.50     -2483.2977  10.0000                                                             
     4  0  0.50      -856.2895   2.0000                                                             
     4  1  1.50      -645.4943   6.0000                                                             
     4  2  2.50      -401.8768  10.0000                                                             
     4  3  3.50      -132.9059  14.0000                                                             
     5  0  0.50      -144.0950   2.0000                                                             
     5  1  1.50       -85.7879   6.0000                                                             
     5  2  2.50       -21.1769  10.0000                                                             
     6  0  0.50       -12.0372   2.0000                                                             
     6  1  1.50        -3.4971   2.0000                                                             
     6  2  2.50        -1.3606   0.0000                                                             
     5  3  2.50        -2.7212   0.0000                                                             
   Description                                                                                      
     l       E           TYP  RCUT    TYP  RCUT                                                     
     0    -12.0371566     23  3.100                                                                 
     0    -13.3977392     23  3.100                                                                 
     1     -3.4971341     23  3.100                                                                 
     1     -5.4423304     23  3.100                                                                 
     2     -1.3605826     23  3.100                                                                 
     3     -1.3605826     23  3.100                                                                 
  local pseudopotential read in
  partial core-charges read in
  partial kinetic energy density read in
  atomic valenz-charges read in
  non local Contribution for L=            0  read in
    real space projection operators read in
  non local Contribution for L=            0  read in
    real space projection operators read in
  non local Contribution for L=            1  read in
    real space projection operators read in
  non local Contribution for L=            1  read in
    real space projection operators read in
  non local Contribution for L=            2  read in
    real space projection operators read in
    PAW grid and wavefunctions read in
 
   number of l-projection  operators is LMAX  =            5
   number of lm-projection operators is LMMAX =           13
 
 Optimization of the real space projectors (new method)

 maximal supplied QI-value         = 34.20
 optimisation between [QCUT,QGAM] = [ 11.29, 22.57] = [ 35.68,142.71] Ry 
 Optimized for a Real-space Cutoff    1.16 Angstroem

   l    n(q)    QCUT    max X(q) W(low)/X(q) W(high)/X(q)  e(spline) 
   0      8    11.287    19.460    0.40E-03    0.73E-03    0.16E-06
   0      8    11.287    12.209    0.38E-03    0.70E-03    0.15E-06
   1      7    11.287     4.655    0.22E-03    0.25E-04    0.22E-06
 Optimization of the real space projectors (new method)

 maximal supplied QI-value         = 25.13
 optimisation between [QCUT,QGAM] = [ 11.31, 22.87] = [ 35.82,146.48] Ry 
 Optimized for a Real-space Cutoff    1.00 Angstroem

   l    n(q)    QCUT    max X(q) W(low)/X(q) W(high)/X(q)  e(spline) 
   0      7    11.310   115.676    0.43E-03    0.13E-02    0.19E-06
   0      7    11.310    87.132    0.43E-03    0.13E-02    0.18E-06
   1      6    11.310     4.429    0.42E-03    0.74E-03    0.11E-06
   1      6    11.310     2.733    0.34E-03    0.55E-03    0.92E-07
 Optimization of the real space projectors (new method)

 maximal supplied QI-value         = 25.13
 optimisation between [QCUT,QGAM] = [ 11.31, 22.87] = [ 35.82,146.48] Ry 
 Optimized for a Real-space Cutoff    1.27 Angstroem

   l    n(q)    QCUT    max X(q) W(low)/X(q) W(high)/X(q)  e(spline) 
   0      9    11.310    79.467    0.75E-04    0.16E-03    0.36E-06
   0      9    11.310    66.151    0.74E-04    0.16E-03    0.36E-06
   1      8    11.310    17.416    0.35E-03    0.12E-03    0.95E-06
   1      8    11.310    12.382    0.37E-03    0.13E-03    0.98E-06
 Optimization of the real space projectors (new method)

 maximal supplied QI-value         = 16.25
 optimisation between [QCUT,QGAM] = [ 11.38, 22.75] = [ 36.24,144.96] Ry 
 Optimized for a Real-space Cutoff    1.31 Angstroem

   l    n(q)    QCUT    max X(q) W(low)/X(q) W(high)/X(q)  e(spline) 
   0      9    11.376   194.483    0.24E-03    0.23E-03    0.67E-07
   0      9    11.376   190.334    0.23E-03    0.22E-03    0.65E-07
   1      8    11.376   116.687    0.25E-03    0.63E-04    0.16E-06
   1      8    11.376    88.696    0.25E-03    0.61E-04    0.16E-06
   2      8    11.376     4.877    0.17E-03    0.14E-03    0.29E-07
 Optimization of the real space projectors (new method)

 maximal supplied QI-value         = 12.09
 optimisation between [QCUT,QGAM] = [ 11.37, 22.86] = [ 36.19,146.31] Ry 
 Optimized for a Real-space Cutoff    1.66 Angstroem

   l    n(q)    QCUT    max X(q) W(low)/X(q) W(high)/X(q)  e(spline) 
   0     11    11.369   135.111    0.12E-03    0.69E-04    0.19E-05
   0     11    11.369   146.850    0.11E-03    0.65E-04    0.18E-05
   1     11    11.369   148.016    0.17E-03    0.32E-03    0.89E-06
   1     11    11.369   122.989    0.17E-03    0.32E-03    0.91E-06
   2     10    11.369     8.916    0.12E-03    0.45E-04    0.33E-06
  PAW_PBE H 15Jun2001                   :
 energy of atom  1       EATOM=  -12.4884
 kinetic energy error for atom=    0.0020 (will be added to EATOM!!)
  PAW_PBE C 08Apr2002                   :
 energy of atom  2       EATOM= -147.1560
 kinetic energy error for atom=    0.0076 (will be added to EATOM!!)
  PAW_PBE N 08Apr2002                   :
 energy of atom  3       EATOM= -264.5486
 kinetic energy error for atom=    0.0138 (will be added to EATOM!!)
  PAW_PBE I 08Apr2002                   :
 energy of atom  4       EATOM= -315.8678
 kinetic energy error for atom=    0.0009 (will be added to EATOM!!)
  PAW_PBE Pb 08Apr2002                  :
 energy of atom  5       EATOM=  -96.9868
 kinetic energy error for atom=    0.0000 (will be added to EATOM!!)
 
 
 POSCAR:  H  C  N  I Pb
  positions in cartesian coordinates
  No initial velocities read in
 exchange correlation table for  LEXCH =        8
   RHO(1)=    0.500       N(1)  =     2000
   RHO(2)=  100.500       N(2)  =     4000
 


--------------------------------------------------------------------------------------------------------


 ion  position               nearest neighbor table
   1  0.456  0.305  0.581- 187 0.98
   2  0.446  0.808  0.581- 188 0.97
   3  0.956  0.307  0.577- 189 0.99
   4  0.967  0.813  0.581- 190 0.98
   5  0.312  0.042  0.581- 194 1.06
   6  0.302  0.553  0.581- 195 1.06
   7  0.789  0.054  0.582- 196 1.06
   8  0.077  0.155  0.561- 183 0.98
   9  0.073  0.665  0.557- 184 1.01
  10  0.585  0.183  0.557- 185 0.98
  11  0.567  0.669  0.559- 186 1.00
  12  0.333  0.070  0.555- 194 0.96
  13  0.323  0.582  0.556- 195 0.96
  14  0.823  0.081  0.558- 196 0.95
  15  0.040  0.197  0.583- 183 1.00
  16  0.054  0.706  0.581- 184 0.98
  17  0.561  0.222  0.581- 185 0.98
  18  0.533  0.701  0.583- 186 1.01
  19  0.202  0.448  0.582- 191 1.06
  20  0.200  0.950  0.583- 192 1.06
  21  0.699  0.941  0.581- 193 1.06
  22  0.409  0.322  0.557- 187 1.04
  23  0.429  0.845  0.555- 188 1.03
  24  0.942  0.326  0.550- 189 1.03
  25  0.929  0.837  0.557- 190 1.01
  26  0.170  0.422  0.558- 191 0.96
  27  0.162  0.930  0.558- 192 0.96
  28  0.685  0.908  0.555- 193 0.96
  29  0.491  0.244  0.538- 146 1.12
  30  0.506  0.756  0.538- 147 1.10
  31  0.016  0.237  0.537- 144 1.09
  32  0.996  0.749  0.538- 145 1.14
  33  0.244  0.504  0.538- 148 1.09
  34  0.240  0.002  0.538- 149 1.09
  35  0.762  0.993  0.538- 150 1.09
  36  0.451  0.304  0.675- 205 0.97
  37  0.453  0.791  0.675- 206 0.98
  38  0.943  0.306  0.671- 207 0.98
  39  0.947  0.803  0.675- 208 1.04
  40  0.297  0.052  0.675- 209 0.97
  41  0.299  0.548  0.675- 210 0.98
  42  0.802  0.054  0.674- 211 0.97
  43  0.804  0.560  0.675- 212 1.04
  44  0.077  0.172  0.651- 197 1.07
  45  0.077  0.670  0.650- 198 1.07
  46  0.576  0.169  0.650- 199 1.08
  47  0.576  0.671  0.645- 200 0.97
  48  0.166  0.423  0.649- 201 1.05
  49  0.173  0.919  0.648- 202 1.10
  50  0.676  0.419  0.652- 203 1.05
  51  0.668  0.925  0.650- 204 1.10
  52  0.043  0.205  0.676- 197 1.05
  53  0.047  0.699  0.676- 198 1.07
  54  0.551  0.202  0.675- 199 0.99
  55  0.554  0.693  0.671- 200 1.00
  56  0.197  0.450  0.674- 201 0.97
  57  0.200  0.948  0.674- 202 0.98
  58  0.703  0.458  0.676- 203 0.99
  59  0.698  0.957  0.675- 204 0.98
  60  0.419  0.332  0.650- 205 1.04
  61  0.416  0.826  0.651- 206 1.05
  62  0.920  0.328  0.645- 207 0.98
  63  0.919  0.834  0.650- 208 1.03
  64  0.327  0.085  0.650- 209 1.04
  65  0.329  0.579  0.650- 210 1.10
  66  0.834  0.080  0.649- 211 1.04
  67  0.833  0.577  0.650- 212 0.95
  68  0.005  0.244  0.630- 151 1.15
  69  0.998  0.751  0.632- 152 1.14
  70  0.494  0.247  0.633- 153 1.09
  71  0.494  0.751  0.630- 154 1.14
  72  0.250  0.002  0.632- 156 1.13
  73  0.247  0.501  0.631- 155 1.13
  74  0.752  0.002  0.632- 158 1.13
  75  0.763  0.494  0.633- 157 1.09
  76  0.449  0.301  0.769- 221 1.02
  77  0.449  0.801  0.769- 222 1.02
  78  0.949  0.301  0.769- 223 1.02
  79  0.949  0.801  0.769- 224 1.02
  80  0.301  0.051  0.769- 225 1.02
  81  0.301  0.551  0.769- 226 1.02
  82  0.801  0.051  0.769- 227 1.02
  83  0.801  0.551  0.769- 228 1.02
  84  0.079  0.171  0.743- 213 1.02
  85  0.079  0.671  0.743- 214 1.02
  86  0.579  0.171  0.743- 215 1.02
  87  0.579  0.671  0.743- 216 1.02
  88  0.171  0.421  0.743- 217 1.02
  89  0.171  0.921  0.743- 218 1.02
  90  0.671  0.421  0.743- 219 1.02
  91  0.671  0.921  0.743- 220 1.02
  92  0.051  0.199  0.769- 213 1.02
  93  0.051  0.699  0.769- 214 1.02
  94  0.551  0.199  0.769- 215 1.02
  95  0.551  0.699  0.769- 216 1.02
  96  0.199  0.449  0.769- 217 1.02
  97  0.199  0.949  0.769- 218 1.02
  98  0.699  0.449  0.769- 219 1.02
  99  0.699  0.949  0.769- 220 1.02
 100  0.421  0.329  0.743- 221 1.02
 101  0.421  0.829  0.743- 222 1.02
 102  0.921  0.329  0.743- 223 1.02
 103  0.921  0.829  0.743- 224 1.02
 104  0.329  0.079  0.743- 225 1.02
 105  0.329  0.579  0.743- 226 1.02
 106  0.829  0.079  0.743- 227 1.02
 107  0.829  0.579  0.743- 228 1.02
 108  0.000  0.250  0.726- 161 1.09
 109  0.000  0.750  0.726- 162 1.09
 110  0.500  0.250  0.726- 159 1.09
 111  0.500  0.750  0.726- 160 1.09
 112  0.250  0.000  0.726- 163 1.09
 113  0.250  0.500  0.726- 164 1.09
 114  0.750  0.000  0.726- 165 1.09
 115  0.750  0.500  0.726- 166 1.09
 116  0.792  0.568  0.532- 173 1.05
 117  0.740  0.487  0.533- 173 1.07
 118  0.874  0.506  0.553- 174 1.08
 119  0.849  0.478  0.579- 174 1.11
 120  0.746  0.639  0.571- 175 1.10
 121  0.805  0.586  0.588- 175 1.09
 122  0.657  0.538  0.575- 176 1.07
 123  0.681  0.452  0.563- 176 1.10
 124  0.627  0.556  0.544- 177 1.09
 125  0.682  0.636  0.546- 177 1.05
 126  0.635  0.664  0.514- 178 1.13
 127  0.706  0.612  0.504- 178 1.06
 128  0.817  0.396  0.537- 179 1.11
 129  0.757  0.384  0.560- 179 1.09
 130  0.849  0.366  0.563- 179 1.11
 131  0.871  0.685  0.565- 180 1.09
 132  0.856  0.628  0.542- 180 1.11
 133  0.915  0.598  0.565- 180 1.12
 134  0.772  0.497  0.600- 181 1.05
 135  0.739  0.408  0.594- 181 1.13
 136  0.682  0.474  0.607- 181 1.08
 137  0.552  0.552  0.513- 182 1.06
 138  0.587  0.574  0.488- 182 1.08
 139  0.711  0.505  0.480- 168 1.04
 140  0.564  0.430  0.528- 169 1.10
 141  0.770  0.383  0.479- 170 1.03
 142  0.621  0.309  0.528- 171 1.10
 143  0.727  0.285  0.503- 172 1.03
 144  0.008  0.242  0.554-  31 1.09 189 1.31 183 1.37
 145  0.002  0.752  0.556-  32 1.14 190 1.31 184 1.33
 146  0.500  0.250  0.556-  29 1.12 185 1.30 187 1.37
 147  0.500  0.755  0.556-  30 1.10 186 1.29 188 1.38
 148  0.245  0.501  0.556-  33 1.09 191 1.29 195 1.35
 149  0.246  0.999  0.556-  34 1.09 192 1.29 194 1.35
 150  0.755  0.996  0.556-  35 1.09 196 1.29 193 1.35
 151  0.999  0.249  0.648-  68 1.15 197 1.25 207 1.36
 152  1.000  0.750  0.650-  69 1.14 198 1.25 208 1.33
 153  0.498  0.249  0.650-  70 1.09 199 1.26 205 1.38
 154  0.496  0.749  0.648-  71 1.14 206 1.32 200 1.35
 155  0.249  0.502  0.649-  73 1.13 210 1.25 201 1.35
 156  0.249  0.001  0.650-  72 1.13 202 1.26 209 1.37
 157  0.755  0.498  0.651-  75 1.09 203 1.28 212 1.36
 158  0.750  0.001  0.650-  74 1.13 204 1.26 211 1.37
 159  0.500  0.250  0.743- 110 1.09 221 1.31 215 1.31
 160  0.500  0.750  0.743- 111 1.09 222 1.31 216 1.31
 161  1.000  0.250  0.743- 108 1.09 223 1.31 213 1.31
 162  1.000  0.750  0.743- 109 1.09 224 1.31 214 1.31
 163  0.250  0.000  0.743- 112 1.09 225 1.31 218 1.31
 164  0.250  0.500  0.743- 113 1.09 226 1.31 217 1.31
 165  0.750  0.000  0.743- 114 1.09 227 1.31 220 1.31
 166  0.750  0.500  0.743- 115 1.09 228 1.31 219 1.31
 167  0.631  0.478  0.503- 168 1.37 169 1.38 182 1.51
 168  0.690  0.464  0.490- 139 1.04 167 1.37 170 1.46
 169  0.607  0.422  0.516- 140 1.10 167 1.38 171 1.44
 170  0.726  0.391  0.489- 141 1.03 172 1.42 168 1.46
 171  0.642  0.350  0.517- 142 1.10 172 1.39 169 1.44
 172  0.701  0.336  0.504- 143 1.03 171 1.39 170 1.42
 173  0.746  0.541  0.539- 116 1.05 117 1.07 229 1.49 177 1.58
 174  0.830  0.481  0.562- 118 1.08 119 1.11 229 1.41 179 1.55
 175  0.792  0.600  0.572- 121 1.09 120 1.10 229 1.53 180 1.56
 176  0.699  0.496  0.574- 122 1.07 123 1.10 181 1.48 229 1.55
 177  0.672  0.588  0.537- 125 1.05 124 1.09 178 1.55 173 1.58
 178  0.659  0.607  0.514- 127 1.06 126 1.13 182 1.52 177 1.55
 179  0.811  0.403  0.554- 129 1.09 128 1.11 130 1.11 174 1.55
 180  0.863  0.628  0.560- 131 1.09 132 1.11 133 1.12 175 1.56
 181  0.725  0.468  0.595- 134 1.05 136 1.08 135 1.13 176 1.48
 182  0.601  0.556  0.504- 137 1.06 138 1.08 167 1.51 178 1.52
 183  0.046  0.194  0.567-   8 0.98  15 1.00 144 1.37
 184  0.046  0.703  0.566-  16 0.98   9 1.01 145 1.33
 185  0.554  0.216  0.566-  10 0.98  17 0.98 146 1.30
 186  0.534  0.705  0.567-  11 1.00  18 1.01 147 1.29
 187  0.450  0.296  0.566-   1 0.98  22 1.04 146 1.37
 188  0.453  0.807  0.565-   2 0.97  23 1.03 147 1.38
 189  0.966  0.295  0.562-   3 0.99  24 1.03 144 1.31
 190  0.964  0.804  0.566-   4 0.98  25 1.01 145 1.31
 191  0.203  0.454  0.565-  26 0.96  19 1.06 148 1.29
 192  0.199  0.957  0.566-  27 0.96  20 1.06 149 1.29
 193  0.709  0.944  0.564-  28 0.96  21 1.06 150 1.35
 194  0.301  0.041  0.564-  12 0.96   5 1.06 149 1.35
 195  0.294  0.549  0.564-  13 0.96   6 1.06 148 1.35
 196  0.792  0.047  0.565-  14 0.95   7 1.06 150 1.29
 197  0.040  0.208  0.659-  52 1.05  44 1.07 151 1.25
 198  0.042  0.707  0.659-  45 1.07  53 1.07 152 1.25
 199  0.542  0.206  0.659-  54 0.99  46 1.08 153 1.26
 200  0.547  0.700  0.656-  47 0.97  55 1.00 154 1.35
 201  0.202  0.453  0.659-  56 0.97  48 1.05 155 1.35
 202  0.207  0.955  0.659-  57 0.98  49 1.10 156 1.26
 203  0.709  0.457  0.661-  58 0.99  50 1.05 157 1.28
 204  0.705  0.961  0.659-  59 0.98  51 1.10 158 1.26
 205  0.452  0.300  0.660-  36 0.97  60 1.04 153 1.38
 206  0.452  0.792  0.660-  37 0.98  61 1.05 154 1.32
 207  0.949  0.300  0.656-  38 0.98  62 0.98 151 1.36
 208  0.953  0.799  0.658-  63 1.03  39 1.04 152 1.33
 209  0.295  0.050  0.660-  40 0.97  64 1.04 156 1.37
 210  0.293  0.543  0.659-  41 0.98  65 1.10 155 1.25
 211  0.800  0.049  0.659-  42 0.97  66 1.04 158 1.37
 212  0.802  0.550  0.659-  67 0.95  43 1.04 157 1.36
 213  0.046  0.204  0.753-  92 1.02  84 1.02 161 1.31
 214  0.046  0.704  0.753-  93 1.02  85 1.02 162 1.31
 215  0.546  0.204  0.753-  94 1.02  86 1.02 159 1.31
 216  0.546  0.704  0.753-  95 1.02  87 1.02 160 1.31
 217  0.204  0.454  0.753-  96 1.02  88 1.02 164 1.31
 218  0.204  0.954  0.753-  97 1.02  89 1.02 163 1.31
 219  0.704  0.454  0.753-  98 1.02  90 1.02 166 1.31
 220  0.704  0.954  0.753-  99 1.02  91 1.02 165 1.31
 221  0.454  0.296  0.753-  76 1.02 100 1.02 159 1.31
 222  0.454  0.796  0.753-  77 1.02 101 1.02 160 1.31
 223  0.954  0.296  0.753-  78 1.02 102 1.02 161 1.31
 224  0.954  0.796  0.753-  79 1.02 103 1.02 162 1.31
 225  0.296  0.046  0.753-  80 1.02 104 1.02 163 1.31
 226  0.296  0.546  0.753-  81 1.02 105 1.02 164 1.31
 227  0.796  0.046  0.753-  82 1.02 106 1.02 165 1.31
 228  0.796  0.546  0.753-  83 1.02 107 1.02 166 1.31
 229  0.767  0.527  0.562- 174 1.41 173 1.49 175 1.53 176 1.55
 230  0.500  0.005  0.553- 304 3.16
 231  0.487  0.512  0.555- 305 3.03
 232  0.003  0.003  0.552- 302 3.22
 233  0.013  0.487  0.549- 303 3.38
 234  0.253  0.248  0.553- 306 3.15
 235  0.252  0.751  0.553- 307 3.12
 236  0.758  0.237  0.555- 308 3.05
 237  0.740  0.762  0.549- 309 3.46
 238  0.997  0.004  0.654- 302 3.16 310 3.18
 239  0.002  0.497  0.653- 303 3.13 311 3.22
 240  0.497  0.998  0.654- 312 3.15 304 3.19
 241  0.498  0.502  0.655- 313 3.10 305 3.22
 242  0.252  0.249  0.654- 314 3.16 306 3.19
 243  0.250  0.752  0.655- 315 3.13 307 3.25
 244  0.751  0.247  0.655- 316 3.13 308 3.20
 245  0.746  0.751  0.655- 317 3.14 309 3.15
 246  0.146  0.108  0.608- 306 3.20 302 3.34
 247  0.146  0.607  0.608- 307 3.14 303 3.24
 248  0.646  0.108  0.608- 308 3.16 304 3.35
 249  0.632  0.618  0.611- 305 3.24 309 3.30
 250  0.353  0.391  0.608- 306 3.16 305 3.29
 251  0.359  0.896  0.608- 304 3.12 307 3.36
 252  0.870  0.380  0.611- 308 3.26 303 3.28
 253  0.858  0.896  0.608- 302 3.15 309 3.20
 254  0.110  0.354  0.608- 306 3.13 303 3.33
 255  0.105  0.857  0.608- 302 3.20 307 3.28
 256  0.594  0.344  0.608- 305 3.34 308 3.36
 257  0.604  0.860  0.608- 309 3.19 304 3.19
 258  0.396  0.143  0.608- 304 3.19 306 3.32
 259  0.393  0.646  0.608- 307 3.21 305 3.24
 260  0.891  0.144  0.608- 308 3.13 302 3.29
 261  0.905  0.656  0.611- 303 3.30 309 3.41
 262  0.000  0.000  0.755- 310 3.13 318 3.27
 263  0.000  0.500  0.755- 311 3.13 319 3.27
 264  0.500  0.000  0.755- 312 3.13 320 3.27
 265  0.500  0.500  0.755- 313 3.13 321 3.27
 266  0.250  0.250  0.755- 314 3.13 322 3.27
 267  0.250  0.750  0.755- 315 3.13 323 3.27
 268  0.750  0.250  0.755- 316 3.13 324 3.27
 269  0.750  0.750  0.755- 317 3.13 325 3.27
 270  0.136  0.114  0.705- 310 3.20 314 3.20
 271  0.136  0.614  0.705- 311 3.20 315 3.20
 272  0.636  0.114  0.705- 312 3.20 316 3.20
 273  0.636  0.614  0.705- 313 3.20 317 3.20
 274  0.364  0.386  0.705- 313 3.20 314 3.20
 275  0.364  0.886  0.705- 312 3.20 315 3.20
 276  0.864  0.386  0.705- 311 3.20 316 3.20
 277  0.864  0.886  0.705- 310 3.20 317 3.20
 278  0.114  0.364  0.705- 314 3.21 311 3.21
 279  0.114  0.864  0.705- 315 3.21 310 3.21
 280  0.614  0.364  0.705- 316 3.21 313 3.21
 281  0.614  0.864  0.705- 317 3.21 312 3.21
 282  0.386  0.136  0.705- 314 3.21 312 3.21
 283  0.386  0.636  0.705- 315 3.21 313 3.21
 284  0.886  0.136  0.705- 316 3.21 310 3.21
 285  0.886  0.636  0.705- 317 3.21 311 3.21
 286  0.135  0.115  0.801- 318 3.22 322 3.22
 287  0.135  0.615  0.801- 319 3.22 323 3.22
 288  0.635  0.115  0.801- 320 3.22 324 3.22
 289  0.635  0.615  0.801- 321 3.22 325 3.22
 290  0.365  0.385  0.801- 321 3.22 322 3.22
 291  0.365  0.885  0.801- 320 3.22 323 3.22
 292  0.865  0.385  0.801- 319 3.22 324 3.22
 293  0.865  0.885  0.801- 318 3.22 325 3.22
 294  0.115  0.365  0.801- 319 3.23 322 3.23
 295  0.115  0.865  0.801- 318 3.23 323 3.23
 296  0.615  0.365  0.801- 321 3.23 324 3.23
 297  0.615  0.865  0.801- 320 3.23 325 3.23
 298  0.385  0.135  0.801- 320 3.23 322 3.23
 299  0.385  0.635  0.801- 321 3.23 323 3.23
 300  0.885  0.135  0.801- 318 3.23 324 3.23
 301  0.885  0.635  0.801- 319 3.23 325 3.23
 302  0.998  0.998  0.603- 253 3.15 238 3.16 255 3.20 232 3.22 260 3.29 246 3.34
 303  0.001  0.503  0.603- 239 3.13 247 3.24 252 3.28 261 3.30 254 3.33 233 3.38
 304  0.496  0.999  0.603- 251 3.12 230 3.16 258 3.19 240 3.19 257 3.19 248 3.35
 305  0.498  0.501  0.604- 231 3.03 241 3.22 259 3.24 249 3.24 250 3.29 256 3.34
 306  0.248  0.252  0.603- 254 3.13 234 3.15 250 3.16 242 3.19 246 3.20 258 3.32
 307  0.248  0.747  0.603- 235 3.12 247 3.14 259 3.21 243 3.25 255 3.28 251 3.36
 308  0.752  0.246  0.604- 236 3.05 260 3.13 248 3.16 244 3.20 252 3.26 256 3.36
 309  0.748  0.757  0.604- 245 3.15 257 3.19 253 3.20 249 3.30 261 3.41 237 3.46
 310  0.000  0.000  0.705- 262 3.13 238 3.18 270 3.20 277 3.20 279 3.21 284 3.21
 311  0.000  0.500  0.705- 263 3.13 271 3.20 276 3.20 278 3.21 285 3.21 239 3.22
 312  0.500  0.000  0.705- 264 3.13 240 3.15 272 3.20 275 3.20 281 3.21 282 3.21
 313  0.500  0.500  0.705- 241 3.10 265 3.13 273 3.20 274 3.20 280 3.21 283 3.21
 314  0.250  0.250  0.705- 266 3.13 242 3.16 270 3.20 274 3.20 282 3.21 278 3.21
 315  0.250  0.750  0.705- 243 3.13 267 3.13 271 3.20 275 3.20 283 3.21 279 3.21
 316  0.750  0.250  0.705- 268 3.13 244 3.13 272 3.20 276 3.20 284 3.21 280 3.21
 317  0.750  0.750  0.705- 269 3.13 245 3.14 273 3.20 277 3.20 285 3.21 281 3.21
 318  0.000  0.000  0.807- 286 3.22 293 3.22 300 3.23 295 3.23 262 3.27
 319  0.000  0.500  0.807- 287 3.22 292 3.22 301 3.23 294 3.23 263 3.27
 320  0.500  0.000  0.807- 288 3.22 291 3.22 298 3.23 297 3.23 264 3.27
 321  0.500  0.500  0.807- 289 3.22 290 3.22 299 3.23 296 3.23 265 3.27
 322  0.250  0.250  0.807- 290 3.22 286 3.22 294 3.23 298 3.23 266 3.27
 323  0.250  0.750  0.807- 291 3.22 287 3.22 299 3.23 295 3.23 267 3.27
 324  0.750  0.250  0.807- 292 3.22 288 3.22 296 3.23 300 3.23 268 3.27
 325  0.750  0.750  0.807- 293 3.22 289 3.22 297 3.23 301 3.23 269 3.27
 

IMPORTANT INFORMATION: All symmetrisations will be switched off!
NOSYMM: (Re-)initialisation of all symmetry stuff for point group C_1.


----------------------------------------------------------------------------------------

                                     Primitive cell                                     

  volume of cell :   20385.2105

  direct lattice vectors                    reciprocal lattice vectors
    18.060800552  0.000000000  0.000000000     0.055368531  0.000015077 -0.000000000
    -0.004918649 18.062799454  0.000000000     0.000000000  0.055362404  0.000000000
     0.000000000  0.000000000 62.487499237     0.000000000 -0.000000000  0.016003201

  length of vectors
    18.060800552 18.062800123 62.487499237     0.055368533  0.055362404  0.016003201

  position of ions in fractional coordinates (direct lattice)
     0.455750902  0.305217316  0.581192601
     0.445946904  0.807718211  0.580604898
     0.956207971  0.307354567  0.576998158
     0.966734227  0.812538272  0.581299250
     0.311782672  0.042420149  0.580626814
     0.302021819  0.552597335  0.581173615
     0.789089093  0.054001870  0.582175524
     0.076882779  0.155392998  0.560935863
     0.073076184  0.664593829  0.556814006
     0.585392962  0.183288875  0.557140671
     0.567357490  0.669182002  0.558969223
     0.332612987  0.070444404  0.555149184
     0.323294413  0.581770548  0.555817835
     0.822564715  0.081030562  0.557699498
     0.040084953  0.196552542  0.583126825
     0.054128267  0.705703651  0.580903724
     0.561263861  0.222482550  0.581008909
     0.532743537  0.701124190  0.582798207
     0.201637177  0.448311366  0.582292247
     0.200348104  0.950185496  0.582514093
     0.699013747  0.941176264  0.580551176
     0.409145310  0.321526737  0.556802713
     0.429402889  0.844640225  0.555066709
     0.942022812  0.326303398  0.549809309
     0.929333092  0.836725850  0.557167471
     0.169928063  0.422173177  0.557540165
     0.161972543  0.929721671  0.558089408
     0.684811741  0.907766241  0.555157120
     0.491194641  0.244113030  0.538254874
     0.506059732  0.756351590  0.538300110
     0.015759214  0.236917521  0.537013110
     0.995730002  0.749239951  0.537930285
     0.243955579  0.504408503  0.538340219
     0.239530224  0.002055528  0.538408958
     0.761909839  0.993113648  0.538229906
     0.451091958  0.304121658  0.675333195
     0.453274822  0.790851087  0.675174655
     0.942563879  0.305712374  0.671123185
     0.947067179  0.802818743  0.674956411
     0.296647894  0.052156587  0.675286433
     0.298582625  0.547676642  0.674834865
     0.802000419  0.053663031  0.674374934
     0.803872820  0.559668321  0.675320070
     0.077016184  0.171523316  0.651278945
     0.077441777  0.669586221  0.650395529
     0.575782762  0.168913499  0.649894330
     0.576120310  0.671385197  0.645440680
     0.166125259  0.422808597  0.648786565
     0.172993604  0.919241109  0.648334936
     0.676055780  0.418772160  0.652114195
     0.668000820  0.925163388  0.649797936
     0.042884177  0.205141250  0.676080781
     0.047244204  0.698945387  0.676074554
     0.551441006  0.201652642  0.674995359
     0.553882863  0.693200522  0.671279833
     0.196982769  0.450008654  0.674201987
     0.200124521  0.948346245  0.674070858
     0.702587995  0.457998002  0.676215513
     0.698387678  0.956964299  0.674980769
     0.418914294  0.332424685  0.650000369
     0.416175812  0.826414775  0.651195005
     0.920181399  0.328370666  0.645283972
     0.919096492  0.833843782  0.649608750
     0.327451624  0.085272355  0.650281920
     0.329474057  0.579127442  0.649652644
     0.833973476  0.079770782  0.648827527
     0.833315971  0.576728420  0.649521514
     0.004506432  0.244293545  0.630172124
     0.998301467  0.750567813  0.631523529
     0.494370895  0.247269989  0.632669205
     0.494116888  0.750528690  0.630165286
     0.250264471  0.002439475  0.631523163
     0.247278154  0.501175330  0.631365294
     0.751574810  0.001638444  0.631534579
     0.762857816  0.494106404  0.633240670
     0.448745018  0.301283966  0.768889017
     0.448745007  0.801283913  0.768889017
     0.948744965  0.301283966  0.768889017
     0.948745007  0.801283913  0.768889017
     0.301275995  0.051294496  0.768872961
     0.301276011  0.551294499  0.768872961
     0.801275943  0.051294496  0.768872961
     0.801275984  0.551294499  0.768872961
     0.078771004  0.171180501  0.743441971
     0.078771006  0.671180448  0.743441971
     0.578771004  0.171180501  0.743441971
     0.578770992  0.671180448  0.743441971
     0.171199499  0.421174482  0.743421032
     0.171199501  0.921174508  0.743421032
     0.671199512  0.421174482  0.743421032
     0.671199501  0.921174508  0.743421032
     0.051256000  0.198714991  0.768889017
     0.051256002  0.698714925  0.768889017
     0.551256027  0.198714991  0.768889017
     0.551256016  0.698714925  0.768889017
     0.198723491  0.448703970  0.768872046
     0.198723493  0.948703970  0.768872046
     0.698723518  0.448703970  0.768872046
     0.698723507  0.948703970  0.768872046
     0.421231519  0.328817467  0.743441971
     0.421231508  0.828817440  0.743441971
     0.921231466  0.328817467  0.743441971
     0.921231508  0.828817440  0.743441971
     0.328800503  0.078824997  0.743421032
     0.328800492  0.578824964  0.743421032
     0.828800477  0.078824997  0.743421032
     0.828800519  0.578824964  0.743421032
     0.000003500  0.250001478  0.725821992
     0.000003500  0.750001452  0.725821992
     0.500003506  0.250001478  0.725821992
     0.500003495  0.750001452  0.725821992
     0.250000502  0.000000000  0.725803983
     0.250000517  0.500000000  0.725803983
     0.750000502  0.000000000  0.725803983
     0.750000490  0.500000000  0.725803983
     0.791530954  0.568052543  0.531595522
     0.740000769  0.486632361  0.532601278
     0.874499832  0.505567043  0.553232968
     0.848963233  0.477796929  0.579249463
     0.745632966  0.639269041  0.570992685
     0.805333264  0.586437759  0.588412367
     0.657127576  0.537502261  0.574817485
     0.681048833  0.452128481  0.562842373
     0.627005081  0.555827552  0.544088866
     0.681511031  0.636355294  0.546379058
     0.634543426  0.664424771  0.514252637
     0.706478908  0.612253037  0.503897416
     0.816731257  0.395763924  0.536658119
     0.756826039  0.383875703  0.559761373
     0.849384697  0.366065956  0.563023378
     0.870655669  0.684872846  0.565112358
     0.855700343  0.627716745  0.542412261
     0.915075051  0.598139367  0.564565129
     0.772132271  0.496965716  0.600159041
     0.738901053  0.407611544  0.593839845
     0.682202039  0.473563293  0.607201037
     0.552482651  0.551781558  0.513467751
     0.586834845  0.573890385  0.488015853
     0.711451206  0.505223541  0.479999112
     0.563523920  0.429998324  0.528312883
     0.770454447  0.382990655  0.479414431
     0.620775000  0.309386143  0.528489860
     0.727425533  0.285306774  0.503377476
     0.008116461  0.242464157  0.554260700
     0.001848929  0.752145197  0.556058484
     0.499608533  0.250186270  0.555961114
     0.499855347  0.755109682  0.555780352
     0.245180027  0.500673065  0.555781695
     0.245625901  0.999083886  0.555772660
     0.755031360  0.995734577  0.555582009
     0.999187677  0.249349348  0.648377486
     0.999637834  0.750332282  0.649789634
     0.498483073  0.249391137  0.650064347
     0.496446495  0.748661869  0.648324558
     0.249069517  0.501961963  0.649454606
     0.249033728  0.000991813  0.649639457
     0.755199228  0.498124784  0.650539784
     0.749786781  0.001460508  0.649644707
     0.499988984  0.249994984  0.743277021
     0.499989025  0.749994958  0.743277021
     0.999988984  0.249994984  0.743277021
     0.999989025  0.749994958  0.743277021
     0.250000502  0.000001000  0.743255960
     0.250000517  0.500001003  0.743255960
     0.750000502  0.000001000  0.743255960
     0.750000491  0.500001003  0.743255960
     0.631059515  0.477954530  0.502902192
     0.689793014  0.463639595  0.489534436
     0.606791633  0.421703620  0.516169830
     0.725677049  0.391363368  0.489309507
     0.641687192  0.350227146  0.516952579
     0.701117258  0.335657119  0.503573377
     0.746327035  0.541423863  0.538916017
     0.830049152  0.481446676  0.562435919
     0.792162275  0.600051911  0.571824943
     0.699186556  0.496221638  0.573919112
     0.672426188  0.587906908  0.537462968
     0.658762686  0.607092009  0.513588808
     0.810757870  0.402797713  0.554152952
     0.862893332  0.627850112  0.560002999
     0.724568620  0.468228718  0.595013358
     0.600766278  0.555893443  0.504032209
     0.045738228  0.194305630  0.567259455
     0.045779975  0.702799672  0.565509288
     0.553993473  0.216377657  0.565574181
     0.534448510  0.704804137  0.566639702
     0.450080503  0.296162827  0.565869345
     0.453483036  0.806592617  0.565177801
     0.965597071  0.295319647  0.561818730
     0.963938946  0.804130924  0.565778324
     0.202664322  0.453780997  0.565367475
     0.199239132  0.956710695  0.565636389
     0.709213010  0.944065216  0.563871143
     0.300970194  0.040861482  0.563935060
     0.294103667  0.549021030  0.564376798
     0.791887783  0.047007154  0.565324375
     0.039946549  0.208428171  0.659339640
     0.042174755  0.706613197  0.659088857
     0.542118062  0.205910170  0.659415399
     0.546950137  0.699827848  0.655555985
     0.201860341  0.453366007  0.658749861
     0.206664686  0.955462155  0.658675750
     0.709195359  0.456653403  0.660564433
     0.704577803  0.960715404  0.659473944
     0.452189966  0.299703493  0.659820143
     0.452385984  0.791643581  0.659563317
     0.948873219  0.299516959  0.655711045
     0.952983296  0.799232247  0.658407263
     0.295013781  0.050407623  0.659739561
     0.293084530  0.543489626  0.659321570
     0.799516194  0.049095851  0.658884470
     0.802057463  0.549692195  0.658967617
     0.045862501  0.204119496  0.752725994
     0.045862500  0.704119456  0.752725994
     0.545862507  0.204119496  0.752725994
     0.545862496  0.704119456  0.752725994
     0.204119002  0.454101003  0.752704994
     0.204118991  0.954100951  0.752704994
     0.704118976  0.454101003  0.752704994
     0.704118964  0.954100951  0.752704994
     0.454140018  0.295888490  0.752726971
     0.454140007  0.795888516  0.752726971
     0.954140018  0.295888490  0.752726971
     0.954140060  0.795888516  0.752726971
     0.295882492  0.045900498  0.752704994
     0.295882481  0.545900528  0.752704994
     0.795882439  0.045900498  0.752704994
     0.795882481  0.545900528  0.752704994
     0.766912217  0.527403856  0.561629911
     0.500054803  0.004628797  0.552886585
     0.487381150  0.511998912  0.555467790
     0.002949148  0.002523214  0.551880463
     0.013168522  0.486938851  0.549427946
     0.252614740  0.248036876  0.552796601
     0.251987062  0.751170974  0.552918085
     0.758022457  0.237081194  0.554774414
     0.739573344  0.762417043  0.549008307
     0.996569479  0.003674720  0.653924372
     0.001820670  0.497245597  0.653255842
     0.497481628  0.998015864  0.654491929
     0.498209898  0.502334556  0.655176392
     0.251916834  0.248515698  0.654309154
     0.250236682  0.751674717  0.654785384
     0.750971245  0.247220940  0.654662374
     0.745996734  0.750578056  0.654603341
     0.145624644  0.108243982  0.608437369
     0.146378702  0.607111333  0.607667439
     0.646026257  0.107623794  0.607742283
     0.631570902  0.618466218  0.610795934
     0.353469679  0.390960548  0.608125600
     0.358531307  0.895794758  0.607968891
     0.869935314  0.380238364  0.611012713
     0.857947677  0.895533726  0.607798874
     0.109532566  0.354498876  0.607780621
     0.104799937  0.857403806  0.608086041
     0.594419909  0.344493659  0.608341097
     0.604468982  0.859962647  0.608238110
     0.395622445  0.142823620  0.607942824
     0.392812676  0.645823190  0.608363440
     0.891147573  0.144149938  0.607652116
     0.905388713  0.656104328  0.611071318
     0.000000000  0.000000000  0.754927972
     0.000000000  0.500000000  0.754927972
     0.500000000  0.000000000  0.754927972
     0.499999989  0.500000000  0.754927972
     0.250000496  0.250000000  0.754939022
     0.250000511  0.749999974  0.754939022
     0.750000470  0.250000000  0.754939022
     0.750000458  0.749999974  0.754939022
     0.135790500  0.114209997  0.704782994
     0.135790502  0.614209984  0.704782994
     0.635790447  0.114209997  0.704782994
     0.635790488  0.614209984  0.704782994
     0.364209516  0.385789989  0.704782994
     0.364209505  0.885789963  0.704782994
     0.864209542  0.385789989  0.704782994
     0.864209531  0.885789963  0.704782994
     0.114217990  0.364218986  0.704780979
     0.114217992  0.864218986  0.704780979
     0.614218004  0.364218986  0.704780979
     0.614217992  0.864218986  0.704780979
     0.385782012  0.135781489  0.704782017
     0.385782001  0.635781489  0.704782017
     0.885781985  0.135781489  0.704782017
     0.885782027  0.635781489  0.704782017
     0.134667000  0.115332001  0.801256025
     0.134666989  0.615331988  0.801256025
     0.634666987  0.115332001  0.801256025
     0.634666976  0.615331988  0.801256025
     0.365333002  0.384667985  0.801256025
     0.365332990  0.884667959  0.801256025
     0.865332949  0.384667985  0.801256025
     0.865332938  0.884667959  0.801256025
     0.115328503  0.365337004  0.801264999
     0.115328505  0.865336978  0.801264999
     0.615328503  0.365337004  0.801264999
     0.615328492  0.865336978  0.801264999
     0.384671513  0.134662996  0.801264999
     0.384671501  0.634662970  0.801264999
     0.884671486  0.134662996  0.801264999
     0.884671528  0.634662970  0.801264999
     0.998307287  0.997854365  0.603309024
     0.001242503  0.503117810  0.603262872
     0.496339679  0.998913514  0.603478552
     0.497759268  0.501347925  0.603705465
     0.248361561  0.251775402  0.603253532
     0.247797735  0.747199953  0.602830473
     0.751527453  0.246158914  0.603502178
     0.747837007  0.757424545  0.604314291
     0.000000500  0.000000500  0.704828963
     0.000000500  0.500000475  0.704828963
     0.500000475  0.000000500  0.704828963
     0.500000464  0.500000475  0.704828963
     0.249999994  0.249999472  0.704824995
     0.250000010  0.749999498  0.704824995
     0.749999994  0.249999472  0.704824995
     0.749999983  0.749999498  0.704824995
     0.000000000  0.000000000  0.807317968
     0.000000000  0.500000000  0.807317968
     0.500000000  0.000000000  0.807317968
     0.499999989  0.500000000  0.807317968
     0.249999994  0.250000000  0.807317968
     0.250000010  0.749999974  0.807317968
     0.749999994  0.250000000  0.807317968
     0.749999983  0.749999974  0.807317968

  ion indices of the primitive-cell ions
   primitive index   ion index
                 1           1
                 2           2
                 3           3
                 4           4
                 5           5
                 6           6
                 7           7
                 8           8
                 9           9
                10          10
                11          11
                12          12
                13          13
                14          14
                15          15
                16          16
                17          17
                18          18
                19          19
                20          20
                21          21
                22          22
                23          23
                24          24
                25          25
                26          26
                27          27
                28          28
                29          29
                30          30
                31          31
                32          32
                33          33
                34          34
                35          35
                36          36
                37          37
                38          38
                39          39
                40          40
                41          41
                42          42
                43          43
                44          44
                45          45
                46          46
                47          47
                48          48
                49          49
                50          50
                51          51
                52          52
                53          53
                54          54
                55          55
                56          56
                57          57
                58          58
                59          59
                60          60
                61          61
                62          62
                63          63
                64          64
                65          65
                66          66
                67          67
                68          68
                69          69
                70          70
                71          71
                72          72
                73          73
                74          74
                75          75
                76          76
                77          77
                78          78
                79          79
                80          80
                81          81
                82          82
                83          83
                84          84
                85          85
                86          86
                87          87
                88          88
                89          89
                90          90
                91          91
                92          92
                93          93
                94          94
                95          95
                96          96
                97          97
                98          98
                99          99
               100         100
               101         101
               102         102
               103         103
               104         104
               105         105
               106         106
               107         107
               108         108
               109         109
               110         110
               111         111
               112         112
               113         113
               114         114
               115         115
               116         116
               117         117
               118         118
               119         119
               120         120
               121         121
               122         122
               123         123
               124         124
               125         125
               126         126
               127         127
               128         128
               129         129
               130         130
               131         131
               132         132
               133         133
               134         134
               135         135
               136         136
               137         137
               138         138
               139         139
               140         140
               141         141
               142         142
               143         143
               144         144
               145         145
               146         146
               147         147
               148         148
               149         149
               150         150
               151         151
               152         152
               153         153
               154         154
               155         155
               156         156
               157         157
               158         158
               159         159
               160         160
               161         161
               162         162
               163         163
               164         164
               165         165
               166         166
               167         167
               168         168
               169         169
               170         170
               171         171
               172         172
               173         173
               174         174
               175         175
               176         176
               177         177
               178         178
               179         179
               180         180
               181         181
               182         182
               183         183
               184         184
               185         185
               186         186
               187         187
               188         188
               189         189
               190         190
               191         191
               192         192
               193         193
               194         194
               195         195
               196         196
               197         197
               198         198
               199         199
               200         200
               201         201
               202         202
               203         203
               204         204
               205         205
               206         206
               207         207
               208         208
               209         209
               210         210
               211         211
               212         212
               213         213
               214         214
               215         215
               216         216
               217         217
               218         218
               219         219
               220         220
               221         221
               222         222
               223         223
               224         224
               225         225
               226         226
               227         227
               228         228
               229         229
               230         230
               231         231
               232         232
               233         233
               234         234
               235         235
               236         236
               237         237
               238         238
               239         239
               240         240
               241         241
               242         242
               243         243
               244         244
               245         245
               246         246
               247         247
               248         248
               249         249
               250         250
               251         251
               252         252
               253         253
               254         254
               255         255
               256         256
               257         257
               258         258
               259         259
               260         260
               261         261
               262         262
               263         263
               264         264
               265         265
               266         266
               267         267
               268         268
               269         269
               270         270
               271         271
               272         272
               273         273
               274         274
               275         275
               276         276
               277         277
               278         278
               279         279
               280         280
               281         281
               282         282
               283         283
               284         284
               285         285
               286         286
               287         287
               288         288
               289         289
               290         290
               291         291
               292         292
               293         293
               294         294
               295         295
               296         296
               297         297
               298         298
               299         299
               300         300
               301         301
               302         302
               303         303
               304         304
               305         305
               306         306
               307         307
               308         308
               309         309
               310         310
               311         311
               312         312
               313         313
               314         314
               315         315
               316         316
               317         317
               318         318
               319         319
               320         320
               321         321
               322         322
               323         323
               324         324
               325         325

----------------------------------------------------------------------------------------

 
 
 KPOINTS: Automatic Mesh                          

Automatic generation of k-mesh.
 Grid dimensions read from file:
 generate k-points for:    3    3    1

 Generating k-lattice:

  Cartesian coordinates                     Fractional coordinates (reciprocal lattice)
     0.018456177  0.000005026 -0.000000000     0.333333333  0.000000000  0.000000000
     0.000000000  0.018454135  0.000000000     0.000000000  0.333333333  0.000000000
     0.000000000 -0.000000000  0.016003201     0.000000000  0.000000000  1.000000000

  Length of vectors
     0.018456178  0.018454135  0.016003201

  Shift w.r.t. Gamma in fractional coordinates (k-lattice)
     0.000000000  0.000000000  0.000000000

 
 Subroutine IBZKPT returns following result:
 ===========================================
 
 Found      5 irreducible k-points:
 
 Following reciprocal coordinates:
            Coordinates               Weight
  0.000000  0.000000  0.000000      1.000000
  0.333333  0.000000  0.000000      2.000000
  0.000000  0.333333  0.000000      2.000000
  0.333333  0.333333  0.000000      2.000000
 -0.333333  0.333333  0.000000      2.000000
 
 Following cartesian coordinates:
            Coordinates               Weight
  0.000000  0.000000  0.000000      1.000000
  0.018456  0.000005  0.000000      2.000000
  0.000000  0.018454  0.000000      2.000000
  0.018456  0.018459  0.000000      2.000000
 -0.018456  0.018449  0.000000      2.000000
 


--------------------------------------------------------------------------------------------------------




 Dimension of arrays:
   k-points           NKPTS =      5   k-points in BZ     NKDIM =      5   number of bands    NBANDS=    732
   number of dos      NEDOS =    301   number of ions     NIONS =    325
   non local maximal  LDIM  =      5   non local SUM 2l+1 LMDIM =     13
   total plane-waves  NPLWV = ******
   max r-space proj   IRMAX =   3336   max aug-charges    IRDMAX=  19845
   dimension x,y,z NGX =   100 NGY =  100 NGZ =  350
   dimension x,y,z NGXF=   200 NGYF=  200 NGZF=  700
   support grid    NGXF=   200 NGYF=  200 NGZF=  700
   ions per type =             143  39  47  72  24
   NGX,Y,Z   is equivalent  to a cutoff of   9.20,  9.20,  9.31 a.u.
   NGXF,Y,Z  is equivalent  to a cutoff of  18.41, 18.41, 18.62 a.u.

 SYSTEM =  PSC                                     
 POSCAR =   H  C  N  I Pb                          

 Startparameter for this run:
   NWRITE =      2    write-flag & timer
   PREC   = normal    normal or accurate (medium, high low for compatibility)
   ISTART =      0    job   : 0-new  1-cont  2-samecut
   ICHARG =      1    charge: 1-file 2-atom 10-const
   ISPIN  =      1    spin polarized calculation?
   LNONCOLLINEAR =      F non collinear calculations
   LSORBIT =      F    spin-orbit coupling
   INIWAV =      1    electr: 0-lowe 1-rand  2-diag
   LASPH  =      F    aspherical Exc in radial PAW
 Electronic Relaxation 1
   ENCUT  =  500.0 eV  36.75 Ry    6.06 a.u.  32.93 32.93113.93*2*pi/ulx,y,z
   ENINI  =  500.0     initial cutoff
   ENAUG  =  644.9 eV  augmentation charge cutoff
   NELM   =    600;   NELMIN=  2; NELMDL=  0     # of ELM steps 
   EDIFF  = 0.1E-03   stopping-criterion for ELM
   LREAL  =      T    real-space projection
   NLSPLINE    = F    spline interpolate recip. space projectors
   LCOMPAT=      F    compatible to vasp.4.4
   GGA_COMPAT  = F    GGA compatible to vasp.4.4-vasp.4.6
   LMAXPAW     = -100 max onsite density
   LMAXMIX     =    2 max onsite mixed and CHGCAR
   VOSKOWN=      0    Vosko Wilk Nusair interpolation
   ROPT   =   -0.00050  -0.00050  -0.00050  -0.00050
   ROPT   =   -0.00050
 Ionic relaxation
   EDIFFG = 0.1E-02   stopping-criterion for IOM
   NSW    =      0    number of steps for IOM
   NBLOCK =      1;   KBLOCK =      1    inner block; outer block 
   IBRION =     -1    ionic relax: 0-MD 1-quasi-New 2-CG
   NFREE  =      0    steps in history (QN), initial steepest desc. (CG)
   ISIF   =      2    stress and relaxation
   IWAVPR =     10    prediction:  0-non 1-charg 2-wave 3-comb
   ISYM   =      0    0-nonsym 1-usesym 2-fastsym
   LCORR  =      T    Harris-Foulkes like correction to forces

   POTIM  = 0.5000    time-step for ionic-motion
   TEIN   =    0.0    initial temperature
   TEBEG  =    0.0;   TEEND  =   0.0 temperature during run
   SMASS  =  -3.00    Nose mass-parameter (am)
   estimated Nose-frequenzy (Omega)   =  0.10E-29 period in steps = 0.13E+47 mass=  -0.745E-26a.u.
   SCALEE = 1.0000    scale energy and forces
   NPACO  =    256;   APACO  = 16.0  distance and # of slots for P.C.
   PSTRESS=    0.0 pullay stress

  Mass of Ions in am
   POMASS =   1.00 12.01 14.00126.90207.20
  Ionic Valenz
   ZVAL   =   1.00  4.00  5.00  7.00  4.00
  Atomic Wigner-Seitz radii
   RWIGS  =  -1.00 -1.00 -1.00 -1.00 -1.00
  virtual crystal weights 
   VCA    =   1.00  1.00  1.00  1.00  1.00
   NELECT =    1134.0000    total number of electrons
   NUPDOWN=      -1.0000    fix difference up-down

 DOS related values:
   EMIN   =  10.00;   EMAX   =-10.00  energy-range for DOS
   EFERMI =   0.00
   ISMEAR =     0;   SIGMA  =   0.05  broadening in eV -4-tet -1-fermi 0-gaus

 Electronic relaxation 2 (details)
   IALGO  =     38    algorithm
   LDIAG  =      T    sub-space diagonalisation (order eigenvalues)
   LSUBROT=      F    optimize rotation matrix (better conditioning)
   TURBO    =      0    0=normal 1=particle mesh
   IRESTART =      0    0=no restart 2=restart with 2 vectors
   NREBOOT  =      0    no. of reboots
   NMIN     =      0    reboot dimension
   EREF     =   0.00    reference energy to select bands
   IMIX   =      4    mixing-type and parameters
     AMIX     =   0.40;   BMIX     =  0.01
     AMIX_MAG =   1.60;   BMIX_MAG =  0.01
     AMIN     =   0.01
     WC   =   100.;   INIMIX=   1;  MIXPRE=   1;  MAXMIX= -45

 Intra band minimization:
   WEIMIN = 0.0000     energy-eigenvalue tresh-hold
   EBREAK =  0.34E-07  absolut break condition
   DEPER  =   0.30     relativ break condition  

   TIME   =   0.40     timestep for ELM

  volume/ion in A,a.u.               =      62.72       423.28
  Fermi-wavevector in a.u.,A,eV,Ry     =   0.624944  1.180972  5.313816  0.390554
  Thomas-Fermi vector in A             =   1.685677
 
 Write flags
   LWAVE        =      F    write WAVECAR
   LDOWNSAMPLE  =      F    k-point downsampling of WAVECAR
   LCHARG       =      T    write CHGCAR
   LVTOT        =      T    write LOCPOT, total local potential
   LVHAR        =      F    write LOCPOT, Hartree potential only
   LELF         =      F    write electronic localiz. function (ELF)
   LORBIT       =      0    0 simple, 1 ext, 2 COOP (PROOUT), +10 PAW based schemes


 Dipole corrections
   LMONO  =      F    monopole corrections only (constant potential shift)
   LDIPOL =      T    correct potential (dipole corrections)
   IDIPOL =      3    1-x, 2-y, 3-z, 4-all directions 
   EPSILON=  1.0000000 bulk dielectric constant

 Exchange correlation treatment:
   GGA     =    --    GGA type
   LEXCH   =     8    internal setting for exchange type
   VOSKOWN=      0    Vosko Wilk Nusair interpolation
   LHFCALC =     F    Hartree Fock is set to
   LHFONE  =     F    Hartree Fock one center treatment
   AEXX    =    0.0000 exact exchange contribution

 Linear response parameters
   LEPSILON=     F    determine dielectric tensor
   LRPA    =     F    only Hartree local field effects (RPA)
   LNABLA  =     F    use nabla operator in PAW spheres
   LVEL    =     F    velocity operator in full k-point grid
   LINTERFAST=   F  fast interpolation
   KINTER  =     0    interpolate to denser k-point grid
   CSHIFT  =0.1000    complex shift for real part using Kramers Kronig
   OMEGAMAX=  -1.0    maximum frequency
   DEG_THRESHOLD= 0.2000000E-02 threshold for treating states as degnerate
   RTIME   =   -0.100 relaxation time in fs
  (WPLASMAI=    0.000 imaginary part of plasma frequency in eV, 0.658/RTIME)
   DFIELD  = 0.0000000 0.0000000 0.0000000 field for delta impulse in time
 
 Orbital magnetization related:
   ORBITALMAG=     F  switch on orbital magnetization
   LCHIMAG   =     F  perturbation theory with respect to B field
   DQ        =  0.001000  dq finite difference perturbation B field
   LLRAUG    =     F  two centre corrections for induced B field



--------------------------------------------------------------------------------------------------------


 Static calculation
 charge density and potential will be updated during run
 non-spin polarized calculation
 Variant of blocked Davidson
 Davidson routine will perform the subspace rotation
 perform sub-space diagonalisation
    after iterative eigenvector-optimisation
 modified Broyden-mixing scheme, WC =      100.0
 initial mixing is a Kerker type mixing with AMIX =  0.4000 and BMIX =      0.0100
 Hartree-type preconditioning will be used
 using additional bands           165
 real space projection scheme for non local part
[...]
     13.54561      0.00000     45.35368         0.000456      0.001835      0.012144
     13.54315      9.03140     45.35368         0.000888     -0.002298      0.016007
     14.29289     10.26062     33.21807         0.914475      0.649572     -0.784410
     13.36261      8.78994     33.28092        -0.282509     -0.554865     -0.722510
     15.79168      9.13196     34.57014         0.145051      0.059258     -0.260868
     15.33061      8.63035     36.19585        -0.013122     -0.018232     -0.391619
     13.46358     11.54699     35.67990         0.336297     -0.139560      0.008369
     14.54208     10.59271     36.76842        -0.074975      0.152588     -0.011463
     11.86561      9.70880     35.91891        -0.396742      0.775194     -0.030446
     12.29806      8.16671     35.17061        -0.370232      0.124020      0.455518
     11.32148     10.03980     33.99875        -0.286135     -0.121906     -0.093451
     12.30550     11.49436     34.14186         0.035464      1.342144      0.766479
     11.45709     12.00137     32.13436         0.257015     -0.420734     -0.304879
     12.75656     11.05900     31.48729         1.297631     -0.120124     -0.612219
     14.74887      7.14860     33.53442        -0.094191     -0.017985      0.393405
     13.66700      6.93387     34.97809        -0.030001      0.100490     -0.308688
     15.33877      6.61218     35.18192        -0.328981      0.187997     -0.570796
     15.72137     12.37072     35.31246        -0.021180      0.239713     -0.103685
     15.45155     11.33832     33.89399         0.205796      0.133769      0.460572
     16.52405     10.80407     35.27826        -0.811649      0.229053     -0.233012
     13.94288      8.97659     37.50244         1.073353      0.681801      0.598219
     13.34314      7.36261     37.10757        -0.216530      1.153563      0.105441
     12.31879      8.55388     37.94247        -0.189947      0.014909      0.056821
      9.97556      9.96672     32.08532        -1.306589      0.447874      0.830487
     10.59588     10.36607     30.49489        -0.285559      0.225307     -0.535711
     12.84689      9.12575     29.99394         0.784785      1.541293     -1.386802
     10.17558      7.76697     33.01295         0.040136      0.221190     -0.452687
     13.91314      6.91788     29.95741         1.860692     -0.424760     -1.488555
     11.21017      5.58838     33.02401         0.233110      0.141438     -0.207464
     13.13648      5.15344     31.45480         1.148126     -2.310607      0.139862
      0.14540      4.37958     34.63437         1.530380     -1.744126      2.531196
      0.02969     13.58585     34.74670         0.323428     -0.760319     -1.340852
      9.02210      4.51906     34.74062        -2.297437      1.848268     -0.243339
      9.02407     13.63939     34.72932        -2.223781      2.390562      1.035229
      4.42568      9.04356     34.72941         2.050038      2.163419     -0.552587
      4.43129     18.04625     34.72884         2.029933      1.780347     -0.663370
     13.63157     17.98575     34.71693        -1.526862     -2.021840     -0.609350
     18.04490      4.50395     40.51549        -3.554268      3.569420     -3.162310
     18.05057     13.55310     40.60373        -3.263665      3.588946     -3.625273
      9.00178      4.50470     40.62090        -3.825114      3.668736     -0.480823
      8.96254     13.52293     40.51218         1.227181     -1.131322     -1.417626
      4.49593      9.06684     40.58279        -3.465093     -3.626414     -1.952287
      4.49774      0.01791     40.59435         3.590947      3.846739     -1.617447
     13.63705      8.99753     40.65060         2.882057      2.660929     -0.495952
     13.54174      0.02638     40.59467         3.839767      3.610078     -1.768954
      9.02897      4.51561     46.44552         0.006617      0.006508      0.039030
      9.02651     13.54701     46.44552         0.002888      0.011908      0.039694
     18.05937      4.51561     46.44552         0.016176     -0.002063      0.034266
     18.05691     13.54701     46.44552         0.010193      0.007030      0.047358
      4.51521      0.00002     46.44421         0.011336      0.010392      0.049011
      4.51275      9.03142     46.44421         0.006471      0.003060      0.052723
     13.54561      0.00002     46.44421         0.003659      0.004513      0.053893
     13.54315      9.03142     46.44421        -0.020578     -0.021211      0.051835
     11.39509      8.63320     31.42510        -0.221909      0.283544      0.012023
     12.45593      8.37463     30.58978         1.123963     -3.743426      0.479225
     10.95707      7.61715     32.25416         0.085632     -1.981734      1.162503
     13.10438      7.06912     30.57573        -2.990073      1.908562      2.068279
     11.58766      6.32608     32.30307        -0.847956      1.405163     -0.048620
     12.66109      6.06291     31.46704        -0.691675      2.572299     -0.924948
     13.47660      9.77963     33.67551        -2.729213      0.016451      1.046761
     14.98898      8.69627     35.14521         0.464744     -3.049814     -0.118772
     14.30413     10.83862     35.73191         0.687775     -0.378715     -0.954120
     12.62543      8.96315     35.86277         1.281150     -0.893290     -1.313091
     12.14166     10.61924     33.58472         2.020585     -2.179665     -1.880752
     11.89480     10.96578     32.09288        -2.498117      1.315172      1.909104
     14.64095      7.27565     34.62763         1.446290      0.588168      0.802430
     15.58146     11.34073     34.99319        -0.156055     -0.073100      0.596458
     13.08399      8.45752     37.18090        -0.901747     -1.901799     -0.407247
     10.84759     10.04099     31.49571         1.368018     -0.942634     -0.717148
      0.82511      3.50970     35.44662        -2.166375      2.862576     -2.160587
      0.82337     12.69453     35.33726        -1.276018      1.234517     -2.284629
     10.00450      3.90839     35.34132        -1.626095      0.853982     -1.244677
      9.64910     12.73074     35.40790         0.085203      0.146263      0.006110
      8.12736      5.34953     35.35976         1.378753     -1.754212     -3.630041
      8.18630     14.56932     35.31655         2.144303     -1.931522     -4.425659
     17.43800      5.33430     35.10665         0.252348     -0.401306     -3.176685
     17.40555     14.52486     35.35407         0.107468     -0.568759     -1.707995
      3.65805      8.19656     35.32840         1.801770      1.429126      3.708330
      3.59371     17.28087     35.34520         2.113157      1.121321      3.943484
     12.80431     17.05246     35.23490         2.355033      3.827436      3.016593
      5.43556      0.73807     35.23889        -3.305109     -3.065088      3.117055
      5.30905      9.91686     35.26649        -3.027600     -3.346156      3.265000
     14.30190      0.84908     35.32571        -1.749731     -1.751729      3.907282
      0.72044      3.76480     41.20049         3.641887     -3.630306      2.249596
      0.75823     12.76341     41.18481         3.827421     -4.114757      2.932618
      9.79007      3.71931     41.20522         3.196100     -3.350280     -1.130623
      9.87492     12.64085     40.96405        -3.129521      3.059465      0.943005
      3.64353      8.18906     41.16363         0.556710      0.773271     -3.822803
      3.72783     17.25832     41.15900        -3.233027     -3.441324     -2.377678
     12.80639      8.24844     41.27702        -1.335204     -1.496854     -1.542704
     12.72051     17.35321     41.20888        -3.354629     -3.276918     -2.344240
      8.16544      5.41348     41.23051         1.409046     -1.640255     -3.931441
      8.16656     14.29930     41.21446        -0.044237      0.052614     -2.901237
     17.13594      5.41011     40.97374         3.040785     -3.028082     -1.128421
     17.20771     14.43637     41.14222         0.213805     -0.358906      1.004029
      5.32794      0.91050     41.22548        -1.310329     -1.466091     -3.988671
      5.29067      9.81694     41.19936         3.594062      3.592932     -2.306975
     14.43966      0.88681     41.17204        -1.447138     -1.521703     -3.780499
     14.48310      9.92898     41.17724        -3.887106     -3.505024      2.407108
      0.82731      3.68697     47.03596         0.016377     -0.021216     -0.086852
      0.82485     12.71837     47.03596         0.017779     -0.027379     -0.093549
      9.85771      3.68697     47.03596         0.024341     -0.024196     -0.086495
      9.85525     12.71837     47.03596         0.028833     -0.025459     -0.087133
      3.68432      8.20234     47.03465        -0.019610     -0.008082     -0.071854
      3.68186     17.23373     47.03465        -0.020761     -0.017726     -0.069397
     12.71472      8.20234     47.03465         0.001231      0.001811     -0.084283
     12.71226     17.23373     47.03465        -0.010644     -0.016639     -0.075509
      8.20068      5.34457     47.03603        -0.015776      0.016212     -0.087180
      8.19822     14.37597     47.03603        -0.014772      0.012044     -0.090549
     17.23108      5.34457     47.03603        -0.020146      0.025677     -0.085024
     17.22862     14.37597     47.03603        -0.019383      0.013479     -0.094345
      5.34365      0.82909     47.03465         0.001680      0.002964     -0.071371
      5.34119      9.86049     47.03465         0.004270      0.010571     -0.076601
     14.37405      0.82909     47.03465         0.008428      0.004923     -0.072850
     14.37159      9.86049     47.03465         0.024964      0.024589     -0.073281
     13.84845      9.52639     35.09485        -1.599225      2.754476      0.650102
      9.03137      0.08361     34.54850        -0.024108      0.016004      0.014398
      8.79998      9.24813     34.70979        -0.335943      0.053267      0.028526
      0.05325      0.04558     34.48563        -0.024505     -0.082468      0.069576
      0.23544      8.79548     34.33238         0.584753     -0.028230      0.093789
      4.56120      4.48024     34.54288        -0.011903      0.060472     -0.029480
      4.54739     13.56825     34.55047        -0.044346     -0.009632      0.044278
     13.68933      4.28235     34.66647        -0.222715     -0.938647     -0.227238
     13.35354     13.77139     34.30616        -0.116567      1.074380      0.116185
     17.99882      0.06638     40.86210         0.098255     -0.011097      0.061596
      0.03044      8.98165     40.82032         0.049548      0.094511      0.043147
      8.98001     18.02696     40.89756         0.068744     -0.002494      0.102530
      8.99560      9.07357     40.94033         0.008571     -0.026293     -0.043244
      4.54860      4.48889     40.88614        -0.067128      0.024126      0.137793
      4.51578     13.57735     40.91590        -0.041323     -0.002748     -0.088559
     13.56193      4.46550     40.90821        -0.100396      0.076431      0.138941
     13.46961     13.55754     40.90453         0.039966      0.074361     -0.203558
      2.62957      1.95519     38.01973        -0.201852     -0.218038      0.032115
      2.64073     10.96613     37.97162        -0.104202     -0.117114      0.001176
     11.66722      1.94399     37.97630        -0.072839     -0.145663      0.012499
     11.40363     11.17123     38.16711        -0.129035      0.509139      0.128563
      6.38202      7.06184     38.00025         0.151384      0.319710      0.008334
      6.47096     16.18056     37.99046        -0.278099     -0.193046      0.027437
     15.70986      6.86817     38.18066         0.879437     -0.279056      0.188851
     15.49082     16.17585     37.97983        -0.162119     -0.096195     -0.012198
      1.97650      6.40324     37.97869        -0.210287      0.291144     -0.029126
      1.88855     15.48711     37.99778         0.078010     -0.054956      0.018248
     10.73400      6.22252     38.01371        -0.305339     -0.112265     -0.009644
     10.91296     15.53333     38.00728         0.273091     -0.158105      0.022959
      7.14456      2.57979     37.98883        -0.104644     -0.007579     -0.042086
      7.09133     11.66537     38.01511        -0.117708     -0.078399     -0.003601
     16.09413      2.60375     37.97066         0.172901     -0.198172     -0.002021
     16.34882     11.85108     38.18432         0.122641     -0.046829      0.398970
      0.00000      0.00000     47.17356        -0.001422     -0.004537      0.388955
     -0.00246      9.03140     47.17356        -0.001880      0.007101      0.297828
      9.03040      0.00000     47.17356         0.002263     -0.003641      0.463696
      9.02794      9.03140     47.17356         0.002849      0.004525      0.498341
      4.51398      4.51570     47.17425        -0.005658      0.000730      0.471652
      4.51152     13.54710     47.17425        -0.006932     -0.003173      0.455206
     13.54438      4.51570     47.17425         0.002453      0.001903      0.484197
     13.54192     13.54710     47.17425         0.005813     -0.002804      0.355799
      2.45192      2.06295     44.04013        -0.040940     -0.014761     -0.053419
      2.44946     11.09435     44.04013        -0.046885     -0.002308     -0.068613
     11.48232      2.06295     44.04013         0.008097     -0.012641     -0.038008
     11.47986     11.09435     44.04013         0.043114      0.016332     -0.059906
      6.57602      6.96845     44.04013        -0.047207      0.064355      0.042802
      6.57356     15.99985     44.04013        -0.037893     -0.002783     -0.005227
     15.60642      6.96845     44.04013         0.022132      0.049681     -0.037217
     15.60396     15.99985     44.04013        -0.026053     -0.003345     -0.013824
      2.06108      6.57881     44.04000        -0.066827      0.015536     -0.003097
      2.05862     15.61021     44.04000        -0.014649      0.002157     -0.050199
     11.09148      6.57881     44.04000        -0.009482     -0.005452     -0.031475
     11.08902     15.61021     44.04000         0.026033     -0.030661     -0.037001
      6.96686      2.45259     44.04007         0.042785      0.029475      0.038831
      6.96440     11.48399     44.04007        -0.010696      0.021813     -0.036014
     15.99726      2.45259     44.04007         0.054065      0.021008      0.030782
     15.99481     11.48399     44.04007         0.039298      0.036287     -0.000844
      2.43163      2.08322     50.06849        -0.000077     -0.019260      0.022856
      2.42917     11.11462     50.06849        -0.004781     -0.021266      0.018211
     11.46203      2.08322     50.06849         0.012650     -0.010866      0.024525
     11.45957     11.11462     50.06849         0.027127      0.004437      0.021156
      6.59631      6.94818     50.06849        -0.013458      0.010341      0.024852
      6.59385     15.97958     50.06849        -0.015242      0.005300      0.023098
     15.62671      6.94818     50.06849         0.005694      0.027837      0.020525
     15.62425     15.97958     50.06849        -0.013345      0.003762      0.018835
      2.08113      6.59901     50.06905        -0.028256      0.007440      0.021709
      2.07867     15.63041     50.06905        -0.017235     -0.007696      0.020403
     11.11153      6.59901     50.06905        -0.005500     -0.009945      0.023595
     11.10907     15.63041     50.06905         0.004651     -0.024045      0.022161
      6.94681      2.43239     50.06905         0.008898      0.009045      0.025744
      6.94435     11.46379     50.06905         0.003215      0.015832      0.022383
     15.97721      2.43239     50.06905         0.018433      0.001870      0.022230
     15.97475     11.46379     50.06905         0.014674      0.008034      0.017248
     18.02532     18.02404     37.69927         0.173300      0.352511     -0.083153
      0.01997      9.08772     37.69639         0.011680     -0.120609     -0.006450
      8.95938     18.04317     37.70987         0.126324      0.368245     -0.187480
      8.98746      9.05575     37.72404        -0.101215     -0.294138      0.313859
      4.48437      4.54777     37.69580         0.180432     -0.245517     -0.128412
      4.47175     13.49652     37.66937         0.173111      0.194051     -0.069430
     13.57198      4.44632     37.71134        -0.219234     -0.006914      0.150959
     13.50281     13.68121     37.76209        -0.033322     -0.016265     -0.063635
      0.00001      0.00001     44.04300        -0.001953      0.028872      0.025158
     -0.00245      9.03141     44.04300         0.007493     -0.086180      0.058402
      9.03041      0.00001     44.04300        -0.053806      0.020364      0.001223
      9.02795      9.03141     44.04300        -0.035675     -0.033852      0.074041
      4.51397      4.51569     44.04275         0.048630      0.006884     -0.076407
      4.51151     13.54709     44.04275         0.047859      0.040957      0.080486
     13.54437      4.51569     44.04275         0.013771     -0.007180     -0.024920
     13.54191     13.54709     44.04275        -0.046419      0.048074      0.175848
      0.00000      0.00000     50.44728         0.007361      0.011283     -0.622063
     -0.00246      9.03140     50.44728         0.005522     -0.012048     -0.595379
      9.03040      0.00000     50.44728        -0.006024      0.011756     -0.643878
      9.02794      9.03140     50.44728        -0.007303     -0.010588     -0.651408
      4.51397      4.51570     50.44728         0.016859     -0.003715     -0.647014
      4.51151     13.54710     50.44728         0.016499      0.006193     -0.639672
     13.54437      4.51570     50.44728        -0.016335     -0.005808     -0.648688
     13.54191     13.54710     50.44728        -0.017622      0.003354     -0.610491
 -----------------------------------------------------------------------------------
    total drift:                                0.040533     -0.017847      0.176539


--------------------------------------------------------------------------------------------------------



  FREE ENERGIE OF THE ION-ELECTRON SYSTEM (eV)
  ---------------------------------------------------
  free  energy   TOTEN  =     -1565.91906799 eV

  energy  without entropy=    -1565.91906799  energy(sigma->0) =    -1565.91906799
 


--------------------------------------------------------------------------------------------------------


    POTLOK:  cpu time    0.5024: real time    0.5023


--------------------------------------------------------------------------------------------------------


     LOOP+:  cpu time  328.0430: real time  328.6180
 vacuum level on the upper side and lower side of the slab         2.390         1.484
    4ORBIT:  cpu time    0.0000: real time    0.0000

 total amount of memory used by VASP MPI-rank0  8653574. kBytes
=======================================================================

   base      :      30000. kBytes
   nonlr-proj:      53612. kBytes
   fftplans  :     249280. kBytes
   grid      :     701440. kBytes
   one-center:       2636. kBytes
   wavefun   :    7616606. kBytes
 
  
  
 General timing and accounting informations for this job:
 ========================================================
  
                  Total CPU time used (sec):      541.426
                            User time (sec):      434.677
                          System time (sec):      106.749
                         Elapsed time (sec):      544.389
  
                   Maximum memory used (kb):    10314448.
                   Average memory used (kb):          N/A
  
                          Minor page faults:      3779765
                          Major page faults:           12
                 Voluntary context switches:        11700
