<?xml version="1.0" encoding="ISO-8859-1"?>
<modeling>
 <generator>
  <i name="program" type="string">vasp </i>
  <i name="version" type="string">6.2.1  </i>
  <i name="subversion" type="string">16May21 (build Nov 15 2021 14:57:28) complex                          parallel </i>
  <i name="platform" type="string">LinuxPGI </i>
  <i name="date" type="string">2023 07 24 </i>
  <i name="time" type="string">21:04:03 </i>
 </generator>
 <incar>
  <i type="string" name="SYSTEM">PSC</i>
  <i type="int" name="ISTART">     1</i>
  <i type="string" name="PREC">Normal</i>
  <i name="BMIX">      0.01000000</i>
  <i name="AMIN">      0.01000000</i>
  <i type="int" name="ICHARG">     1</i>
  <i type="int" name="NELM">   600</i>
  <i type="int" name="ISYM">     0</i>
  <i name="ENCUT">    500.00000000</i>
  <i type="string" name="LREAL">Auto</i>
  <i type="int" name="ISMEAR">     0</i>
  <i name="SIGMA">      0.05000000</i>
  <i type="logical" name="LWAVE"> F  </i>
  <i type="logical" name="LVTOT"> T  </i>
  <i type="logical" name="GGA_COMPAT"> F  </i>
  <i type="logical" name="LDIPOL"> T  </i>
  <i type="int" name="IDIPOL">     3</i>
  <i type="int" name="IVDW">    12</i>
 </incar>
 <primitive_cell>
  <structure name="primitive_cell" >
   <crystal>
    <varray name="basis" >
     <v>      18.06080055       0.00000000       0.00000000 </v>
     <v>      -0.00491865      18.06279945       0.00000000 </v>
     <v>       0.00000000       0.00000000      62.48749924 </v>
    </varray>
    <i name="volume">  20385.21054034 </i>
    <varray name="rec_basis" >
     <v>       0.05536853       0.00001508      -0.00000000 </v>
     <v>       0.00000000       0.05536240       0.00000000 </v>
     <v>       0.00000000      -0.00000000       0.01600320 </v>
    </varray>
   </crystal>
   <varray name="positions" >
    <v>       0.45575090       0.30521732       0.58119260 </v>
    <v>       0.44594690       0.80771821       0.58060490 </v>
    <v>       0.95620797       0.30735457       0.57699816 </v>
    <v>       0.96673423       0.81253827       0.58129925 </v>
    <v>       0.31178267       0.04242015       0.58062681 </v>
    <v>       0.30202182       0.55259734       0.58117361 </v>
    <v>       0.78908909       0.05400187       0.58217552 </v>
    <v>       0.07688278       0.15539300       0.56093586 </v>
    <v>       0.07307618       0.66459383       0.55681401 </v>
    <v>       0.58539296       0.18328888       0.55714067 </v>
    <v>       0.56735749       0.66918200       0.55896922 </v>
    <v>       0.33261299       0.07044440       0.55514918 </v>
    <v>       0.32329441       0.58177055       0.55581784 </v>
    <v>       0.82256471       0.08103056       0.55769950 </v>
    <v>       0.04008495       0.19655254       0.58312683 </v>
    <v>       0.05412827       0.70570365       0.58090372 </v>
    <v>       0.56126386       0.22248255       0.58100891 </v>
    <v>       0.53274354       0.70112419       0.58279821 </v>
    <v>       0.20163718       0.44831137       0.58229225 </v>
    <v>       0.20034810       0.95018550       0.58251409 </v>
    <v>       0.69901375       0.94117626       0.58055118 </v>
    <v>       0.40914531       0.32152674       0.55680271 </v>
    <v>       0.42940289       0.84464023       0.55506671 </v>
    <v>       0.94202281       0.32630340       0.54980931 </v>
    <v>       0.92933309       0.83672585       0.55716747 </v>
    <v>       0.16992806       0.42217318       0.55754016 </v>
    <v>       0.16197254       0.92972167       0.55808941 </v>
    <v>       0.68481174       0.90776624       0.55515712 </v>
    <v>       0.49119464       0.24411303       0.53825487 </v>
    <v>       0.50605973       0.75635159       0.53830011 </v>
    <v>       0.01575921       0.23691752       0.53701311 </v>
    <v>       0.99573000       0.74923995       0.53793029 </v>
    <v>       0.24395558       0.50440850       0.53834022 </v>
    <v>       0.23953022       0.00205553       0.53840896 </v>
    <v>       0.76190984       0.99311365       0.53822991 </v>
    <v>       0.45109196       0.30412166       0.67533320 </v>
    <v>       0.45327482       0.79085109       0.67517465 </v>
    <v>       0.94256388       0.30571237       0.67112319 </v>
    <v>       0.94706718       0.80281874       0.67495641 </v>
    <v>       0.29664789       0.05215659       0.67528643 </v>
    <v>       0.29858263       0.54767664       0.67483487 </v>
    <v>       0.80200042       0.05366303       0.67437493 </v>
    <v>       0.80387282       0.55966832       0.67532007 </v>
    <v>       0.07701618       0.17152332       0.65127895 </v>
    <v>       0.07744178       0.66958622       0.65039553 </v>
    <v>       0.57578276       0.16891350       0.64989433 </v>
    <v>       0.57612031       0.67138520       0.64544068 </v>
    <v>       0.16612526       0.42280860       0.64878656 </v>
    <v>       0.17299360       0.91924111       0.64833494 </v>
    <v>       0.67605578       0.41877216       0.65211420 </v>
    <v>       0.66800082       0.92516339       0.64979794 </v>
    <v>       0.04288418       0.20514125       0.67608078 </v>
    <v>       0.04724420       0.69894539       0.67607455 </v>
    <v>       0.55144101       0.20165264       0.67499536 </v>
    <v>       0.55388286       0.69320052       0.67127983 </v>
    <v>       0.19698277       0.45000865       0.67420199 </v>
    <v>       0.20012452       0.94834625       0.67407086 </v>
    <v>       0.70258799       0.45799800       0.67621551 </v>
    <v>       0.69838768       0.95696430       0.67498077 </v>
    <v>       0.41891429       0.33242468       0.65000037 </v>
    <v>       0.41617581       0.82641478       0.65119501 </v>
    <v>       0.92018140       0.32837067       0.64528397 </v>
    <v>       0.91909649       0.83384378       0.64960875 </v>
    <v>       0.32745162       0.08527236       0.65028192 </v>
    <v>       0.32947406       0.57912744       0.64965264 </v>
    <v>       0.83397348       0.07977078       0.64882753 </v>
    <v>       0.83331597       0.57672842       0.64952151 </v>
    <v>       0.00450643       0.24429355       0.63017212 </v>
    <v>       0.99830147       0.75056781       0.63152353 </v>
    <v>       0.49437089       0.24726999       0.63266921 </v>
    <v>       0.49411689       0.75052869       0.63016529 </v>
    <v>       0.25026447       0.00243948       0.63152316 </v>
    <v>       0.24727815       0.50117533       0.63136529 </v>
    <v>       0.75157481       0.00163844       0.63153458 </v>
    <v>       0.76285782       0.49410640       0.63324067 </v>
    <v>       0.44874502       0.30128397       0.76888902 </v>
    <v>       0.44874501       0.80128391       0.76888902 </v>
    <v>       0.94874497       0.30128397       0.76888902 </v>
    <v>       0.94874501       0.80128391       0.76888902 </v>
    <v>       0.30127600       0.05129450       0.76887296 </v>
    <v>       0.30127601       0.55129450       0.76887296 </v>
    <v>       0.80127594       0.05129450       0.76887296 </v>
    <v>       0.80127598       0.55129450       0.76887296 </v>
    <v>       0.07877100       0.17118050       0.74344197 </v>
    <v>       0.07877101       0.67118045       0.74344197 </v>
    <v>       0.57877100       0.17118050       0.74344197 </v>
    <v>       0.57877099       0.67118045       0.74344197 </v>
    <v>       0.17119950       0.42117448       0.74342103 </v>
    <v>       0.17119950       0.92117451       0.74342103 </v>
    <v>       0.67119951       0.42117448       0.74342103 </v>
    <v>       0.67119950       0.92117451       0.74342103 </v>
    <v>       0.05125600       0.19871499       0.76888902 </v>
    <v>       0.05125600       0.69871493       0.76888902 </v>
    <v>       0.55125603       0.19871499       0.76888902 </v>
    <v>       0.55125602       0.69871493       0.76888902 </v>
    <v>       0.19872349       0.44870397       0.76887205 </v>
    <v>       0.19872349       0.94870397       0.76887205 </v>
    <v>       0.69872352       0.44870397       0.76887205 </v>
    <v>       0.69872351       0.94870397       0.76887205 </v>
    <v>       0.42123152       0.32881747       0.74344197 </v>
    <v>       0.42123151       0.82881744       0.74344197 </v>
    <v>       0.92123147       0.32881747       0.74344197 </v>
    <v>       0.92123151       0.82881744       0.74344197 </v>
    <v>       0.32880050       0.07882500       0.74342103 </v>
    <v>       0.32880049       0.57882496       0.74342103 </v>
    <v>       0.82880048       0.07882500       0.74342103 </v>
    <v>       0.82880052       0.57882496       0.74342103 </v>
    <v>       0.00000350       0.25000148       0.72582199 </v>
    <v>       0.00000350       0.75000145       0.72582199 </v>
    <v>       0.50000351       0.25000148       0.72582199 </v>
    <v>       0.50000350       0.75000145       0.72582199 </v>
    <v>       0.25000050       0.00000000       0.72580398 </v>
    <v>       0.25000052       0.50000000       0.72580398 </v>
    <v>       0.75000050       0.00000000       0.72580398 </v>
    <v>       0.75000049       0.50000000       0.72580398 </v>
    <v>       0.79153095       0.56805254       0.53159552 </v>
    <v>       0.74000077       0.48663236       0.53260128 </v>
    <v>       0.87449983       0.50556704       0.55323297 </v>
    <v>       0.84896323       0.47779693       0.57924946 </v>
    <v>       0.74563297       0.63926904       0.57099268 </v>
    <v>       0.80533326       0.58643776       0.58841237 </v>
    <v>       0.65712758       0.53750226       0.57481749 </v>
    <v>       0.68104883       0.45212848       0.56284237 </v>
    <v>       0.62700508       0.55582755       0.54408887 </v>
    <v>       0.68151103       0.63635529       0.54637906 </v>
    <v>       0.63454343       0.66442477       0.51425264 </v>
    <v>       0.70647891       0.61225304       0.50389742 </v>
    <v>       0.81673126       0.39576392       0.53665812 </v>
    <v>       0.75682604       0.38387570       0.55976137 </v>
    <v>       0.84938470       0.36606596       0.56302338 </v>
    <v>       0.87065567       0.68487285       0.56511236 </v>
    <v>       0.85570034       0.62771675       0.54241226 </v>
    <v>       0.91507505       0.59813937       0.56456513 </v>
    <v>       0.77213227       0.49696572       0.60015904 </v>
    <v>       0.73890105       0.40761154       0.59383984 </v>
    <v>       0.68220204       0.47356329       0.60720104 </v>
    <v>       0.55248265       0.55178156       0.51346775 </v>
    <v>       0.58683484       0.57389038       0.48801585 </v>
    <v>       0.71145121       0.50522354       0.47999911 </v>
    <v>       0.56352392       0.42999832       0.52831288 </v>
    <v>       0.77045445       0.38299066       0.47941443 </v>
    <v>       0.62077500       0.30938614       0.52848986 </v>
    <v>       0.72742553       0.28530677       0.50337748 </v>
    <v>       0.00811646       0.24246416       0.55426070 </v>
    <v>       0.00184893       0.75214520       0.55605848 </v>
    <v>       0.49960853       0.25018627       0.55596111 </v>
    <v>       0.49985535       0.75510968       0.55578035 </v>
    <v>       0.24518003       0.50067307       0.55578170 </v>
    <v>       0.24562590       0.99908389       0.55577266 </v>
    <v>       0.75503136       0.99573458       0.55558201 </v>
    <v>       0.99918768       0.24934935       0.64837749 </v>
    <v>       0.99963783       0.75033228       0.64978963 </v>
    <v>       0.49848307       0.24939114       0.65006435 </v>
    <v>       0.49644649       0.74866187       0.64832456 </v>
    <v>       0.24906952       0.50196196       0.64945461 </v>
    <v>       0.24903373       0.00099181       0.64963946 </v>
    <v>       0.75519923       0.49812478       0.65053978 </v>
    <v>       0.74978678       0.00146051       0.64964471 </v>
    <v>       0.49998898       0.24999498       0.74327702 </v>
    <v>       0.49998903       0.74999496       0.74327702 </v>
    <v>       0.99998898       0.24999498       0.74327702 </v>
    <v>       0.99998903       0.74999496       0.74327702 </v>
    <v>       0.25000050       0.00000100       0.74325596 </v>
    <v>       0.25000052       0.50000100       0.74325596 </v>
    <v>       0.75000050       0.00000100       0.74325596 </v>
    <v>       0.75000049       0.50000100       0.74325596 </v>
    <v>       0.63105952       0.47795453       0.50290219 </v>
    <v>       0.68979301       0.46363959       0.48953444 </v>
    <v>       0.60679163       0.42170362       0.51616983 </v>
    <v>       0.72567705       0.39136337       0.48930951 </v>
    <v>       0.64168719       0.35022715       0.51695258 </v>
    <v>       0.70111726       0.33565712       0.50357338 </v>
    <v>       0.74632703       0.54142386       0.53891602 </v>
    <v>       0.83004915       0.48144668       0.56243592 </v>
    <v>       0.79216228       0.60005191       0.57182494 </v>
    <v>       0.69918656       0.49622164       0.57391911 </v>
    <v>       0.67242619       0.58790691       0.53746297 </v>
    <v>       0.65876269       0.60709201       0.51358881 </v>
    <v>       0.81075787       0.40279771       0.55415295 </v>
    <v>       0.86289333       0.62785011       0.56000300 </v>
    <v>       0.72456862       0.46822872       0.59501336 </v>
    <v>       0.60076628       0.55589344       0.50403221 </v>
    <v>       0.04573823       0.19430563       0.56725945 </v>
    <v>       0.04577997       0.70279967       0.56550929 </v>
    <v>       0.55399347       0.21637766       0.56557418 </v>
    <v>       0.53444851       0.70480414       0.56663970 </v>
    <v>       0.45008050       0.29616283       0.56586935 </v>
    <v>       0.45348304       0.80659262       0.56517780 </v>
    <v>       0.96559707       0.29531965       0.56181873 </v>
    <v>       0.96393895       0.80413092       0.56577832 </v>
    <v>       0.20266432       0.45378100       0.56536747 </v>
    <v>       0.19923913       0.95671069       0.56563639 </v>
    <v>       0.70921301       0.94406522       0.56387114 </v>
    <v>       0.30097019       0.04086148       0.56393506 </v>
    <v>       0.29410367       0.54902103       0.56437680 </v>
    <v>       0.79188778       0.04700715       0.56532438 </v>
    <v>       0.03994655       0.20842817       0.65933964 </v>
    <v>       0.04217476       0.70661320       0.65908886 </v>
    <v>       0.54211806       0.20591017       0.65941540 </v>
    <v>       0.54695014       0.69982785       0.65555598 </v>
    <v>       0.20186034       0.45336601       0.65874986 </v>
    <v>       0.20666469       0.95546215       0.65867575 </v>
    <v>       0.70919536       0.45665340       0.66056443 </v>
    <v>       0.70457780       0.96071540       0.65947394 </v>
    <v>       0.45218997       0.29970349       0.65982014 </v>
    <v>       0.45238598       0.79164358       0.65956332 </v>
    <v>       0.94887322       0.29951696       0.65571105 </v>
    <v>       0.95298330       0.79923225       0.65840726 </v>
    <v>       0.29501378       0.05040762       0.65973956 </v>
    <v>       0.29308453       0.54348963       0.65932157 </v>
    <v>       0.79951619       0.04909585       0.65888447 </v>
    <v>       0.80205746       0.54969219       0.65896762 </v>
    <v>       0.04586250       0.20411950       0.75272599 </v>
    <v>       0.04586250       0.70411946       0.75272599 </v>
    <v>       0.54586251       0.20411950       0.75272599 </v>
    <v>       0.54586250       0.70411946       0.75272599 </v>
    <v>       0.20411900       0.45410100       0.75270499 </v>
    <v>       0.20411899       0.95410095       0.75270499 </v>
    <v>       0.70411898       0.45410100       0.75270499 </v>
    <v>       0.70411896       0.95410095       0.75270499 </v>
    <v>       0.45414002       0.29588849       0.75272697 </v>
    <v>       0.45414001       0.79588852       0.75272697 </v>
    <v>       0.95414002       0.29588849       0.75272697 </v>
    <v>       0.95414006       0.79588852       0.75272697 </v>
    <v>       0.29588249       0.04590050       0.75270499 </v>
    <v>       0.29588248       0.54590053       0.75270499 </v>
    <v>       0.79588244       0.04590050       0.75270499 </v>
    <v>       0.79588248       0.54590053       0.75270499 </v>
    <v>       0.76691222       0.52740386       0.56162991 </v>
    <v>       0.50005480       0.00462880       0.55288659 </v>
    <v>       0.48738115       0.51199891       0.55546779 </v>
    <v>       0.00294915       0.00252321       0.55188046 </v>
    <v>       0.01316852       0.48693885       0.54942795 </v>
    <v>       0.25261474       0.24803688       0.55279660 </v>
    <v>       0.25198706       0.75117097       0.55291809 </v>
    <v>       0.75802246       0.23708119       0.55477441 </v>
    <v>       0.73957334       0.76241704       0.54900831 </v>
    <v>       0.99656948       0.00367472       0.65392437 </v>
    <v>       0.00182067       0.49724560       0.65325584 </v>
    <v>       0.49748163       0.99801586       0.65449193 </v>
    <v>       0.49820990       0.50233456       0.65517639 </v>
    <v>       0.25191683       0.24851570       0.65430915 </v>
    <v>       0.25023668       0.75167472       0.65478538 </v>
    <v>       0.75097125       0.24722094       0.65466237 </v>
    <v>       0.74599673       0.75057806       0.65460334 </v>
    <v>       0.14562464       0.10824398       0.60843737 </v>
    <v>       0.14637870       0.60711133       0.60766744 </v>
    <v>       0.64602626       0.10762379       0.60774228 </v>
    <v>       0.63157090       0.61846622       0.61079593 </v>
    <v>       0.35346968       0.39096055       0.60812560 </v>
    <v>       0.35853131       0.89579476       0.60796889 </v>
    <v>       0.86993531       0.38023836       0.61101271 </v>
    <v>       0.85794768       0.89553373       0.60779887 </v>
    <v>       0.10953257       0.35449888       0.60778062 </v>
    <v>       0.10479994       0.85740381       0.60808604 </v>
    <v>       0.59441991       0.34449366       0.60834110 </v>
    <v>       0.60446898       0.85996265       0.60823811 </v>
    <v>       0.39562244       0.14282362       0.60794282 </v>
    <v>       0.39281268       0.64582319       0.60836344 </v>
    <v>       0.89114757       0.14414994       0.60765212 </v>
    <v>       0.90538871       0.65610433       0.61107132 </v>
    <v>       0.00000000       0.00000000       0.75492797 </v>
    <v>       0.00000000       0.50000000       0.75492797 </v>
    <v>       0.50000000       0.00000000       0.75492797 </v>
    <v>       0.49999999       0.50000000       0.75492797 </v>
    <v>       0.25000050       0.25000000       0.75493902 </v>
    <v>       0.25000051       0.74999997       0.75493902 </v>
    <v>       0.75000047       0.25000000       0.75493902 </v>
    <v>       0.75000046       0.74999997       0.75493902 </v>
    <v>       0.13579050       0.11421000       0.70478299 </v>
    <v>       0.13579050       0.61420998       0.70478299 </v>
    <v>       0.63579045       0.11421000       0.70478299 </v>
    <v>       0.63579049       0.61420998       0.70478299 </v>
    <v>       0.36420952       0.38578999       0.70478299 </v>
    <v>       0.36420950       0.88578996       0.70478299 </v>
    <v>       0.86420954       0.38578999       0.70478299 </v>
    <v>       0.86420953       0.88578996       0.70478299 </v>
    <v>       0.11421799       0.36421899       0.70478098 </v>
    <v>       0.11421799       0.86421899       0.70478098 </v>
    <v>       0.61421800       0.36421899       0.70478098 </v>
    <v>       0.61421799       0.86421899       0.70478098 </v>
    <v>       0.38578201       0.13578149       0.70478202 </v>
    <v>       0.38578200       0.63578149       0.70478202 </v>
    <v>       0.88578199       0.13578149       0.70478202 </v>
    <v>       0.88578203       0.63578149       0.70478202 </v>
    <v>       0.13466700       0.11533200       0.80125603 </v>
    <v>       0.13466699       0.61533199       0.80125603 </v>
    <v>       0.63466699       0.11533200       0.80125603 </v>
    <v>       0.63466698       0.61533199       0.80125603 </v>
    <v>       0.36533300       0.38466799       0.80125603 </v>
    <v>       0.36533299       0.88466796       0.80125603 </v>
    <v>       0.86533295       0.38466799       0.80125603 </v>
    <v>       0.86533294       0.88466796       0.80125603 </v>
    <v>       0.11532850       0.36533700       0.80126500 </v>
    <v>       0.11532850       0.86533698       0.80126500 </v>
    <v>       0.61532850       0.36533700       0.80126500 </v>
    <v>       0.61532849       0.86533698       0.80126500 </v>
    <v>       0.38467151       0.13466300       0.80126500 </v>
    <v>       0.38467150       0.63466297       0.80126500 </v>
    <v>       0.88467149       0.13466300       0.80126500 </v>
    <v>       0.88467153       0.63466297       0.80126500 </v>
    <v>       0.99830729       0.99785437       0.60330902 </v>
    <v>       0.00124250       0.50311781       0.60326287 </v>
    <v>       0.49633968       0.99891351       0.60347855 </v>
    <v>       0.49775927       0.50134793       0.60370547 </v>
    <v>       0.24836156       0.25177540       0.60325353 </v>
    <v>       0.24779774       0.74719995       0.60283047 </v>
    <v>       0.75152745       0.24615891       0.60350218 </v>
    <v>       0.74783701       0.75742454       0.60431429 </v>
    <v>       0.00000050       0.00000050       0.70482896 </v>
    <v>       0.00000050       0.50000048       0.70482896 </v>
    <v>       0.50000048       0.00000050       0.70482896 </v>
    <v>       0.50000046       0.50000048       0.70482896 </v>
    <v>       0.24999999       0.24999947       0.70482499 </v>
    <v>       0.25000001       0.74999950       0.70482499 </v>
    <v>       0.74999999       0.24999947       0.70482499 </v>
    <v>       0.74999998       0.74999950       0.70482499 </v>
    <v>       0.00000000       0.00000000       0.80731797 </v>
    <v>       0.00000000       0.50000000       0.80731797 </v>
    <v>       0.50000000       0.00000000       0.80731797 </v>
    <v>       0.49999999       0.50000000       0.80731797 </v>
    <v>       0.24999999       0.25000000       0.80731797 </v>
    <v>       0.25000001       0.74999997       0.80731797 </v>
    <v>       0.74999999       0.25000000       0.80731797 </v>
    <v>       0.74999998       0.74999997       0.80731797 </v>
   </varray>
  </structure>
  <varray name="primitive_index" >
   <v type="int" >        1 </v>
   <v type="int" >        2 </v>
   <v type="int" >        3 </v>
   <v type="int" >        4 </v>
   <v type="int" >        5 </v>
   <v type="int" >        6 </v>
   <v type="int" >        7 </v>
   <v type="int" >        8 </v>
   <v type="int" >        9 </v>
   <v type="int" >       10 </v>
   <v type="int" >       11 </v>
   <v type="int" >       12 </v>
   <v type="int" >       13 </v>
   <v type="int" >       14 </v>
   <v type="int" >       15 </v>
   <v type="int" >       16 </v>
   <v type="int" >       17 </v>
   <v type="int" >       18 </v>
   <v type="int" >       19 </v>
   <v type="int" >       20 </v>
   <v type="int" >       21 </v>
   <v type="int" >       22 </v>
   <v type="int" >       23 </v>
   <v type="int" >       24 </v>
   <v type="int" >       25 </v>
   <v type="int" >       26 </v>
   <v type="int" >       27 </v>
   <v type="int" >       28 </v>
   <v type="int" >       29 </v>
   <v type="int" >       30 </v>
   <v type="int" >       31 </v>
   <v type="int" >       32 </v>
   <v type="int" >       33 </v>
   <v type="int" >       34 </v>
   <v type="int" >       35 </v>
   <v type="int" >       36 </v>
   <v type="int" >       37 </v>
   <v type="int" >       38 </v>
   <v type="int" >       39 </v>
   <v type="int" >       40 </v>
   <v type="int" >       41 </v>
   <v type="int" >       42 </v>
   <v type="int" >       43 </v>
   <v type="int" >       44 </v>
   <v type="int" >       45 </v>
   <v type="int" >       46 </v>
   <v type="int" >       47 </v>
   <v type="int" >       48 </v>
   <v type="int" >       49 </v>
   <v type="int" >       50 </v>
   <v type="int" >       51 </v>
   <v type="int" >       52 </v>
   <v type="int" >       53 </v>
   <v type="int" >       54 </v>
   <v type="int" >       55 </v>
   <v type="int" >       56 </v>
   <v type="int" >       57 </v>
   <v type="int" >       58 </v>
   <v type="int" >       59 </v>
   <v type="int" >       60 </v>
   <v type="int" >       61 </v>
   <v type="int" >       62 </v>
   <v type="int" >       63 </v>
   <v type="int" >       64 </v>
   <v type="int" >       65 </v>
   <v type="int" >       66 </v>
   <v type="int" >       67 </v>
   <v type="int" >       68 </v>
   <v type="int" >       69 </v>
   <v type="int" >       70 </v>
   <v type="int" >       71 </v>
   <v type="int" >       72 </v>
   <v type="int" >       73 </v>
   <v type="int" >       74 </v>
   <v type="int" >       75 </v>
   <v type="int" >       76 </v>
   <v type="int" >       77 </v>
   <v type="int" >       78 </v>
   <v type="int" >       79 </v>
   <v type="int" >       80 </v>
   <v type="int" >       81 </v>
   <v type="int" >       82 </v>
   <v type="int" >       83 </v>
   <v type="int" >       84 </v>
   <v type="int" >       85 </v>
   <v type="int" >       86 </v>
   <v type="int" >       87 </v>
   <v type="int" >       88 </v>
   <v type="int" >       89 </v>
   <v type="int" >       90 </v>
   <v type="int" >       91 </v>
   <v type="int" >       92 </v>
   <v type="int" >       93 </v>
   <v type="int" >       94 </v>
   <v type="int" >       95 </v>
   <v type="int" >       96 </v>
   <v type="int" >       97 </v>
   <v type="int" >       98 </v>
   <v type="int" >       99 </v>
   <v type="int" >      100 </v>
   <v type="int" >      101 </v>
   <v type="int" >      102 </v>
   <v type="int" >      103 </v>
   <v type="int" >      104 </v>
   <v type="int" >      105 </v>
   <v type="int" >      106 </v>
   <v type="int" >      107 </v>
   <v type="int" >      108 </v>
   <v type="int" >      109 </v>
   <v type="int" >      110 </v>
   <v type="int" >      111 </v>
   <v type="int" >      112 </v>
   <v type="int" >      113 </v>
   <v type="int" >      114 </v>
   <v type="int" >      115 </v>
   <v type="int" >      116 </v>
   <v type="int" >      117 </v>
   <v type="int" >      118 </v>
   <v type="int" >      119 </v>
   <v type="int" >      120 </v>
   <v type="int" >      121 </v>
   <v type="int" >      122 </v>
   <v type="int" >      123 </v>
   <v type="int" >      124 </v>
   <v type="int" >      125 </v>
   <v type="int" >      126 </v>
   <v type="int" >      127 </v>
   <v type="int" >      128 </v>
   <v type="int" >      129 </v>
   <v type="int" >      130 </v>
   <v type="int" >      131 </v>
   <v type="int" >      132 </v>
   <v type="int" >      133 </v>
   <v type="int" >      134 </v>
   <v type="int" >      135 </v>
   <v type="int" >      136 </v>
   <v type="int" >      137 </v>
   <v type="int" >      138 </v>
   <v type="int" >      139 </v>
   <v type="int" >      140 </v>
   <v type="int" >      141 </v>
   <v type="int" >      142 </v>
   <v type="int" >      143 </v>
   <v type="int" >      144 </v>
   <v type="int" >      145 </v>
   <v type="int" >      146 </v>
   <v type="int" >      147 </v>
   <v type="int" >      148 </v>
   <v type="int" >      149 </v>
   <v type="int" >      150 </v>
   <v type="int" >      151 </v>
   <v type="int" >      152 </v>
   <v type="int" >      153 </v>
   <v type="int" >      154 </v>
   <v type="int" >      155 </v>
   <v type="int" >      156 </v>
   <v type="int" >      157 </v>
   <v type="int" >      158 </v>
   <v type="int" >      159 </v>
   <v type="int" >      160 </v>
   <v type="int" >      161 </v>
   <v type="int" >      162 </v>
   <v type="int" >      163 </v>
   <v type="int" >      164 </v>
   <v type="int" >      165 </v>
   <v type="int" >      166 </v>
   <v type="int" >      167 </v>
   <v type="int" >      168 </v>
   <v type="int" >      169 </v>
   <v type="int" >      170 </v>
   <v type="int" >      171 </v>
   <v type="int" >      172 </v>
   <v type="int" >      173 </v>
   <v type="int" >      174 </v>
   <v type="int" >      175 </v>
   <v type="int" >      176 </v>
   <v type="int" >      177 </v>
   <v type="int" >      178 </v>
   <v type="int" >      179 </v>
   <v type="int" >      180 </v>
   <v type="int" >      181 </v>
   <v type="int" >      182 </v>
   <v type="int" >      183 </v>
   <v type="int" >      184 </v>
   <v type="int" >      185 </v>
   <v type="int" >      186 </v>
   <v type="int" >      187 </v>
   <v type="int" >      188 </v>
   <v type="int" >      189 </v>
   <v type="int" >      190 </v>
   <v type="int" >      191 </v>
   <v type="int" >      192 </v>
   <v type="int" >      193 </v>
   <v type="int" >      194 </v>
   <v type="int" >      195 </v>
   <v type="int" >      196 </v>
   <v type="int" >      197 </v>
   <v type="int" >      198 </v>
   <v type="int" >      199 </v>
   <v type="int" >      200 </v>
   <v type="int" >      201 </v>
   <v type="int" >      202 </v>
   <v type="int" >      203 </v>
   <v type="int" >      204 </v>
   <v type="int" >      205 </v>
   <v type="int" >      206 </v>
   <v type="int" >      207 </v>
   <v type="int" >      208 </v>
   <v type="int" >      209 </v>
   <v type="int" >      210 </v>
   <v type="int" >      211 </v>
   <v type="int" >      212 </v>
   <v type="int" >      213 </v>
   <v type="int" >      214 </v>
   <v type="int" >      215 </v>
   <v type="int" >      216 </v>
   <v type="int" >      217 </v>
   <v type="int" >      218 </v>
   <v type="int" >      219 </v>
   <v type="int" >      220 </v>
   <v type="int" >      221 </v>
   <v type="int" >      222 </v>
   <v type="int" >      223 </v>
   <v type="int" >      224 </v>
   <v type="int" >      225 </v>
   <v type="int" >      226 </v>
   <v type="int" >      227 </v>
   <v type="int" >      228 </v>
   <v type="int" >      229 </v>
   <v type="int" >      230 </v>
   <v type="int" >      231 </v>
   <v type="int" >      232 </v>
   <v type="int" >      233 </v>
   <v type="int" >      234 </v>
   <v type="int" >      235 </v>
   <v type="int" >      236 </v>
   <v type="int" >      237 </v>
   <v type="int" >      238 </v>
   <v type="int" >      239 </v>
   <v type="int" >      240 </v>
   <v type="int" >      241 </v>
   <v type="int" >      242 </v>
   <v type="int" >      243 </v>
   <v type="int" >      244 </v>
   <v type="int" >      245 </v>
   <v type="int" >      246 </v>
   <v type="int" >      247 </v>
   <v type="int" >      248 </v>
   <v type="int" >      249 </v>
   <v type="int" >      250 </v>
   <v type="int" >      251 </v>
   <v type="int" >      252 </v>
   <v type="int" >      253 </v>
   <v type="int" >      254 </v>
   <v type="int" >      255 </v>
   <v type="int" >      256 </v>
   <v type="int" >      257 </v>
   <v type="int" >      258 </v>
   <v type="int" >      259 </v>
   <v type="int" >      260 </v>
   <v type="int" >      261 </v>
   <v type="int" >      262 </v>
   <v type="int" >      263 </v>
   <v type="int" >      264 </v>
   <v type="int" >      265 </v>
   <v type="int" >      266 </v>
   <v type="int" >      267 </v>
   <v type="int" >      268 </v>
   <v type="int" >      269 </v>
   <v type="int" >      270 </v>
   <v type="int" >      271 </v>
   <v type="int" >      272 </v>
   <v type="int" >      273 </v>
   <v type="int" >      274 </v>
   <v type="int" >      275 </v>
   <v type="int" >      276 </v>
   <v type="int" >      277 </v>
   <v type="int" >      278 </v>
   <v type="int" >      279 </v>
   <v type="int" >      280 </v>
   <v type="int" >      281 </v>
   <v type="int" >      282 </v>
   <v type="int" >      283 </v>
   <v type="int" >      284 </v>
   <v type="int" >      285 </v>
   <v type="int" >      286 </v>
   <v type="int" >      287 </v>
   <v type="int" >      288 </v>
   <v type="int" >      289 </v>
   <v type="int" >      290 </v>
   <v type="int" >      291 </v>
   <v type="int" >      292 </v>
   <v type="int" >      293 </v>
   <v type="int" >      294 </v>
   <v type="int" >      295 </v>
   <v type="int" >      296 </v>
   <v type="int" >      297 </v>
   <v type="int" >      298 </v>
   <v type="int" >      299 </v>
   <v type="int" >      300 </v>
   <v type="int" >      301 </v>
   <v type="int" >      302 </v>
   <v type="int" >      303 </v>
   <v type="int" >      304 </v>
   <v type="int" >      305 </v>
   <v type="int" >      306 </v>
   <v type="int" >      307 </v>
   <v type="int" >      308 </v>
   <v type="int" >      309 </v>
   <v type="int" >      310 </v>
   <v type="int" >      311 </v>
   <v type="int" >      312 </v>
   <v type="int" >      313 </v>
   <v type="int" >      314 </v>
   <v type="int" >      315 </v>
   <v type="int" >      316 </v>
   <v type="int" >      317 </v>
   <v type="int" >      318 </v>
   <v type="int" >      319 </v>
   <v type="int" >      320 </v>
   <v type="int" >      321 </v>
   <v type="int" >      322 </v>
   <v type="int" >      323 </v>
   <v type="int" >      324 </v>
   <v type="int" >      325 </v>
  </varray>
 </primitive_cell>
 <kpoints>
  <generation param="Gamma">
   <v type="int" name="divisions">       3        3        1 </v>
   <v name="usershift">      0.00000000       0.00000000       0.00000000 </v>
   <v name="genvec1">      0.33333333       0.00000000       0.00000000 </v>
   <v name="genvec2">      0.00000000       0.33333333       0.00000000 </v>
   <v name="genvec3">      0.00000000       0.00000000       1.00000000 </v>
   <v name="shift">      0.00000000       0.00000000       0.00000000 </v>
  </generation>
  <varray name="kpointlist" >
   <v>       0.00000000       0.00000000       0.00000000 </v>
   <v>       0.33333333       0.00000000       0.00000000 </v>
   <v>       0.00000000       0.33333333       0.00000000 </v>
   <v>       0.33333333       0.33333333       0.00000000 </v>
   <v>      -0.33333333       0.33333333       0.00000000 </v>
  </varray>
  <varray name="weights" >
   <v>       0.11111111 </v>
   <v>       0.22222222 </v>
   <v>       0.22222222 </v>
   <v>       0.22222222 </v>
   <v>       0.22222222 </v>
  </varray>
 </kpoints>
 <parameters>
  <separator name="general" >
   <i type="string" name="SYSTEM">PSC</i>
   <i type="logical" name="LCOMPAT"> F  </i>
  </separator>
  <separator name="electronic" >
   <i type="string" name="PREC">normal</i>
   <i name="ENMAX">    500.00000000</i>
   <i name="ENAUG">    644.87300000</i>
   <i name="EDIFF">      0.00010000</i>
   <i type="int" name="IALGO">    38</i>
   <i type="int" name="IWAVPR">    10</i>
   <i type="int" name="NBANDS">   732</i>
   <i type="int" name="NBANDSLOW">    -1</i>
   <i type="int" name="NBANDSHIGH">    -1</i>
   <i name="NELECT">   1134.00000000</i>
   <i type="int" name="TURBO">     0</i>
   <i type="int" name="IRESTART">     0</i>
   <i type="int" name="NREBOOT">     0</i>
   <i type="int" name="NMIN">     0</i>
   <i name="EREF">      0.00000000</i>
   <separator name="electronic smearing" >
    <i type="int" name="ISMEAR">     0</i>
    <i name="SIGMA">      0.05000000</i>
    <i name="KSPACING">      0.50000000</i>
    <i type="logical" name="KGAMMA"> T  </i>
    <i type="logical" name="KBLOWUP"> T  </i>
   </separator>
   <separator name="electronic projectors" >
    <i type="logical" name="LREAL"> T  </i>
    <v name="ROPT">     -0.00050000     -0.00050000     -0.00050000     -0.00050000     -0.00050000</v>
    <i type="int" name="LMAXPAW">  -100</i>
    <i type="int" name="LMAXMIX">     2</i>
    <i type="logical" name="NLSPLINE"> F  </i>
   </separator>
   <separator name="electronic startup" >
    <i type="int" name="ISTART">     0</i>
    <i type="int" name="ICHARG">     1</i>
    <i type="int" name="INIWAV">     1</i>
   </separator>
   <separator name="electronic spin" >
    <i type="int" name="ISPIN">     1</i>
    <i type="logical" name="LNONCOLLINEAR"> F  </i>
    <v name="MAGMOM">      1.00000000      1.00000000      1.00000000      1.00000000      1.00000000      1.00000000      1.00000000      1.00000000      1.00000000      1.00000000      1.00000000      1.00000000      1.00000000      1.00000000      1.00000000      1.00000000      1.00000000      1.00000000      1.00000000      1.00000000
      1.00000000      1.00000000      1.00000000      1.00000000      1.00000000      1.00000000      1.00000000      1.00000000      1.00000000      1.00000000      1.00000000      1.00000000      1.00000000      1.00000000      1.00000000      1.00000000      1.00000000      1.00000000      1.00000000      1.00000000
      1.00000000      1.00000000      1.00000000      1.00000000      1.00000000      1.00000000      1.00000000      1.00000000      1.00000000      1.00000000      1.00000000      1.00000000      1.00000000      1.00000000      1.00000000      1.00000000      1.00000000      1.00000000      1.00000000      1.00000000
      1.00000000      1.00000000      1.00000000      1.00000000      1.00000000      1.00000000      1.00000000      1.00000000      1.00000000      1.00000000      1.00000000      1.00000000      1.00000000      1.00000000      1.00000000      1.00000000      1.00000000      1.00000000      1.00000000      1.00000000
      1.00000000      1.00000000      1.00000000      1.00000000      1.00000000      1.00000000      1.00000000      1.00000000      1.00000000      1.00000000      1.00000000      1.00000000      1.00000000      1.00000000      1.00000000      1.00000000      1.00000000      1.00000000      1.00000000      1.00000000
      1.00000000      1.00000000      1.00000000      1.00000000      1.00000000      1.00000000      1.00000000      1.00000000      1.00000000      1.00000000      1.00000000      1.00000000      1.00000000      1.00000000      1.00000000      1.00000000      1.00000000      1.00000000      1.00000000      1.00000000
      1.00000000      1.00000000      1.00000000      1.00000000      1.00000000      1.00000000      1.00000000      1.00000000      1.00000000      1.00000000      1.00000000      1.00000000      1.00000000      1.00000000      1.00000000      1.00000000      1.00000000      1.00000000      1.00000000      1.00000000
      1.00000000      1.00000000      1.00000000      1.00000000      1.00000000      1.00000000      1.00000000      1.00000000      1.00000000      1.00000000      1.00000000      1.00000000      1.00000000      1.00000000      1.00000000      1.00000000      1.00000000      1.00000000      1.00000000      1.00000000
      1.00000000      1.00000000      1.00000000      1.00000000      1.00000000      1.00000000      1.00000000      1.00000000      1.00000000      1.00000000      1.00000000      1.00000000      1.00000000      1.00000000      1.00000000      1.00000000      1.00000000      1.00000000      1.00000000      1.00000000
      1.00000000      1.00000000      1.00000000      1.00000000      1.00000000      1.00000000      1.00000000      1.00000000      1.00000000      1.00000000      1.00000000      1.00000000      1.00000000      1.00000000      1.00000000      1.00000000      1.00000000      1.00000000      1.00000000      1.00000000
      1.00000000      1.00000000      1.00000000      1.00000000      1.00000000      1.00000000      1.00000000      1.00000000      1.00000000      1.00000000      1.00000000      1.00000000      1.00000000      1.00000000      1.00000000      1.00000000      1.00000000      1.00000000      1.00000000      1.00000000
      1.00000000      1.00000000      1.00000000      1.00000000      1.00000000      1.00000000      1.00000000      1.00000000      1.00000000      1.00000000      1.00000000      1.00000000      1.00000000      1.00000000      1.00000000      1.00000000      1.00000000      1.00000000      1.00000000      1.00000000
      1.00000000      1.00000000      1.00000000      1.00000000      1.00000000      1.00000000      1.00000000      1.00000000      1.00000000      1.00000000      1.00000000      1.00000000      1.00000000      1.00000000      1.00000000      1.00000000      1.00000000      1.00000000      1.00000000      1.00000000
      1.00000000      1.00000000      1.00000000      1.00000000      1.00000000      1.00000000      1.00000000      1.00000000      1.00000000      1.00000000      1.00000000      1.00000000      1.00000000      1.00000000      1.00000000      1.00000000      1.00000000      1.00000000      1.00000000      1.00000000
      1.00000000      1.00000000      1.00000000      1.00000000      1.00000000      1.00000000      1.00000000      1.00000000      1.00000000      1.00000000      1.00000000      1.00000000      1.00000000      1.00000000      1.00000000      1.00000000      1.00000000      1.00000000      1.00000000      1.00000000
      1.00000000      1.00000000      1.00000000      1.00000000      1.00000000      1.00000000      1.00000000      1.00000000      1.00000000      1.00000000      1.00000000      1.00000000      1.00000000      1.00000000      1.00000000      1.00000000      1.00000000      1.00000000      1.00000000      1.00000000
      1.00000000      1.00000000      1.00000000      1.00000000      1.00000000</v>
    <i name="NUPDOWN">     -1.00000000</i>
    <i type="logical" name="LSORBIT"> F  </i>
    <v name="SAXIS">      0.00000000      0.00000000      1.00000000</v>
    <i type="logical" name="LSPIRAL"> F  </i>
    <v name="QSPIRAL">      0.00000000      0.00000000      0.00000000</v>
    <i type="logical" name="LZEROZ"> F  </i>
   </separator>
   <separator name="electronic exchange-correlation" >
    <i type="logical" name="LASPH"> F  </i>
    <i type="logical" name="LMETAGGA"> F  </i>
   </separator>
   <separator name="electronic convergence" >
    <i type="int" name="NELM">   600</i>
    <i type="int" name="NELMDL">     0</i>
    <i type="int" name="NELMIN">     2</i>
    <i name="ENINI">    500.00000000</i>
    <separator name="electronic convergence detail" >
     <i type="logical" name="LDIAG"> T  </i>
     <i type="logical" name="LSUBROT"> F  </i>
     <i name="WEIMIN">      0.00000000</i>
     <i name="EBREAK">      0.00000003</i>
     <i name="DEPER">      0.30000000</i>
     <i type="int" name="NRMM">     4</i>
     <i name="TIME">      0.40000000</i>
    </separator>
   </separator>
   <separator name="electronic mixer" >
    <i name="AMIX">      0.40000000</i>
    <i name="BMIX">      0.01000000</i>
    <i name="AMIN">      0.01000000</i>
    <i name="AMIX_MAG">      1.60000000</i>
    <i name="BMIX_MAG">      0.01000000</i>
    <separator name="electronic mixer details" >
     <i type="int" name="IMIX">     4</i>
     <i type="logical" name="MIXFIRST"> F  </i>
     <i type="int" name="MAXMIX">   -45</i>
     <i name="WC">    100.00000000</i>
     <i type="int" name="INIMIX">     1</i>
     <i type="int" name="MIXPRE">     1</i>
     <i type="int" name="MREMOVE">     5</i>
    </separator>
   </separator>
   <separator name="electronic dipolcorrection" >
    <i type="logical" name="LDIPOL"> T  </i>
    <i type="logical" name="LMONO"> F  </i>
    <i type="int" name="IDIPOL">     3</i>
    <i name="EPSILON">      1.00000000</i>
    <v name="DIPOL">   -100.00000000   -100.00000000   -100.00000000</v>
    <i name="EFIELD">      0.00000000</i>
   </separator>
  </separator>
  <separator name="grids" >
   <i type="int" name="NGX">   100</i>
   <i type="int" name="NGY">   100</i>
   <i type="int" name="NGZ">   350</i>
   <i type="int" name="NGXF">   200</i>
   <i type="int" name="NGYF">   200</i>
   <i type="int" name="NGZF">   700</i>
   <i type="logical" name="ADDGRID"> F  </i>
  </separator>
  <separator name="ionic" >
   <i type="int" name="NSW">     0</i>
   <i type="int" name="IBRION">    -1</i>
   <i type="int" name="MDALGO">     0</i>
   <i type="int" name="ISIF">     2</i>
   <i name="PSTRESS">      0.00000000</i>
   <i name="EDIFFG">      0.00100000</i>
   <i type="int" name="NFREE">     0</i>
   <i name="POTIM">      0.50000000</i>
   <i name="SMASS">     -3.00000000</i>
   <i name="SCALEE">      1.00000000</i>
  </separator>
  <separator name="ionic md" >
   <i name="TEBEG">      0.00010000</i>
   <i name="TEEND">      0.00010000</i>
   <i type="int" name="NBLOCK">     1</i>
   <i type="int" name="KBLOCK">     1</i>
   <i type="int" name="NPACO">   256</i>
   <i name="APACO">     16.00000000</i>
  </separator>
  <separator name="symmetry" >
   <i type="int" name="ISYM">     0</i>
   <i name="SYMPREC">      0.00001000</i>
  </separator>
  <separator name="dos" >
   <i type="int" name="LORBIT">     0</i>
   <v name="RWIGS">     -1.00000000     -1.00000000     -1.00000000     -1.00000000     -1.00000000</v>
   <i type="int" name="NEDOS">   301</i>
   <i name="EMIN">     10.00000000</i>
   <i name="EMAX">    -10.00000000</i>
   <i name="EFERMI">      0.00000000</i>
  </separator>
  <separator name="writing" >
   <i type="int" name="NWRITE">     2</i>
   <i type="logical" name="LWAVE"> F  </i>
   <i type="logical" name="LDOWNSAMPLE"> F  </i>
   <i type="logical" name="LCHARG"> T  </i>
   <i type="logical" name="LPARD"> F  </i>
   <i type="logical" name="LVTOT"> T  </i>
   <i type="logical" name="LVHAR"> F  </i>
   <i type="logical" name="LELF"> F  </i>
   <i type="logical" name="LOPTICS"> F  </i>
   <v name="STM">      0.00000000      0.00000000      0.00000000      0.00000000      0.00000000      0.00000000      0.00000000</v>
  </separator>
  <separator name="performance" >
   <i type="int" name="NPAR">     4</i>
   <i type="int" name="NSIM">     4</i>
   <i type="int" name="NBLK">    -1</i>
   <i type="logical" name="LPLANE"> T  </i>
   <i type="logical" name="LSCALAPACK"> T  </i>
   <i type="logical" name="LSCAAWARE"> F  </i>
   <i type="logical" name="LSCALU"> F  </i>
   <i type="logical" name="LASYNC"> F  </i>
   <i type="logical" name="LORBITALREAL"> F  </i>
  </separator>
  <separator name="miscellaneous" >
   <i type="int" name="IDIOT">     3</i>
   <i type="int" name="PHON_NSTRUCT">    -1</i>
   <i type="logical" name="LMUSIC"> F  </i>
   <v name="POMASS">      1.00000000     12.01100000     14.00100000    126.90400000    207.20000000</v>
   <v name="DARWINR">      0.00000000      0.00000000      0.00000000      0.00000000      0.00000000</v>
   <v name="DARWINV">      1.00000000      1.00000000      1.00000000      1.00000000      1.00000000</v>
   <i type="logical" name="LCORR"> T  </i>
  </separator>
  <i type="logical" name="GGA_COMPAT"> F  </i>
  <i type="logical" name="LBERRY"> F  </i>
  <i type="int" name="ICORELEVEL">     0</i>
  <i type="logical" name="LDAU"> F  </i>
  <i type="int" name="I_CONSTRAINED_M">     0</i>
  <separator name="electronic exchange-correlation" >
   <i type="string" name="GGA">--</i>
   <i type="int" name="VOSKOWN">     0</i>
   <i type="logical" name="LHFCALC"> F  </i>
   <i type="string" name="PRECFOCK"></i>
   <i type="logical" name="LSYMGRAD"> F  </i>
   <i type="logical" name="LHFONE"> F  </i>
   <i type="logical" name="LRHFCALC"> F  </i>
   <i type="logical" name="LTHOMAS"> F  </i>
   <i type="logical" name="LMODELHF"> F  </i>
   <i type="logical" name="LFOCKACE"> F  </i>
   <i name="ENCUT4O">     -1.00000000</i>
   <i type="int" name="EXXOEP">     0</i>
   <i type="int" name="FOURORBIT">     0</i>
   <i name="AEXX">      0.00000000</i>
   <i name="HFALPHA">      0.00000000</i>
   <i name="MCALPHA">      0.00000000</i>
   <i name="ALDAX">      1.00000000</i>
   <i name="AGGAX">      1.00000000</i>
   <i name="ALDAC">      1.00000000</i>
   <i name="AGGAC">      1.00000000</i>
   <i type="int" name="NKREDX">     1</i>
   <i type="int" name="NKREDY">     1</i>
   <i type="int" name="NKREDZ">     1</i>
   <i type="logical" name="SHIFTRED"> F  </i>
   <i type="logical" name="ODDONLY"> F  </i>
   <i type="logical" name="EVENONLY"> F  </i>
   <i type="int" name="LMAXFOCK">     0</i>
   <i type="int" name="NMAXFOCKAE">     0</i>
   <i type="logical" name="LFOCKAEDFT"> F  </i>
   <i name="HFSCREEN">      0.00000000</i>
   <i name="HFSCREENC">      0.00000000</i>
   <i type="int" name="NBANDSGWLOW">     0</i>
  </separator>
  <separator name="vdW DFT" >
   <i type="logical" name="LUSE_VDW"> F  </i>
   <i name="Zab_VDW">     -0.84910000</i>
   <i name="PARAM1">      0.12340000</i>
   <i name="PARAM2">      1.00000000</i>
   <i name="PARAM3">      0.00000000</i>
  </separator>
  <separator name="model GW" >
   <i type="int" name="MODEL_GW">     0</i>
   <i name="MODEL_EPS0">     37.63423484</i>
   <i name="MODEL_ALPHA">      1.00000000</i>
  </separator>
  <separator name="linear response parameters" >
   <i type="logical" name="LEPSILON"> F  </i>
   <i type="logical" name="LRPA"> F  </i>
   <i type="logical" name="LNABLA"> F  </i>
   <i type="logical" name="LVEL"> F  </i>
   <i type="int" name="KINTER">     0</i>
   <i name="CSHIFT">      0.10000000</i>
   <i name="OMEGAMAX">     -1.00000000</i>
   <i name="DEG_THRESHOLD">      0.00200000</i>
   <i name="RTIME">     -0.10000000</i>
   <i name="WPLASMAI">      0.00000000</i>
   <v name="DFIELD">      0.00000000      0.00000000      0.00000000</v>
   <v name="WPLASMA">      0.00000000      0.00000000      0.00000000      0.00000000      0.00000000      0.00000000      0.00000000      0.00000000      0.00000000</v>
  </separator>
  <separator name="orbital magnetization" >
   <i type="logical" name="NUCIND"> F  </i>
   <v name="MAGPOS">      0.00000000      0.00000000      0.00000000</v>
   <i type="logical" name="LNICSALL"> T  </i>
   <i type="logical" name="ORBITALMAG"> F  </i>
   <i type="logical" name="LMAGBLOCH"> F  </i>
   <i type="logical" name="LCHIMAG"> F  </i>
   <i type="logical" name="LGAUGE"> T  </i>
   <i type="int" name="MAGATOM">     0</i>
   <v name="MAGDIPOL">      0.00000000      0.00000000      0.00000000</v>
   <v name="AVECCONST">      0.00000000      0.00000000      0.00000000</v>
  </separator>
  <separator name="response functions" >
   <i type="logical" name="LFINITE_TEMPERATURE"> F  </i>
   <i type="logical" name="LADDER"> F  </i>
   <i type="logical" name="LRPAFORCE"> F  </i>
   <i type="logical" name="LFXC"> F  </i>
   <i type="logical" name="LHARTREE"> T  </i>
   <i type="int" name="IBSE">     0</i>
   <v type="int" name="KPOINT">    -1     0     0     0</v>
   <i type="logical" name="LTCTC"> F  </i>
   <i type="logical" name="LTCTE"> F  </i>
   <i type="logical" name="LTETE"> F  </i>
   <i type="logical" name="LTRIPLET"> F  </i>
   <i type="logical" name="LFXCEPS"> F  </i>
   <i type="logical" name="LFXHEG"> F  </i>
   <i type="int" name="NATURALO">     2</i>
   <i type="logical" name="LHOLEGF"> F  </i>
   <i type="logical" name="L2ORDER"> F  </i>
   <i type="logical" name="LDMP1"> F  </i>
   <i type="logical" name="LMP2LT"> F  </i>
   <i type="logical" name="LSMP2LT"> F  </i>
   <i type="logical" name="LGWLF"> F  </i>
   <i name="ENCUTGW">     -2.00000000</i>
   <i name="ENCUTGWSOFT">     -2.00000000</i>
   <i name="ENCUTLF">     -1.00000000</i>
   <i type="logical" name="LESF_SPLINES"> F  </i>
   <i type="int" name="LMAXMP2">    -1</i>
   <i name="SCISSOR">      0.00000000</i>
   <i type="int" name="NOMEGA">     0</i>
   <i type="int" name="NOMEGAR">     0</i>
   <i type="int" name="NBANDSGW">    -1</i>
   <i type="int" name="NBANDSO">    -1</i>
   <i type="int" name="NBANDSV">    -1</i>
   <i type="int" name="NELM">   600</i>
   <i type="int" name="NELMHF">     1</i>
   <i type="int" name="DIM">     3</i>
   <i type="int" name="IESPILON">     4</i>
   <i type="int" name="ANTIRES">     0</i>
   <i name="OMEGAMAX">    -30.00000000</i>
   <i name="OMEGAMIN">    -30.00000000</i>
   <i name="OMEGATL">   -200.00000000</i>
   <i type="int" name="OMEGAGRID">     0</i>
   <i name="CSHIFT">     -0.10000000</i>
   <i type="logical" name="LSELFENERGY"> F  </i>
   <i type="logical" name="LSPECTRAL"> F  </i>
   <i type="logical" name="LSPECTRALGW"> F  </i>
   <i type="logical" name="LSINGLES"> F  </i>
   <i type="logical" name="LFERMIGW"> F  </i>
   <i type="logical" name="ODDONLYGW"> F  </i>
   <i type="logical" name="EVENONLYGW"> F  </i>
   <i type="int" name="NKREDLFX">     1</i>
   <i type="int" name="NKREDLFY">     1</i>
   <i type="int" name="NKREDLFZ">     1</i>
   <i type="int" name="MAXMEM">  2800</i>
   <i type="int" name="TELESCOPE">     0</i>
   <i type="int" name="NTAUPAR">    -1</i>
   <i type="int" name="NOMEGAPAR">    -1</i>
   <i name="DAMP_NEWTON">      0.80000001</i>
   <i name="LAMBDA">      1.00000000</i>
  </separator>
  <separator name="External order field" >
   <i name="OFIELD_KAPPA">      0.00000000</i>
   <v name="OFIELD_K">      0.00000000      0.00000000      0.00000000</v>
   <i name="OFIELD_Q6_NEAR">      0.00000000</i>
   <i name="OFIELD_Q6_FAR">      0.00000000</i>
   <i name="OFIELD_A">      0.00000000</i>
  </separator>
 </parameters>
 <atominfo>
  <atoms>     325 </atoms>
  <types>       5 </types>
  <array name="atoms" >
   <dimension dim="1">ion</dimension>
   <field type="string">element</field>
   <field type="int">atomtype</field>
   <set>
    <rc><c>H </c><c>   1</c></rc>
    <rc><c>H </c><c>   1</c></rc>
    <rc><c>H </c><c>   1</c></rc>
    <rc><c>H </c><c>   1</c></rc>
    <rc><c>H </c><c>   1</c></rc>
    <rc><c>H </c><c>   1</c></rc>
    <rc><c>H </c><c>   1</c></rc>
    <rc><c>H </c><c>   1</c></rc>
    <rc><c>H </c><c>   1</c></rc>
    <rc><c>H </c><c>   1</c></rc>
    <rc><c>H </c><c>   1</c></rc>
    <rc><c>H </c><c>   1</c></rc>
    <rc><c>H </c><c>   1</c></rc>
    <rc><c>H </c><c>   1</c></rc>
    <rc><c>H </c><c>   1</c></rc>
    <rc><c>H </c><c>   1</c></rc>
    <rc><c>H </c><c>   1</c></rc>
    <rc><c>H </c><c>   1</c></rc>
    <rc><c>H </c><c>   1</c></rc>
    <rc><c>H </c><c>   1</c></rc>
    <rc><c>H </c><c>   1</c></rc>
    <rc><c>H </c><c>   1</c></rc>
    <rc><c>H </c><c>   1</c></rc>
    <rc><c>H </c><c>   1</c></rc>
    <rc><c>H </c><c>   1</c></rc>
    <rc><c>H </c><c>   1</c></rc>
    <rc><c>H </c><c>   1</c></rc>
    <rc><c>H </c><c>   1</c></rc>
    <rc><c>H </c><c>   1</c></rc>
    <rc><c>H </c><c>   1</c></rc>
    <rc><c>H </c><c>   1</c></rc>
    <rc><c>H </c><c>   1</c></rc>
    <rc><c>H </c><c>   1</c></rc>
    <rc><c>H </c><c>   1</c></rc>
    <rc><c>H </c><c>   1</c></rc>
    <rc><c>H </c><c>   1</c></rc>
    <rc><c>H </c><c>   1</c></rc>
    <rc><c>H </c><c>   1</c></rc>
    <rc><c>H </c><c>   1</c></rc>
    <rc><c>H </c><c>   1</c></rc>
    <rc><c>H </c><c>   1</c></rc>
    <rc><c>H </c><c>   1</c></rc>
    <rc><c>H </c><c>   1</c></rc>
    <rc><c>H </c><c>   1</c></rc>
    <rc><c>H </c><c>   1</c></rc>
    <rc><c>H </c><c>   1</c></rc>
    <rc><c>H </c><c>   1</c></rc>
    <rc><c>H </c><c>   1</c></rc>
    <rc><c>H </c><c>   1</c></rc>
    <rc><c>H </c><c>   1</c></rc>
    <rc><c>H </c><c>   1</c></rc>
    <rc><c>H </c><c>   1</c></rc>
    <rc><c>H </c><c>   1</c></rc>
    <rc><c>H </c><c>   1</c></rc>
    <rc><c>H </c><c>   1</c></rc>
    <rc><c>H </c><c>   1</c></rc>
    <rc><c>H </c><c>   1</c></rc>
    <rc><c>H </c><c>   1</c></rc>
    <rc><c>H </c><c>   1</c></rc>
    <rc><c>H </c><c>   1</c></rc>
    <rc><c>H </c><c>   1</c></rc>
    <rc><c>H </c><c>   1</c></rc>
    <rc><c>H </c><c>   1</c></rc>
    <rc><c>H </c><c>   1</c></rc>
    <rc><c>H </c><c>   1</c></rc>
    <rc><c>H </c><c>   1</c></rc>
    <rc><c>H </c><c>   1</c></rc>
    <rc><c>H </c><c>   1</c></rc>
    <rc><c>H </c><c>   1</c></rc>
    <rc><c>H </c><c>   1</c></rc>
    <rc><c>H </c><c>   1</c></rc>
    <rc><c>H </c><c>   1</c></rc>
    <rc><c>H </c><c>   1</c></rc>
    <rc><c>H </c><c>   1</c></rc>
    <rc><c>H </c><c>   1</c></rc>
    <rc><c>H </c><c>   1</c></rc>
    <rc><c>H </c><c>   1</c></rc>
    <rc><c>H </c><c>   1</c></rc>
    <rc><c>H </c><c>   1</c></rc>
    <rc><c>H </c><c>   1</c></rc>
    <rc><c>H </c><c>   1</c></rc>
    <rc><c>H </c><c>   1</c></rc>
    <rc><c>H </c><c>   1</c></rc>
    <rc><c>H </c><c>   1</c></rc>
    <rc><c>H </c><c>   1</c></rc>
    <rc><c>H </c><c>   1</c></rc>
    <rc><c>H </c><c>   1</c></rc>
    <rc><c>H </c><c>   1</c></rc>
    <rc><c>H </c><c>   1</c></rc>
    <rc><c>H </c><c>   1</c></rc>
    <rc><c>H </c><c>   1</c></rc>
    <rc><c>H </c><c>   1</c></rc>
    <rc><c>H </c><c>   1</c></rc>
    <rc><c>H </c><c>   1</c></rc>
    <rc><c>H </c><c>   1</c></rc>
    <rc><c>H </c><c>   1</c></rc>
    <rc><c>H </c><c>   1</c></rc>
    <rc><c>H </c><c>   1</c></rc>
    <rc><c>H </c><c>   1</c></rc>
    <rc><c>H </c><c>   1</c></rc>
    <rc><c>H </c><c>   1</c></rc>
    <rc><c>H </c><c>   1</c></rc>
    <rc><c>H </c><c>   1</c></rc>
    <rc><c>H </c><c>   1</c></rc>
    <rc><c>H </c><c>   1</c></rc>
    <rc><c>H </c><c>   1</c></rc>
    <rc><c>H </c><c>   1</c></rc>
    <rc><c>H </c><c>   1</c></rc>
    <rc><c>H </c><c>   1</c></rc>
    <rc><c>H </c><c>   1</c></rc>
    <rc><c>H </c><c>   1</c></rc>
    <rc><c>H </c><c>   1</c></rc>
    <rc><c>H </c><c>   1</c></rc>
    <rc><c>H </c><c>   1</c></rc>
    <rc><c>H </c><c>   1</c></rc>
    <rc><c>H </c><c>   1</c></rc>
    <rc><c>H </c><c>   1</c></rc>
    <rc><c>H </c><c>   1</c></rc>
    <rc><c>H </c><c>   1</c></rc>
    <rc><c>H </c><c>   1</c></rc>
    <rc><c>H </c><c>   1</c></rc>
    <rc><c>H </c><c>   1</c></rc>
    <rc><c>H </c><c>   1</c></rc>
    <rc><c>H </c><c>   1</c></rc>
    <rc><c>H </c><c>   1</c></rc>
    <rc><c>H </c><c>   1</c></rc>
    <rc><c>H </c><c>   1</c></rc>
    <rc><c>H </c><c>   1</c></rc>
    <rc><c>H </c><c>   1</c></rc>
    <rc><c>H </c><c>   1</c></rc>
    <rc><c>H </c><c>   1</c></rc>
    <rc><c>H </c><c>   1</c></rc>
    <rc><c>H </c><c>   1</c></rc>
    <rc><c>H </c><c>   1</c></rc>
    <rc><c>H </c><c>   1</c></rc>
    <rc><c>H </c><c>   1</c></rc>
    <rc><c>H </c><c>   1</c></rc>
    <rc><c>H </c><c>   1</c></rc>
    <rc><c>H </c><c>   1</c></rc>
    <rc><c>H </c><c>   1</c></rc>
    <rc><c>H </c><c>   1</c></rc>
    <rc><c>H </c><c>   1</c></rc>
    <rc><c>H </c><c>   1</c></rc>
    <rc><c>C </c><c>   2</c></rc>
    <rc><c>C </c><c>   2</c></rc>
    <rc><c>C </c><c>   2</c></rc>
    <rc><c>C </c><c>   2</c></rc>
    <rc><c>C </c><c>   2</c></rc>
    <rc><c>C </c><c>   2</c></rc>
    <rc><c>C </c><c>   2</c></rc>
    <rc><c>C </c><c>   2</c></rc>
    <rc><c>C </c><c>   2</c></rc>
    <rc><c>C </c><c>   2</c></rc>
    <rc><c>C </c><c>   2</c></rc>
    <rc><c>C </c><c>   2</c></rc>
    <rc><c>C </c><c>   2</c></rc>
    <rc><c>C </c><c>   2</c></rc>
    <rc><c>C </c><c>   2</c></rc>
    <rc><c>C </c><c>   2</c></rc>
    <rc><c>C </c><c>   2</c></rc>
    <rc><c>C </c><c>   2</c></rc>
    <rc><c>C </c><c>   2</c></rc>
    <rc><c>C </c><c>   2</c></rc>
    <rc><c>C </c><c>   2</c></rc>
    <rc><c>C </c><c>   2</c></rc>
    <rc><c>C </c><c>   2</c></rc>
    <rc><c>C </c><c>   2</c></rc>
    <rc><c>C </c><c>   2</c></rc>
    <rc><c>C </c><c>   2</c></rc>
    <rc><c>C </c><c>   2</c></rc>
    <rc><c>C </c><c>   2</c></rc>
    <rc><c>C </c><c>   2</c></rc>
    <rc><c>C </c><c>   2</c></rc>
    <rc><c>C </c><c>   2</c></rc>
    <rc><c>C </c><c>   2</c></rc>
    <rc><c>C </c><c>   2</c></rc>
    <rc><c>C </c><c>   2</c></rc>
    <rc><c>C </c><c>   2</c></rc>
    <rc><c>C </c><c>   2</c></rc>
    <rc><c>C </c><c>   2</c></rc>
    <rc><c>C </c><c>   2</c></rc>
    <rc><c>C </c><c>   2</c></rc>
    <rc><c>N </c><c>   3</c></rc>
    <rc><c>N </c><c>   3</c></rc>
    <rc><c>N </c><c>   3</c></rc>
    <rc><c>N </c><c>   3</c></rc>
    <rc><c>N </c><c>   3</c></rc>
    <rc><c>N </c><c>   3</c></rc>
    <rc><c>N </c><c>   3</c></rc>
    <rc><c>N </c><c>   3</c></rc>
    <rc><c>N </c><c>   3</c></rc>
    <rc><c>N </c><c>   3</c></rc>
    <rc><c>N </c><c>   3</c></rc>
    <rc><c>N </c><c>   3</c></rc>
    <rc><c>N </c><c>   3</c></rc>
    <rc><c>N </c><c>   3</c></rc>
    <rc><c>N </c><c>   3</c></rc>
    <rc><c>N </c><c>   3</c></rc>
    <rc><c>N </c><c>   3</c></rc>
    <rc><c>N </c><c>   3</c></rc>
    <rc><c>N </c><c>   3</c></rc>
    <rc><c>N </c><c>   3</c></rc>
    <rc><c>N </c><c>   3</c></rc>
    <rc><c>N </c><c>   3</c></rc>
    <rc><c>N </c><c>   3</c></rc>
    <rc><c>N </c><c>   3</c></rc>
    <rc><c>N </c><c>   3</c></rc>
    <rc><c>N </c><c>   3</c></rc>
    <rc><c>N </c><c>   3</c></rc>
    <rc><c>N </c><c>   3</c></rc>
    <rc><c>N </c><c>   3</c></rc>
    <rc><c>N </c><c>   3</c></rc>
    <rc><c>N </c><c>   3</c></rc>
    <rc><c>N </c><c>   3</c></rc>
    <rc><c>N </c><c>   3</c></rc>
    <rc><c>N </c><c>   3</c></rc>
    <rc><c>N </c><c>   3</c></rc>
    <rc><c>N </c><c>   3</c></rc>
    <rc><c>N </c><c>   3</c></rc>
    <rc><c>N </c><c>   3</c></rc>
    <rc><c>N </c><c>   3</c></rc>
    <rc><c>N </c><c>   3</c></rc>
    <rc><c>N </c><c>   3</c></rc>
    <rc><c>N </c><c>   3</c></rc>
    <rc><c>N </c><c>   3</c></rc>
    <rc><c>N </c><c>   3</c></rc>
    <rc><c>N </c><c>   3</c></rc>
    <rc><c>N </c><c>   3</c></rc>
    <rc><c>N </c><c>   3</c></rc>
    <rc><c>I </c><c>   4</c></rc>
    <rc><c>I </c><c>   4</c></rc>
    <rc><c>I </c><c>   4</c></rc>
    <rc><c>I </c><c>   4</c></rc>
    <rc><c>I </c><c>   4</c></rc>
    <rc><c>I </c><c>   4</c></rc>
    <rc><c>I </c><c>   4</c></rc>
    <rc><c>I </c><c>   4</c></rc>
    <rc><c>I </c><c>   4</c></rc>
    <rc><c>I </c><c>   4</c></rc>
    <rc><c>I </c><c>   4</c></rc>
    <rc><c>I </c><c>   4</c></rc>
    <rc><c>I </c><c>   4</c></rc>
    <rc><c>I </c><c>   4</c></rc>
    <rc><c>I </c><c>   4</c></rc>
    <rc><c>I </c><c>   4</c></rc>
    <rc><c>I </c><c>   4</c></rc>
    <rc><c>I </c><c>   4</c></rc>
    <rc><c>I </c><c>   4</c></rc>
    <rc><c>I </c><c>   4</c></rc>
    <rc><c>I </c><c>   4</c></rc>
    <rc><c>I </c><c>   4</c></rc>
    <rc><c>I </c><c>   4</c></rc>
    <rc><c>I </c><c>   4</c></rc>
    <rc><c>I </c><c>   4</c></rc>
    <rc><c>I </c><c>   4</c></rc>
    <rc><c>I </c><c>   4</c></rc>
    <rc><c>I </c><c>   4</c></rc>
    <rc><c>I </c><c>   4</c></rc>
    <rc><c>I </c><c>   4</c></rc>
    <rc><c>I </c><c>   4</c></rc>
    <rc><c>I </c><c>   4</c></rc>
    <rc><c>I </c><c>   4</c></rc>
    <rc><c>I </c><c>   4</c></rc>
    <rc><c>I </c><c>   4</c></rc>
    <rc><c>I </c><c>   4</c></rc>
    <rc><c>I </c><c>   4</c></rc>
    <rc><c>I </c><c>   4</c></rc>
    <rc><c>I </c><c>   4</c></rc>
    <rc><c>I </c><c>   4</c></rc>
    <rc><c>I </c><c>   4</c></rc>
    <rc><c>I </c><c>   4</c></rc>
    <rc><c>I </c><c>   4</c></rc>
    <rc><c>I </c><c>   4</c></rc>
    <rc><c>I </c><c>   4</c></rc>
    <rc><c>I </c><c>   4</c></rc>
    <rc><c>I </c><c>   4</c></rc>
    <rc><c>I </c><c>   4</c></rc>
    <rc><c>I </c><c>   4</c></rc>
    <rc><c>I </c><c>   4</c></rc>
    <rc><c>I </c><c>   4</c></rc>
    <rc><c>I </c><c>   4</c></rc>
    <rc><c>I </c><c>   4</c></rc>
    <rc><c>I </c><c>   4</c></rc>
    <rc><c>I </c><c>   4</c></rc>
    <rc><c>I </c><c>   4</c></rc>
    <rc><c>I </c><c>   4</c></rc>
    <rc><c>I </c><c>   4</c></rc>
    <rc><c>I </c><c>   4</c></rc>
    <rc><c>I </c><c>   4</c></rc>
    <rc><c>I </c><c>   4</c></rc>
    <rc><c>I </c><c>   4</c></rc>
    <rc><c>I </c><c>   4</c></rc>
    <rc><c>I </c><c>   4</c></rc>
    <rc><c>I </c><c>   4</c></rc>
    <rc><c>I </c><c>   4</c></rc>
    <rc><c>I </c><c>   4</c></rc>
    <rc><c>I </c><c>   4</c></rc>
    <rc><c>I </c><c>   4</c></rc>
    <rc><c>I </c><c>   4</c></rc>
    <rc><c>I </c><c>   4</c></rc>
    <rc><c>I </c><c>   4</c></rc>
    <rc><c>Pb</c><c>   5</c></rc>
    <rc><c>Pb</c><c>   5</c></rc>
    <rc><c>Pb</c><c>   5</c></rc>
    <rc><c>Pb</c><c>   5</c></rc>
    <rc><c>Pb</c><c>   5</c></rc>
    <rc><c>Pb</c><c>   5</c></rc>
    <rc><c>Pb</c><c>   5</c></rc>
    <rc><c>Pb</c><c>   5</c></rc>
    <rc><c>Pb</c><c>   5</c></rc>
    <rc><c>Pb</c><c>   5</c></rc>
    <rc><c>Pb</c><c>   5</c></rc>
    <rc><c>Pb</c><c>   5</c></rc>
    <rc><c>Pb</c><c>   5</c></rc>
    <rc><c>Pb</c><c>   5</c></rc>
    <rc><c>Pb</c><c>   5</c></rc>
    <rc><c>Pb</c><c>   5</c></rc>
    <rc><c>Pb</c><c>   5</c></rc>
    <rc><c>Pb</c><c>   5</c></rc>
    <rc><c>Pb</c><c>   5</c></rc>
    <rc><c>Pb</c><c>   5</c></rc>
    <rc><c>Pb</c><c>   5</c></rc>
    <rc><c>Pb</c><c>   5</c></rc>
    <rc><c>Pb</c><c>   5</c></rc>
    <rc><c>Pb</c><c>   5</c></rc>
   </set>
  </array>
  <array name="atomtypes" >
   <dimension dim="1">type</dimension>
   <field type="int">atomspertype</field>
   <field type="string">element</field>
   <field>mass</field>
   <field>valence</field>
   <field type="string">pseudopotential</field>
   <set>
    <rc><c> 143</c><c>H </c><c>      1.00000000</c><c>      1.00000000</c><c>  PAW_PBE H 15Jun2001                   </c></rc>
    <rc><c>  39</c><c>C </c><c>     12.01100000</c><c>      4.00000000</c><c>  PAW_PBE C 08Apr2002                   </c></rc>
    <rc><c>  47</c><c>N </c><c>     14.00100000</c><c>      5.00000000</c><c>  PAW_PBE N 08Apr2002                   </c></rc>
    <rc><c>  72</c><c>I </c><c>    126.90400000</c><c>      7.00000000</c><c>  PAW_PBE I 08Apr2002                   </c></rc>
    <rc><c>  24</c><c>Pb</c><c>    207.20000000</c><c>      4.00000000</c><c>  PAW_PBE Pb 08Apr2002                  </c></rc>
   </set>
  </array>
 </atominfo>
 <structure name="initialpos" >
  <crystal>
   <varray name="basis" >
    <v>      18.06080055       0.00000000       0.00000000 </v>
    <v>      -0.00491865      18.06279945       0.00000000 </v>
    <v>       0.00000000       0.00000000      62.48749924 </v>
   </varray>
   <i name="volume">  20385.21054034 </i>
   <varray name="rec_basis" >
    <v>       0.05536853       0.00001508      -0.00000000 </v>
    <v>       0.00000000       0.05536240       0.00000000 </v>
    <v>       0.00000000      -0.00000000       0.01600320 </v>
   </varray>
  </crystal>
  <varray name="positions" >
   <v>       0.45575090       0.30521732       0.58119260 </v>
   <v>       0.44594690       0.80771821       0.58060490 </v>
   <v>       0.95620797       0.30735457       0.57699816 </v>
   <v>       0.96673423       0.81253827       0.58129925 </v>
   <v>       0.31178267       0.04242015       0.58062681 </v>
   <v>       0.30202182       0.55259734       0.58117361 </v>
   <v>       0.78908909       0.05400187       0.58217552 </v>
   <v>       0.07688278       0.15539300       0.56093586 </v>
   <v>       0.07307618       0.66459383       0.55681401 </v>
   <v>       0.58539296       0.18328888       0.55714067 </v>
   <v>       0.56735749       0.66918200       0.55896922 </v>
   <v>       0.33261299       0.07044440       0.55514918 </v>
   <v>       0.32329441       0.58177055       0.55581784 </v>
   <v>       0.82256471       0.08103056       0.55769950 </v>
   <v>       0.04008495       0.19655254       0.58312683 </v>
   <v>       0.05412827       0.70570365       0.58090372 </v>
   <v>       0.56126386       0.22248255       0.58100891 </v>
   <v>       0.53274354       0.70112419       0.58279821 </v>
   <v>       0.20163718       0.44831137       0.58229225 </v>
   <v>       0.20034810       0.95018550       0.58251409 </v>
   <v>       0.69901375       0.94117626       0.58055118 </v>
   <v>       0.40914531       0.32152674       0.55680271 </v>
   <v>       0.42940289       0.84464023       0.55506671 </v>
   <v>       0.94202281       0.32630340       0.54980931 </v>
   <v>       0.92933309       0.83672585       0.55716747 </v>
   <v>       0.16992806       0.42217318       0.55754016 </v>
   <v>       0.16197254       0.92972167       0.55808941 </v>
   <v>       0.68481174       0.90776624       0.55515712 </v>
   <v>       0.49119464       0.24411303       0.53825487 </v>
   <v>       0.50605973       0.75635159       0.53830011 </v>
   <v>       0.01575921       0.23691752       0.53701311 </v>
   <v>       0.99573000       0.74923995       0.53793029 </v>
   <v>       0.24395558       0.50440850       0.53834022 </v>
   <v>       0.23953022       0.00205553       0.53840896 </v>
   <v>       0.76190984       0.99311365       0.53822991 </v>
   <v>       0.45109196       0.30412166       0.67533320 </v>
   <v>       0.45327482       0.79085109       0.67517465 </v>
   <v>       0.94256388       0.30571237       0.67112319 </v>
   <v>       0.94706718       0.80281874       0.67495641 </v>
   <v>       0.29664789       0.05215659       0.67528643 </v>
   <v>       0.29858263       0.54767664       0.67483487 </v>
   <v>       0.80200042       0.05366303       0.67437493 </v>
   <v>       0.80387282       0.55966832       0.67532007 </v>
   <v>       0.07701618       0.17152332       0.65127895 </v>
   <v>       0.07744178       0.66958622       0.65039553 </v>
   <v>       0.57578276       0.16891350       0.64989433 </v>
   <v>       0.57612031       0.67138520       0.64544068 </v>
   <v>       0.16612526       0.42280860       0.64878656 </v>
   <v>       0.17299360       0.91924111       0.64833494 </v>
   <v>       0.67605578       0.41877216       0.65211420 </v>
   <v>       0.66800082       0.92516339       0.64979794 </v>
   <v>       0.04288418       0.20514125       0.67608078 </v>
   <v>       0.04724420       0.69894539       0.67607455 </v>
   <v>       0.55144101       0.20165264       0.67499536 </v>
   <v>       0.55388286       0.69320052       0.67127983 </v>
   <v>       0.19698277       0.45000865       0.67420199 </v>
   <v>       0.20012452       0.94834625       0.67407086 </v>
   <v>       0.70258799       0.45799800       0.67621551 </v>
   <v>       0.69838768       0.95696430       0.67498077 </v>
   <v>       0.41891429       0.33242468       0.65000037 </v>
   <v>       0.41617581       0.82641478       0.65119501 </v>
   <v>       0.92018140       0.32837067       0.64528397 </v>
   <v>       0.91909649       0.83384378       0.64960875 </v>
   <v>       0.32745162       0.08527236       0.65028192 </v>
   <v>       0.32947406       0.57912744       0.64965264 </v>
   <v>       0.83397348       0.07977078       0.64882753 </v>
   <v>       0.83331597       0.57672842       0.64952151 </v>
   <v>       0.00450643       0.24429355       0.63017212 </v>
   <v>       0.99830147       0.75056781       0.63152353 </v>
   <v>       0.49437089       0.24726999       0.63266921 </v>
   <v>       0.49411689       0.75052869       0.63016529 </v>
   <v>       0.25026447       0.00243948       0.63152316 </v>
   <v>       0.24727815       0.50117533       0.63136529 </v>
   <v>       0.75157481       0.00163844       0.63153458 </v>
   <v>       0.76285782       0.49410640       0.63324067 </v>
   <v>       0.44874502       0.30128397       0.76888902 </v>
   <v>       0.44874501       0.80128391       0.76888902 </v>
   <v>       0.94874497       0.30128397       0.76888902 </v>
   <v>       0.94874501       0.80128391       0.76888902 </v>
   <v>       0.30127600       0.05129450       0.76887296 </v>
   <v>       0.30127601       0.55129450       0.76887296 </v>
   <v>       0.80127594       0.05129450       0.76887296 </v>
   <v>       0.80127598       0.55129450       0.76887296 </v>
   <v>       0.07877100       0.17118050       0.74344197 </v>
   <v>       0.07877101       0.67118045       0.74344197 </v>
   <v>       0.57877100       0.17118050       0.74344197 </v>
   <v>       0.57877099       0.67118045       0.74344197 </v>
   <v>       0.17119950       0.42117448       0.74342103 </v>
   <v>       0.17119950       0.92117451       0.74342103 </v>
   <v>       0.67119951       0.42117448       0.74342103 </v>
   <v>       0.67119950       0.92117451       0.74342103 </v>
   <v>       0.05125600       0.19871499       0.76888902 </v>
   <v>       0.05125600       0.69871493       0.76888902 </v>
   <v>       0.55125603       0.19871499       0.76888902 </v>
   <v>       0.55125602       0.69871493       0.76888902 </v>
   <v>       0.19872349       0.44870397       0.76887205 </v>
   <v>       0.19872349       0.94870397       0.76887205 </v>
   <v>       0.69872352       0.44870397       0.76887205 </v>
   <v>       0.69872351       0.94870397       0.76887205 </v>
   <v>       0.42123152       0.32881747       0.74344197 </v>
   <v>       0.42123151       0.82881744       0.74344197 </v>
   <v>       0.92123147       0.32881747       0.74344197 </v>
   <v>       0.92123151       0.82881744       0.74344197 </v>
   <v>       0.32880050       0.07882500       0.74342103 </v>
   <v>       0.32880049       0.57882496       0.74342103 </v>
   <v>       0.82880048       0.07882500       0.74342103 </v>
   <v>       0.82880052       0.57882496       0.74342103 </v>
   <v>       0.00000350       0.25000148       0.72582199 </v>
   <v>       0.00000350       0.75000145       0.72582199 </v>
   <v>       0.50000351       0.25000148       0.72582199 </v>
   <v>       0.50000350       0.75000145       0.72582199 </v>
   <v>       0.25000050       0.00000000       0.72580398 </v>
   <v>       0.25000052       0.50000000       0.72580398 </v>
   <v>       0.75000050       0.00000000       0.72580398 </v>
   <v>       0.75000049       0.50000000       0.72580398 </v>
   <v>       0.79153095       0.56805254       0.53159552 </v>
   <v>       0.74000077       0.48663236       0.53260128 </v>
   <v>       0.87449983       0.50556704       0.55323297 </v>
   <v>       0.84896323       0.47779693       0.57924946 </v>
   <v>       0.74563297       0.63926904       0.57099268 </v>
   <v>       0.80533326       0.58643776       0.58841237 </v>
   <v>       0.65712758       0.53750226       0.57481749 </v>
   <v>       0.68104883       0.45212848       0.56284237 </v>
   <v>       0.62700508       0.55582755       0.54408887 </v>
   <v>       0.68151103       0.63635529       0.54637906 </v>
   <v>       0.63454343       0.66442477       0.51425264 </v>
   <v>       0.70647891       0.61225304       0.50389742 </v>
   <v>       0.81673126       0.39576392       0.53665812 </v>
   <v>       0.75682604       0.38387570       0.55976137 </v>
   <v>       0.84938470       0.36606596       0.56302338 </v>
   <v>       0.87065567       0.68487285       0.56511236 </v>
   <v>       0.85570034       0.62771675       0.54241226 </v>
   <v>       0.91507505       0.59813937       0.56456513 </v>
   <v>       0.77213227       0.49696572       0.60015904 </v>
   <v>       0.73890105       0.40761154       0.59383984 </v>
   <v>       0.68220204       0.47356329       0.60720104 </v>
   <v>       0.55248265       0.55178156       0.51346775 </v>
   <v>       0.58683484       0.57389038       0.48801585 </v>
   <v>       0.71145121       0.50522354       0.47999911 </v>
   <v>       0.56352392       0.42999832       0.52831288 </v>
   <v>       0.77045445       0.38299066       0.47941443 </v>
   <v>       0.62077500       0.30938614       0.52848986 </v>
   <v>       0.72742553       0.28530677       0.50337748 </v>
   <v>       0.00811646       0.24246416       0.55426070 </v>
   <v>       0.00184893       0.75214520       0.55605848 </v>
   <v>       0.49960853       0.25018627       0.55596111 </v>
   <v>       0.49985535       0.75510968       0.55578035 </v>
   <v>       0.24518003       0.50067307       0.55578170 </v>
   <v>       0.24562590       0.99908389       0.55577266 </v>
   <v>       0.75503136       0.99573458       0.55558201 </v>
   <v>       0.99918768       0.24934935       0.64837749 </v>
   <v>       0.99963783       0.75033228       0.64978963 </v>
   <v>       0.49848307       0.24939114       0.65006435 </v>
   <v>       0.49644649       0.74866187       0.64832456 </v>
   <v>       0.24906952       0.50196196       0.64945461 </v>
   <v>       0.24903373       0.00099181       0.64963946 </v>
   <v>       0.75519923       0.49812478       0.65053978 </v>
   <v>       0.74978678       0.00146051       0.64964471 </v>
   <v>       0.49998898       0.24999498       0.74327702 </v>
   <v>       0.49998903       0.74999496       0.74327702 </v>
   <v>       0.99998898       0.24999498       0.74327702 </v>
   <v>       0.99998903       0.74999496       0.74327702 </v>
   <v>       0.25000050       0.00000100       0.74325596 </v>
   <v>       0.25000052       0.50000100       0.74325596 </v>
   <v>       0.75000050       0.00000100       0.74325596 </v>
   <v>       0.75000049       0.50000100       0.74325596 </v>
   <v>       0.63105952       0.47795453       0.50290219 </v>
   <v>       0.68979301       0.46363959       0.48953444 </v>
   <v>       0.60679163       0.42170362       0.51616983 </v>
   <v>       0.72567705       0.39136337       0.48930951 </v>
   <v>       0.64168719       0.35022715       0.51695258 </v>
   <v>       0.70111726       0.33565712       0.50357338 </v>
   <v>       0.74632703       0.54142386       0.53891602 </v>
   <v>       0.83004915       0.48144668       0.56243592 </v>
   <v>       0.79216228       0.60005191       0.57182494 </v>
   <v>       0.69918656       0.49622164       0.57391911 </v>
   <v>       0.67242619       0.58790691       0.53746297 </v>
   <v>       0.65876269       0.60709201       0.51358881 </v>
   <v>       0.81075787       0.40279771       0.55415295 </v>
   <v>       0.86289333       0.62785011       0.56000300 </v>
   <v>       0.72456862       0.46822872       0.59501336 </v>
   <v>       0.60076628       0.55589344       0.50403221 </v>
   <v>       0.04573823       0.19430563       0.56725945 </v>
   <v>       0.04577997       0.70279967       0.56550929 </v>
   <v>       0.55399347       0.21637766       0.56557418 </v>
   <v>       0.53444851       0.70480414       0.56663970 </v>
   <v>       0.45008050       0.29616283       0.56586935 </v>
   <v>       0.45348304       0.80659262       0.56517780 </v>
   <v>       0.96559707       0.29531965       0.56181873 </v>
   <v>       0.96393895       0.80413092       0.56577832 </v>
   <v>       0.20266432       0.45378100       0.56536747 </v>
   <v>       0.19923913       0.95671069       0.56563639 </v>
   <v>       0.70921301       0.94406522       0.56387114 </v>
   <v>       0.30097019       0.04086148       0.56393506 </v>
   <v>       0.29410367       0.54902103       0.56437680 </v>
   <v>       0.79188778       0.04700715       0.56532438 </v>
   <v>       0.03994655       0.20842817       0.65933964 </v>
   <v>       0.04217476       0.70661320       0.65908886 </v>
   <v>       0.54211806       0.20591017       0.65941540 </v>
   <v>       0.54695014       0.69982785       0.65555598 </v>
   <v>       0.20186034       0.45336601       0.65874986 </v>
   <v>       0.20666469       0.95546215       0.65867575 </v>
   <v>       0.70919536       0.45665340       0.66056443 </v>
   <v>       0.70457780       0.96071540       0.65947394 </v>
   <v>       0.45218997       0.29970349       0.65982014 </v>
   <v>       0.45238598       0.79164358       0.65956332 </v>
   <v>       0.94887322       0.29951696       0.65571105 </v>
   <v>       0.95298330       0.79923225       0.65840726 </v>
   <v>       0.29501378       0.05040762       0.65973956 </v>
   <v>       0.29308453       0.54348963       0.65932157 </v>
   <v>       0.79951619       0.04909585       0.65888447 </v>
   <v>       0.80205746       0.54969219       0.65896762 </v>
   <v>       0.04586250       0.20411950       0.75272599 </v>
   <v>       0.04586250       0.70411946       0.75272599 </v>
   <v>       0.54586251       0.20411950       0.75272599 </v>
   <v>       0.54586250       0.70411946       0.75272599 </v>
   <v>       0.20411900       0.45410100       0.75270499 </v>
   <v>       0.20411899       0.95410095       0.75270499 </v>
   <v>       0.70411898       0.45410100       0.75270499 </v>
   <v>       0.70411896       0.95410095       0.75270499 </v>
   <v>       0.45414002       0.29588849       0.75272697 </v>
   <v>       0.45414001       0.79588852       0.75272697 </v>
   <v>       0.95414002       0.29588849       0.75272697 </v>
[...]
   <v>       0.58539296       0.18328888       0.55714067 </v>
   <v>       0.56735749       0.66918200       0.55896922 </v>
   <v>       0.33261299       0.07044440       0.55514918 </v>
   <v>       0.32329441       0.58177055       0.55581784 </v>
   <v>       0.82256471       0.08103056       0.55769950 </v>
   <v>       0.04008495       0.19655254       0.58312683 </v>
   <v>       0.05412827       0.70570365       0.58090372 </v>
   <v>       0.56126386       0.22248255       0.58100891 </v>
   <v>       0.53274354       0.70112419       0.58279821 </v>
   <v>       0.20163718       0.44831137       0.58229225 </v>
   <v>       0.20034810       0.95018550       0.58251409 </v>
   <v>       0.69901375       0.94117626       0.58055118 </v>
   <v>       0.40914531       0.32152674       0.55680271 </v>
   <v>       0.42940289       0.84464023       0.55506671 </v>
   <v>       0.94202281       0.32630340       0.54980931 </v>
   <v>       0.92933309       0.83672585       0.55716747 </v>
   <v>       0.16992806       0.42217318       0.55754016 </v>
   <v>       0.16197254       0.92972167       0.55808941 </v>
   <v>       0.68481174       0.90776624       0.55515712 </v>
   <v>       0.49119464       0.24411303       0.53825487 </v>
   <v>       0.50605973       0.75635159       0.53830011 </v>
   <v>       0.01575921       0.23691752       0.53701311 </v>
   <v>       0.99573000       0.74923995       0.53793029 </v>
   <v>       0.24395558       0.50440850       0.53834022 </v>
   <v>       0.23953022       0.00205553       0.53840896 </v>
   <v>       0.76190984       0.99311365       0.53822991 </v>
   <v>       0.45109196       0.30412166       0.67533320 </v>
   <v>       0.45327482       0.79085109       0.67517465 </v>
   <v>       0.94256388       0.30571237       0.67112319 </v>
   <v>       0.94706718       0.80281874       0.67495641 </v>
   <v>       0.29664789       0.05215659       0.67528643 </v>
   <v>       0.29858263       0.54767664       0.67483487 </v>
   <v>       0.80200042       0.05366303       0.67437493 </v>
   <v>       0.80387282       0.55966832       0.67532007 </v>
   <v>       0.07701618       0.17152332       0.65127895 </v>
   <v>       0.07744178       0.66958622       0.65039553 </v>
   <v>       0.57578276       0.16891350       0.64989433 </v>
   <v>       0.57612031       0.67138520       0.64544068 </v>
   <v>       0.16612526       0.42280860       0.64878656 </v>
   <v>       0.17299360       0.91924111       0.64833494 </v>
   <v>       0.67605578       0.41877216       0.65211420 </v>
   <v>       0.66800082       0.92516339       0.64979794 </v>
   <v>       0.04288418       0.20514125       0.67608078 </v>
   <v>       0.04724420       0.69894539       0.67607455 </v>
   <v>       0.55144101       0.20165264       0.67499536 </v>
   <v>       0.55388286       0.69320052       0.67127983 </v>
   <v>       0.19698277       0.45000865       0.67420199 </v>
   <v>       0.20012452       0.94834625       0.67407086 </v>
   <v>       0.70258799       0.45799800       0.67621551 </v>
   <v>       0.69838768       0.95696430       0.67498077 </v>
   <v>       0.41891429       0.33242468       0.65000037 </v>
   <v>       0.41617581       0.82641478       0.65119501 </v>
   <v>       0.92018140       0.32837067       0.64528397 </v>
   <v>       0.91909649       0.83384378       0.64960875 </v>
   <v>       0.32745162       0.08527236       0.65028192 </v>
   <v>       0.32947406       0.57912744       0.64965264 </v>
   <v>       0.83397348       0.07977078       0.64882753 </v>
   <v>       0.83331597       0.57672842       0.64952151 </v>
   <v>       0.00450643       0.24429355       0.63017212 </v>
   <v>       0.99830147       0.75056781       0.63152353 </v>
   <v>       0.49437089       0.24726999       0.63266921 </v>
   <v>       0.49411689       0.75052869       0.63016529 </v>
   <v>       0.25026447       0.00243948       0.63152316 </v>
   <v>       0.24727815       0.50117533       0.63136529 </v>
   <v>       0.75157481       0.00163844       0.63153458 </v>
   <v>       0.76285782       0.49410640       0.63324067 </v>
   <v>       0.44874502       0.30128397       0.76888902 </v>
   <v>       0.44874501       0.80128391       0.76888902 </v>
   <v>       0.94874497       0.30128397       0.76888902 </v>
   <v>       0.94874501       0.80128391       0.76888902 </v>
   <v>       0.30127600       0.05129450       0.76887296 </v>
   <v>       0.30127601       0.55129450       0.76887296 </v>
   <v>       0.80127594       0.05129450       0.76887296 </v>
   <v>       0.80127598       0.55129450       0.76887296 </v>
   <v>       0.07877100       0.17118050       0.74344197 </v>
   <v>       0.07877101       0.67118045       0.74344197 </v>
   <v>       0.57877100       0.17118050       0.74344197 </v>
   <v>       0.57877099       0.67118045       0.74344197 </v>
   <v>       0.17119950       0.42117448       0.74342103 </v>
   <v>       0.17119950       0.92117451       0.74342103 </v>
   <v>       0.67119951       0.42117448       0.74342103 </v>
   <v>       0.67119950       0.92117451       0.74342103 </v>
   <v>       0.05125600       0.19871499       0.76888902 </v>
   <v>       0.05125600       0.69871493       0.76888902 </v>
   <v>       0.55125603       0.19871499       0.76888902 </v>
   <v>       0.55125602       0.69871493       0.76888902 </v>
   <v>       0.19872349       0.44870397       0.76887205 </v>
   <v>       0.19872349       0.94870397       0.76887205 </v>
   <v>       0.69872352       0.44870397       0.76887205 </v>
   <v>       0.69872351       0.94870397       0.76887205 </v>
   <v>       0.42123152       0.32881747       0.74344197 </v>
   <v>       0.42123151       0.82881744       0.74344197 </v>
   <v>       0.92123147       0.32881747       0.74344197 </v>
   <v>       0.92123151       0.82881744       0.74344197 </v>
   <v>       0.32880050       0.07882500       0.74342103 </v>
   <v>       0.32880049       0.57882496       0.74342103 </v>
   <v>       0.82880048       0.07882500       0.74342103 </v>
   <v>       0.82880052       0.57882496       0.74342103 </v>
   <v>       0.00000350       0.25000148       0.72582199 </v>
   <v>       0.00000350       0.75000145       0.72582199 </v>
   <v>       0.50000351       0.25000148       0.72582199 </v>
   <v>       0.50000350       0.75000145       0.72582199 </v>
   <v>       0.25000050       0.00000000       0.72580398 </v>
   <v>       0.25000052       0.50000000       0.72580398 </v>
   <v>       0.75000050       0.00000000       0.72580398 </v>
   <v>       0.75000049       0.50000000       0.72580398 </v>
   <v>       0.79153095       0.56805254       0.53159552 </v>
   <v>       0.74000077       0.48663236       0.53260128 </v>
   <v>       0.87449983       0.50556704       0.55323297 </v>
   <v>       0.84896323       0.47779693       0.57924946 </v>
   <v>       0.74563297       0.63926904       0.57099268 </v>
   <v>       0.80533326       0.58643776       0.58841237 </v>
   <v>       0.65712758       0.53750226       0.57481749 </v>
   <v>       0.68104883       0.45212848       0.56284237 </v>
   <v>       0.62700508       0.55582755       0.54408887 </v>
   <v>       0.68151103       0.63635529       0.54637906 </v>
   <v>       0.63454343       0.66442477       0.51425264 </v>
   <v>       0.70647891       0.61225304       0.50389742 </v>
   <v>       0.81673126       0.39576392       0.53665812 </v>
   <v>       0.75682604       0.38387570       0.55976137 </v>
   <v>       0.84938470       0.36606596       0.56302338 </v>
   <v>       0.87065567       0.68487285       0.56511236 </v>
   <v>       0.85570034       0.62771675       0.54241226 </v>
   <v>       0.91507505       0.59813937       0.56456513 </v>
   <v>       0.77213227       0.49696572       0.60015904 </v>
   <v>       0.73890105       0.40761154       0.59383984 </v>
   <v>       0.68220204       0.47356329       0.60720104 </v>
   <v>       0.55248265       0.55178156       0.51346775 </v>
   <v>       0.58683484       0.57389038       0.48801585 </v>
   <v>       0.71145121       0.50522354       0.47999911 </v>
   <v>       0.56352392       0.42999832       0.52831288 </v>
   <v>       0.77045445       0.38299066       0.47941443 </v>
   <v>       0.62077500       0.30938614       0.52848986 </v>
   <v>       0.72742553       0.28530677       0.50337748 </v>
   <v>       0.00811646       0.24246416       0.55426070 </v>
   <v>       0.00184893       0.75214520       0.55605848 </v>
   <v>       0.49960853       0.25018627       0.55596111 </v>
   <v>       0.49985535       0.75510968       0.55578035 </v>
   <v>       0.24518003       0.50067307       0.55578170 </v>
   <v>       0.24562590       0.99908389       0.55577266 </v>
   <v>       0.75503136       0.99573458       0.55558201 </v>
   <v>       0.99918768       0.24934935       0.64837749 </v>
   <v>       0.99963783       0.75033228       0.64978963 </v>
   <v>       0.49848307       0.24939114       0.65006435 </v>
   <v>       0.49644649       0.74866187       0.64832456 </v>
   <v>       0.24906952       0.50196196       0.64945461 </v>
   <v>       0.24903373       0.00099181       0.64963946 </v>
   <v>       0.75519923       0.49812478       0.65053978 </v>
   <v>       0.74978678       0.00146051       0.64964471 </v>
   <v>       0.49998898       0.24999498       0.74327702 </v>
   <v>       0.49998903       0.74999496       0.74327702 </v>
   <v>       0.99998898       0.24999498       0.74327702 </v>
   <v>       0.99998903       0.74999496       0.74327702 </v>
   <v>       0.25000050       0.00000100       0.74325596 </v>
   <v>       0.25000052       0.50000100       0.74325596 </v>
   <v>       0.75000050       0.00000100       0.74325596 </v>
   <v>       0.75000049       0.50000100       0.74325596 </v>
   <v>       0.63105952       0.47795453       0.50290219 </v>
   <v>       0.68979301       0.46363959       0.48953444 </v>
   <v>       0.60679163       0.42170362       0.51616983 </v>
   <v>       0.72567705       0.39136337       0.48930951 </v>
   <v>       0.64168719       0.35022715       0.51695258 </v>
   <v>       0.70111726       0.33565712       0.50357338 </v>
   <v>       0.74632703       0.54142386       0.53891602 </v>
   <v>       0.83004915       0.48144668       0.56243592 </v>
   <v>       0.79216228       0.60005191       0.57182494 </v>
   <v>       0.69918656       0.49622164       0.57391911 </v>
   <v>       0.67242619       0.58790691       0.53746297 </v>
   <v>       0.65876269       0.60709201       0.51358881 </v>
   <v>       0.81075787       0.40279771       0.55415295 </v>
   <v>       0.86289333       0.62785011       0.56000300 </v>
   <v>       0.72456862       0.46822872       0.59501336 </v>
   <v>       0.60076628       0.55589344       0.50403221 </v>
   <v>       0.04573823       0.19430563       0.56725945 </v>
   <v>       0.04577997       0.70279967       0.56550929 </v>
   <v>       0.55399347       0.21637766       0.56557418 </v>
   <v>       0.53444851       0.70480414       0.56663970 </v>
   <v>       0.45008050       0.29616283       0.56586935 </v>
   <v>       0.45348304       0.80659262       0.56517780 </v>
   <v>       0.96559707       0.29531965       0.56181873 </v>
   <v>       0.96393895       0.80413092       0.56577832 </v>
   <v>       0.20266432       0.45378100       0.56536747 </v>
   <v>       0.19923913       0.95671069       0.56563639 </v>
   <v>       0.70921301       0.94406522       0.56387114 </v>
   <v>       0.30097019       0.04086148       0.56393506 </v>
   <v>       0.29410367       0.54902103       0.56437680 </v>
   <v>       0.79188778       0.04700715       0.56532438 </v>
   <v>       0.03994655       0.20842817       0.65933964 </v>
   <v>       0.04217476       0.70661320       0.65908886 </v>
   <v>       0.54211806       0.20591017       0.65941540 </v>
   <v>       0.54695014       0.69982785       0.65555598 </v>
   <v>       0.20186034       0.45336601       0.65874986 </v>
   <v>       0.20666469       0.95546215       0.65867575 </v>
   <v>       0.70919536       0.45665340       0.66056443 </v>
   <v>       0.70457780       0.96071540       0.65947394 </v>
   <v>       0.45218997       0.29970349       0.65982014 </v>
   <v>       0.45238598       0.79164358       0.65956332 </v>
   <v>       0.94887322       0.29951696       0.65571105 </v>
   <v>       0.95298330       0.79923225       0.65840726 </v>
   <v>       0.29501378       0.05040762       0.65973956 </v>
   <v>       0.29308453       0.54348963       0.65932157 </v>
   <v>       0.79951619       0.04909585       0.65888447 </v>
   <v>       0.80205746       0.54969219       0.65896762 </v>
   <v>       0.04586250       0.20411950       0.75272599 </v>
   <v>       0.04586250       0.70411946       0.75272599 </v>
   <v>       0.54586251       0.20411950       0.75272599 </v>
   <v>       0.54586250       0.70411946       0.75272599 </v>
   <v>       0.20411900       0.45410100       0.75270499 </v>
   <v>       0.20411899       0.95410095       0.75270499 </v>
   <v>       0.70411898       0.45410100       0.75270499 </v>
   <v>       0.70411896       0.95410095       0.75270499 </v>
   <v>       0.45414002       0.29588849       0.75272697 </v>
   <v>       0.45414001       0.79588852       0.75272697 </v>
   <v>       0.95414002       0.29588849       0.75272697 </v>
   <v>       0.95414006       0.79588852       0.75272697 </v>
   <v>       0.29588249       0.04590050       0.75270499 </v>
   <v>       0.29588248       0.54590053       0.75270499 </v>
   <v>       0.79588244       0.04590050       0.75270499 </v>
   <v>       0.79588248       0.54590053       0.75270499 </v>
   <v>       0.76691222       0.52740386       0.56162991 </v>
   <v>       0.50005480       0.00462880       0.55288659 </v>
   <v>       0.48738115       0.51199891       0.55546779 </v>
   <v>       0.00294915       0.00252321       0.55188046 </v>
   <v>       0.01316852       0.48693885       0.54942795 </v>
   <v>       0.25261474       0.24803688       0.55279660 </v>
   <v>       0.25198706       0.75117097       0.55291809 </v>
   <v>       0.75802246       0.23708119       0.55477441 </v>
   <v>       0.73957334       0.76241704       0.54900831 </v>
   <v>       0.99656948       0.00367472       0.65392437 </v>
   <v>       0.00182067       0.49724560       0.65325584 </v>
   <v>       0.49748163       0.99801586       0.65449193 </v>
   <v>       0.49820990       0.50233456       0.65517639 </v>
   <v>       0.25191683       0.24851570       0.65430915 </v>
   <v>       0.25023668       0.75167472       0.65478538 </v>
   <v>       0.75097125       0.24722094       0.65466237 </v>
   <v>       0.74599673       0.75057806       0.65460334 </v>
   <v>       0.14562464       0.10824398       0.60843737 </v>
   <v>       0.14637870       0.60711133       0.60766744 </v>
   <v>       0.64602626       0.10762379       0.60774228 </v>
   <v>       0.63157090       0.61846622       0.61079593 </v>
   <v>       0.35346968       0.39096055       0.60812560 </v>
   <v>       0.35853131       0.89579476       0.60796889 </v>
   <v>       0.86993531       0.38023836       0.61101271 </v>
   <v>       0.85794768       0.89553373       0.60779887 </v>
   <v>       0.10953257       0.35449888       0.60778062 </v>
   <v>       0.10479994       0.85740381       0.60808604 </v>
   <v>       0.59441991       0.34449366       0.60834110 </v>
   <v>       0.60446898       0.85996265       0.60823811 </v>
   <v>       0.39562244       0.14282362       0.60794282 </v>
   <v>       0.39281268       0.64582319       0.60836344 </v>
   <v>       0.89114757       0.14414994       0.60765212 </v>
   <v>       0.90538871       0.65610433       0.61107132 </v>
   <v>       0.00000000       0.00000000       0.75492797 </v>
   <v>       0.00000000       0.50000000       0.75492797 </v>
   <v>       0.50000000       0.00000000       0.75492797 </v>
   <v>       0.49999999       0.50000000       0.75492797 </v>
   <v>       0.25000050       0.25000000       0.75493902 </v>
   <v>       0.25000051       0.74999997       0.75493902 </v>
   <v>       0.75000047       0.25000000       0.75493902 </v>
   <v>       0.75000046       0.74999997       0.75493902 </v>
   <v>       0.13579050       0.11421000       0.70478299 </v>
   <v>       0.13579050       0.61420998       0.70478299 </v>
   <v>       0.63579045       0.11421000       0.70478299 </v>
   <v>       0.63579049       0.61420998       0.70478299 </v>
   <v>       0.36420952       0.38578999       0.70478299 </v>
   <v>       0.36420950       0.88578996       0.70478299 </v>
   <v>       0.86420954       0.38578999       0.70478299 </v>
   <v>       0.86420953       0.88578996       0.70478299 </v>
   <v>       0.11421799       0.36421899       0.70478098 </v>
   <v>       0.11421799       0.86421899       0.70478098 </v>
   <v>       0.61421800       0.36421899       0.70478098 </v>
   <v>       0.61421799       0.86421899       0.70478098 </v>
   <v>       0.38578201       0.13578149       0.70478202 </v>
   <v>       0.38578200       0.63578149       0.70478202 </v>
   <v>       0.88578199       0.13578149       0.70478202 </v>
   <v>       0.88578203       0.63578149       0.70478202 </v>
   <v>       0.13466700       0.11533200       0.80125603 </v>
   <v>       0.13466699       0.61533199       0.80125603 </v>
   <v>       0.63466699       0.11533200       0.80125603 </v>
   <v>       0.63466698       0.61533199       0.80125603 </v>
   <v>       0.36533300       0.38466799       0.80125603 </v>
   <v>       0.36533299       0.88466796       0.80125603 </v>
   <v>       0.86533295       0.38466799       0.80125603 </v>
   <v>       0.86533294       0.88466796       0.80125603 </v>
   <v>       0.11532850       0.36533700       0.80126500 </v>
   <v>       0.11532850       0.86533698       0.80126500 </v>
   <v>       0.61532850       0.36533700       0.80126500 </v>
   <v>       0.61532849       0.86533698       0.80126500 </v>
   <v>       0.38467151       0.13466300       0.80126500 </v>
   <v>       0.38467150       0.63466297       0.80126500 </v>
   <v>       0.88467149       0.13466300       0.80126500 </v>
   <v>       0.88467153       0.63466297       0.80126500 </v>
   <v>       0.99830729       0.99785437       0.60330902 </v>
   <v>       0.00124250       0.50311781       0.60326287 </v>
   <v>       0.49633968       0.99891351       0.60347855 </v>
   <v>       0.49775927       0.50134793       0.60370547 </v>
   <v>       0.24836156       0.25177540       0.60325353 </v>
   <v>       0.24779774       0.74719995       0.60283047 </v>
   <v>       0.75152745       0.24615891       0.60350218 </v>
   <v>       0.74783701       0.75742454       0.60431429 </v>
   <v>       0.00000050       0.00000050       0.70482896 </v>
   <v>       0.00000050       0.50000048       0.70482896 </v>
   <v>       0.50000048       0.00000050       0.70482896 </v>
   <v>       0.50000046       0.50000048       0.70482896 </v>
   <v>       0.24999999       0.24999947       0.70482499 </v>
   <v>       0.25000001       0.74999950       0.70482499 </v>
   <v>       0.74999999       0.24999947       0.70482499 </v>
   <v>       0.74999998       0.74999950       0.70482499 </v>
   <v>       0.00000000       0.00000000       0.80731797 </v>
   <v>       0.00000000       0.50000000       0.80731797 </v>
   <v>       0.50000000       0.00000000       0.80731797 </v>
   <v>       0.49999999       0.50000000       0.80731797 </v>
   <v>       0.24999999       0.25000000       0.80731797 </v>
   <v>       0.25000001       0.74999997       0.80731797 </v>
   <v>       0.74999999       0.25000000       0.80731797 </v>
   <v>       0.74999998       0.74999997       0.80731797 </v>
  </varray>
 </structure>
</modeling>
