 vasp.6.2.1 16May21 (build Nov 15 2021 14:57:28) complex                         
 executed on             LinuxPGI date 2023.07.24  20:45:32
 running on    4 total cores
 distrk:  each k-point on    4 cores,    1 groups
 distr:  one band on NCORE=   1 cores,    4 groups


--------------------------------------------------------------------------------------------------------


 INCAR:
   SYSTEM = PSC
   ISTART = 1
   ICHARG = 1
   PREC = Normal
   ENCUT = 500
   GGA_COMPAT = F
   NELM = 600
   ISYM = 0
   LREAL = Auto
   ISMEAR = 0
   SIGMA = 0.05
   AMIN = 0.01
   BMIX = 0.01
   LVTOT = T
   LWAVE = F
   LDIPOL = T
   IDIPOL = 3
   LVDW = T
   IVDW = 12

 POTCAR:    PAW_PBE H 15Jun2001                   
 POTCAR:    PAW_PBE C 08Apr2002                   
 POTCAR:    PAW_PBE N 08Apr2002                   
 POTCAR:    PAW_PBE I 08Apr2002                   
 POTCAR:    PAW_PBE Pb 08Apr2002                  
 WARNING: For LVTOT=.TRUE., VASP.5.x writes the TOTAL local potential to the
     file LOCPOT. If you want only the Hartree contributions, use LVHAR=.TRUE.
     instead. 

 POTCAR:    PAW_PBE H 15Jun2001                   
   SHA256 =  030f79b5d3ab3cf0e668861823c8fb652ff669f3e15e46930bd03bfd63a607b6 H/POTCAR              
   COPYR  = (c) Copyright 15Jun2001 Georg Kresse                                                    
   COPYR  = This file is part of the software VASP. Any use, copying, and all other rights are regul
   COPYR  = If you do not have a valid VASP license, you may not use, copy or distribute this file. 
   VRHFIN =H: ultrasoft test                                                                        
   LEXCH  = PE                                                                                      
   EATOM  =    12.4884 eV,    0.9179 Ry                                                             
                                                                                                    
   TITEL  = PAW_PBE H 15Jun2001                                                                     
   LULTRA =        F    use ultrasoft PP ?                                                          
   IUNSCR =        0    unscreen: 0-lin 1-nonlin 2-no                                               
   RPACOR =    0.000    partial core radius                                                         
   POMASS =    1.000; ZVAL   =    1.000    mass and valenz                                          
   RCORE  =    1.100    outmost cutoff radius                                                       
   RWIGS  =    0.700; RWIGS  =    0.370    wigner-seitz radius (au A)                               
   ENMAX  =  250.000; ENMIN  =  200.000 eV                                                          
   RCLOC  =    0.701    cutoff for local pot                                                        
   LCOR   =        T    correct aug charges                                                         
   LPAW   =        T    paw PP                                                                      
   EAUG   =  400.000                                                                                
   RMAX   =    1.123    core radius for proj-oper                                                   
   RAUG   =    1.200    factor for augmentation sphere                                              
   RDEP   =    1.112    radius for radial grids                                                     
   RDEPT  =    0.926    core radius for aug-charge                                                  
                                                                                                    
   Atomic configuration                                                                             
    2 entries                                                                                       
     n  l   j            E        occ.                                                              
     1  0  0.50        -6.4927   1.0000                                                             
     2  1  0.50        -3.4015   0.0000                                                             
   Description                                                                                      
     l       E           TYP  RCUT    TYP  RCUT                                                     
     0     -6.4927494     23  1.100                                                                 
     0      6.8029130     23  1.100                                                                 
     1     -4.0817478     23  1.100                                                                 
  local pseudopotential read in
  atomic valenz-charges read in
  non local Contribution for L=            0  read in
    real space projection operators read in
  non local Contribution for L=            0  read in
    real space projection operators read in
  non local Contribution for L=            1  read in
    real space projection operators read in
    PAW grid and wavefunctions read in
 
   number of l-projection  operators is LMAX  =            3
   number of lm-projection operators is LMMAX =            5
 
 POTCAR:    PAW_PBE C 08Apr2002                   
   SHA256 =  253f7b50bb8d59471dbedb8285d89021f4a42ed1a2c5d38a03a736e69125dd95 C/POTCAR              
   COPYR  = (c) Copyright 08Apr2002 Georg Kresse                                                    
   COPYR  = This file is part of the software VASP. Any use, copying, and all other rights are regul
   COPYR  = If you do not have a valid VASP license, you may not use, copy or distribute this file. 
   VRHFIN =C: s2p2                                                                                  
   LEXCH  = PE                                                                                      
   EATOM  =   147.1560 eV,   10.8157 Ry                                                             
                                                                                                    
   TITEL  = PAW_PBE C 08Apr2002                                                                     
   LULTRA =        F    use ultrasoft PP ?                                                          
   IUNSCR =        1    unscreen: 0-lin 1-nonlin 2-no                                               
   RPACOR =    1.200    partial core radius                                                         
   POMASS =   12.011; ZVAL   =    4.000    mass and valenz                                          
   RCORE  =    1.500    outmost cutoff radius                                                       
   RWIGS  =    1.630; RWIGS  =    0.863    wigner-seitz radius (au A)                               
   ENMAX  =  400.000; ENMIN  =  300.000 eV                                                          
   ICORE  =        2    local potential                                                             
   LCOR   =        T    correct aug charges                                                         
   LPAW   =        T    paw PP                                                                      
   EAUG   =  644.873                                                                                
   DEXC   =    0.000                                                                                
   RMAX   =    1.529    core radius for proj-oper                                                   
   RAUG   =    1.300    factor for augmentation sphere                                              
   RDEP   =    1.501    radius for radial grids                                                     
   RDEPT  =    1.300    core radius for aug-charge                                                  
                                                                                                    
   Atomic configuration                                                                             
    4 entries                                                                                       
     n  l   j            E        occ.                                                              
     1  0  0.50      -273.3789   2.0000                                                             
     2  0  0.50       -13.7508   2.0000                                                             
     2  1  0.50        -5.2854   2.0000                                                             
     3  2  1.50        -5.4423   0.0000                                                             
   Description                                                                                      
     l       E           TYP  RCUT    TYP  RCUT                                                     
     0    -13.7508458     23  1.200                                                                 
     0     -8.2022199     23  1.200                                                                 
     1     -5.2854383     23  1.500                                                                 
     1     34.0145650     23  1.500                                                                 
     2     -5.4423304      7  1.500                                                                 
  local pseudopotential read in
  partial core-charges read in
  partial kinetic energy density read in
  atomic valenz-charges read in
  non local Contribution for L=            0  read in
    real space projection operators read in
  non local Contribution for L=            0  read in
    real space projection operators read in
  non local Contribution for L=            1  read in
    real space projection operators read in
  non local Contribution for L=            1  read in
    real space projection operators read in
    PAW grid and wavefunctions read in
 
   number of l-projection  operators is LMAX  =            4
   number of lm-projection operators is LMMAX =            8
 
 POTCAR:    PAW_PBE N 08Apr2002                   
   SHA256 =  e053789ff3a61a86a1b75d8a110fcc91f86041011e7b0817c7c99e4e8a6349d7 N/POTCAR              
   COPYR  = (c) Copyright 08Apr2002 Georg Kresse                                                    
   COPYR  = This file is part of the software VASP. Any use, copying, and all other rights are regul
   COPYR  = If you do not have a valid VASP license, you may not use, copy or distribute this file. 
   VRHFIN =N: s2p3                                                                                  
   LEXCH  = PE                                                                                      
   EATOM  =   264.5486 eV,   19.4438 Ry                                                             
                                                                                                    
   TITEL  = PAW_PBE N 08Apr2002                                                                     
   LULTRA =        F    use ultrasoft PP ?                                                          
   IUNSCR =        1    unscreen: 0-lin 1-nonlin 2-no                                               
   RPACOR =    1.200    partial core radius                                                         
   POMASS =   14.001; ZVAL   =    5.000    mass and valenz                                          
   RCORE  =    1.500    outmost cutoff radius                                                       
   RWIGS  =    1.400; RWIGS  =    0.741    wigner-seitz radius (au A)                               
   ENMAX  =  400.000; ENMIN  =  300.000 eV                                                          
   ICORE  =        2    local potential                                                             
   LCOR   =        T    correct aug charges                                                         
   LPAW   =        T    paw PP                                                                      
   EAUG   =  627.112                                                                                
   DEXC   =    0.000                                                                                
   RMAX   =    1.529    core radius for proj-oper                                                   
   RAUG   =    1.300    factor for augmentation sphere                                              
   RDEP   =    1.514    radius for radial grids                                                     
   RDEPT  =    1.338    core radius for aug-charge                                                  
                                                                                                    
   Atomic configuration                                                                             
    4 entries                                                                                       
     n  l   j            E        occ.                                                              
     1  0  0.50      -384.7179   2.0000                                                             
     2  0  0.50       -18.5828   2.0000                                                             
     2  1  0.50        -7.0898   3.0000                                                             
     3  2  1.50        -6.8029   0.0000                                                             
   Description                                                                                      
     l       E           TYP  RCUT    TYP  RCUT                                                     
     0    -18.5828119     23  1.200                                                                 
     0    -13.5018863     23  1.200                                                                 
     1     -7.0897853     23  1.500                                                                 
     1      9.5240782     23  1.500                                                                 
     2     -6.8029130      7  1.500                                                                 
  local pseudopotential read in
  partial core-charges read in
  partial kinetic energy density read in
  atomic valenz-charges read in
  non local Contribution for L=            0  read in
    real space projection operators read in
  non local Contribution for L=            0  read in
    real space projection operators read in
  non local Contribution for L=            1  read in
    real space projection operators read in
  non local Contribution for L=            1  read in
    real space projection operators read in
    PAW grid and wavefunctions read in
 
   number of l-projection  operators is LMAX  =            4
   number of lm-projection operators is LMMAX =            8
 
 POTCAR:    PAW_PBE I 08Apr2002                   
   SHA256 =  e40f3f59b681c1fc3e3091736183c4589116986673d2b852a5012aec72758799 I/POTCAR              
   COPYR  = (c) Copyright 08Apr2002 Georg Kresse                                                    
   COPYR  = This file is part of the software VASP. Any use, copying, and all other rights are regul
   COPYR  = If you do not have a valid VASP license, you may not use, copy or distribute this file. 
   VRHFIN =I : s2p5                                                                                 
   LEXCH  = PE                                                                                      
   EATOM  =   315.8678 eV,   23.2156 Ry                                                             
                                                                                                    
   TITEL  = PAW_PBE I 08Apr2002                                                                     
   LULTRA =        F    use ultrasoft PP ?                                                          
   IUNSCR =        1    unscreen: 0-lin 1-nonlin 2-no                                               
   RPACOR =    2.200    partial core radius                                                         
   POMASS =  126.904; ZVAL   =    7.000    mass and valenz                                          
   RCORE  =    2.300    outmost cutoff radius                                                       
   RWIGS  =    2.810; RWIGS  =    1.487    wigner-seitz radius (au A)                               
   ENMAX  =  175.647; ENMIN  =  131.735 eV                                                          
   ICORE  =        3    local potential                                                             
   LCOR   =        T    correct aug charges                                                         
   LPAW   =        T    paw PP                                                                      
   EAUG   =  370.139                                                                                
   DEXC   =    0.000                                                                                
   RMAX   =    2.359    core radius for proj-oper                                                   
   RAUG   =    1.300    factor for augmentation sphere                                              
   RDEP   =    2.392    radius for radial grids                                                     
   RDEPT  =    2.170    core radius for aug-charge                                                  
                                                                                                    
   Atomic configuration                                                                             
   13 entries                                                                                       
     n  l   j            E        occ.                                                              
     1  0  0.50    -32976.3739   2.0000                                                             
     2  0  0.50     -5094.5933   2.0000                                                             
     2  1  1.50     -4572.0131   6.0000                                                             
     3  0  0.50     -1028.2813   2.0000                                                             
     3  1  1.50      -859.0250   6.0000                                                             
     3  2  2.50      -605.7620  10.0000                                                             
     4  0  0.50      -180.5540   2.0000                                                             
     4  1  1.50      -127.5306   6.0000                                                             
     4  2  2.50       -50.2720  10.0000                                                             
     5  0  0.50       -17.4058   2.0000                                                             
     5  1  0.50        -7.0851   5.0000                                                             
     5  2  1.50        -7.0750   0.0000                                                             
     4  3  2.50        -7.0750   0.0000                                                             
   Description                                                                                      
     l       E           TYP  RCUT    TYP  RCUT                                                     
     0    -17.4058016     23  2.300                                                                 
     0    -18.7663842     23  2.300                                                                 
     1     -7.0850686     23  2.300                                                                 
     1     -4.2150896     23  2.300                                                                 
     2     -7.0750295     23  2.300                                                                 
     3     -1.3605826     23  2.300                                                                 
  local pseudopotential read in
  partial core-charges read in
  partial kinetic energy density read in
  atomic valenz-charges read in
  non local Contribution for L=            0  read in
    real space projection operators read in
  non local Contribution for L=            0  read in
    real space projection operators read in
  non local Contribution for L=            1  read in
    real space projection operators read in
  non local Contribution for L=            1  read in
    real space projection operators read in
  non local Contribution for L=            2  read in
    real space projection operators read in
    PAW grid and wavefunctions read in
 
   number of l-projection  operators is LMAX  =            5
   number of lm-projection operators is LMMAX =           13
 
 POTCAR:    PAW_PBE Pb 08Apr2002                  
   SHA256 =  797118a27cf1bcd06b9881c67a26cdde129e3cd1a551dd4a281f9681ce847303 Pb/POTCAR             
   COPYR  = (c) Copyright 08Apr2002 Georg Kresse                                                    
   COPYR  = This file is part of the software VASP. Any use, copying, and all other rights are regul
   COPYR  = If you do not have a valid VASP license, you may not use, copy or distribute this file. 
   VRHFIN =Pb:                                                                                      
   LEXCH  = PE                                                                                      
   EATOM  =    96.9868 eV,    7.1283 Ry                                                             
                                                                                                    
   TITEL  = PAW_PBE Pb 08Apr2002                                                                    
   LULTRA =        F    use ultrasoft PP ?                                                          
   IUNSCR =        1    unscreen: 0-lin 1-nonlin 2-no                                               
   RPACOR =    2.200    partial core radius                                                         
   POMASS =  207.200; ZVAL   =    4.000    mass and valenz                                          
   RCORE  =    3.100    outmost cutoff radius                                                       
   RWIGS  =    3.260; RWIGS  =    1.725    wigner-seitz radius (au A)                               
   ENMAX  =   97.973; ENMIN  =   73.480 eV                                                          
   ICORE  =        3    local potential                                                             
   LCOR   =        T    correct aug charges                                                         
   LPAW   =        T    paw PP                                                                      
   EAUG   =  234.873                                                                                
   DEXC   =    0.000                                                                                
   RMAX   =    3.158    core radius for proj-oper                                                   
   RAUG   =    1.300    factor for augmentation sphere                                              
   RDEP   =    3.202    radius for radial grids                                                     
   RDEPT  =    2.659    core radius for aug-charge                                                  
                                                                                                    
   Atomic configuration                                                                             
   17 entries                                                                                       
     n  l   j            E        occ.                                                              
     1  0  0.50    -88091.8466   2.0000                                                             
     2  0  0.50    -15753.4197   2.0000                                                             
     2  1  1.50    -13508.1797   6.0000                                                             
     3  0  0.50     -3781.7194   2.0000                                                             
     3  1  1.50     -3138.2529   6.0000                                                             
     3  2  2.50     -2483.2977  10.0000                                                             
     4  0  0.50      -856.2895   2.0000                                                             
     4  1  1.50      -645.4943   6.0000                                                             
     4  2  2.50      -401.8768  10.0000                                                             
     4  3  3.50      -132.9059  14.0000                                                             
     5  0  0.50      -144.0950   2.0000                                                             
     5  1  1.50       -85.7879   6.0000                                                             
     5  2  2.50       -21.1769  10.0000                                                             
     6  0  0.50       -12.0372   2.0000                                                             
     6  1  1.50        -3.4971   2.0000                                                             
     6  2  2.50        -1.3606   0.0000                                                             
     5  3  2.50        -2.7212   0.0000                                                             
   Description                                                                                      
     l       E           TYP  RCUT    TYP  RCUT                                                     
     0    -12.0371566     23  3.100                                                                 
     0    -13.3977392     23  3.100                                                                 
     1     -3.4971341     23  3.100                                                                 
     1     -5.4423304     23  3.100                                                                 
     2     -1.3605826     23  3.100                                                                 
     3     -1.3605826     23  3.100                                                                 
  local pseudopotential read in
  partial core-charges read in
  partial kinetic energy density read in
  atomic valenz-charges read in
  non local Contribution for L=            0  read in
    real space projection operators read in
  non local Contribution for L=            0  read in
    real space projection operators read in
  non local Contribution for L=            1  read in
    real space projection operators read in
  non local Contribution for L=            1  read in
    real space projection operators read in
  non local Contribution for L=            2  read in
    real space projection operators read in
    PAW grid and wavefunctions read in
 
   number of l-projection  operators is LMAX  =            5
   number of lm-projection operators is LMMAX =           13
 
 Optimization of the real space projectors (new method)

 maximal supplied QI-value         = 34.20
 optimisation between [QCUT,QGAM] = [ 11.29, 22.57] = [ 35.68,142.71] Ry 
 Optimized for a Real-space Cutoff    1.16 Angstroem

   l    n(q)    QCUT    max X(q) W(low)/X(q) W(high)/X(q)  e(spline) 
   0      8    11.287    19.460    0.40E-03    0.73E-03    0.16E-06
   0      8    11.287    12.209    0.38E-03    0.70E-03    0.15E-06
   1      7    11.287     4.655    0.22E-03    0.25E-04    0.22E-06
 Optimization of the real space projectors (new method)

 maximal supplied QI-value         = 25.13
 optimisation between [QCUT,QGAM] = [ 11.31, 22.87] = [ 35.82,146.48] Ry 
 Optimized for a Real-space Cutoff    1.00 Angstroem

   l    n(q)    QCUT    max X(q) W(low)/X(q) W(high)/X(q)  e(spline) 
   0      7    11.310   115.676    0.43E-03    0.13E-02    0.19E-06
   0      7    11.310    87.132    0.43E-03    0.13E-02    0.18E-06
   1      6    11.310     4.429    0.42E-03    0.74E-03    0.11E-06
   1      6    11.310     2.733    0.34E-03    0.55E-03    0.92E-07
 Optimization of the real space projectors (new method)

 maximal supplied QI-value         = 25.13
 optimisation between [QCUT,QGAM] = [ 11.31, 22.87] = [ 35.82,146.48] Ry 
 Optimized for a Real-space Cutoff    1.27 Angstroem

   l    n(q)    QCUT    max X(q) W(low)/X(q) W(high)/X(q)  e(spline) 
   0      9    11.310    79.467    0.75E-04    0.16E-03    0.36E-06
   0      9    11.310    66.151    0.74E-04    0.16E-03    0.36E-06
   1      8    11.310    17.416    0.35E-03    0.12E-03    0.95E-06
   1      8    11.310    12.382    0.37E-03    0.13E-03    0.98E-06
 Optimization of the real space projectors (new method)

 maximal supplied QI-value         = 16.25
 optimisation between [QCUT,QGAM] = [ 11.38, 22.75] = [ 36.24,144.96] Ry 
 Optimized for a Real-space Cutoff    1.31 Angstroem

   l    n(q)    QCUT    max X(q) W(low)/X(q) W(high)/X(q)  e(spline) 
   0      9    11.376   194.483    0.24E-03    0.23E-03    0.67E-07
   0      9    11.376   190.334    0.23E-03    0.22E-03    0.65E-07
   1      8    11.376   116.687    0.25E-03    0.63E-04    0.16E-06
   1      8    11.376    88.696    0.25E-03    0.61E-04    0.16E-06
   2      8    11.376     4.877    0.17E-03    0.14E-03    0.29E-07
 Optimization of the real space projectors (new method)

 maximal supplied QI-value         = 12.09
 optimisation between [QCUT,QGAM] = [ 11.37, 22.86] = [ 36.19,146.31] Ry 
 Optimized for a Real-space Cutoff    1.66 Angstroem

   l    n(q)    QCUT    max X(q) W(low)/X(q) W(high)/X(q)  e(spline) 
   0     11    11.369   135.111    0.12E-03    0.69E-04    0.19E-05
   0     11    11.369   146.850    0.11E-03    0.65E-04    0.18E-05
   1     11    11.369   148.016    0.17E-03    0.32E-03    0.89E-06
   1     11    11.369   122.989    0.17E-03    0.32E-03    0.91E-06
   2     10    11.369     8.916    0.12E-03    0.45E-04    0.33E-06
  PAW_PBE H 15Jun2001                   :
 energy of atom  1       EATOM=  -12.4884
 kinetic energy error for atom=    0.0020 (will be added to EATOM!!)
  PAW_PBE C 08Apr2002                   :
 energy of atom  2       EATOM= -147.1560
 kinetic energy error for atom=    0.0076 (will be added to EATOM!!)
  PAW_PBE N 08Apr2002                   :
 energy of atom  3       EATOM= -264.5486
 kinetic energy error for atom=    0.0138 (will be added to EATOM!!)
  PAW_PBE I 08Apr2002                   :
 energy of atom  4       EATOM= -315.8678
 kinetic energy error for atom=    0.0009 (will be added to EATOM!!)
  PAW_PBE Pb 08Apr2002                  :
 energy of atom  5       EATOM=  -96.9868
 kinetic energy error for atom=    0.0000 (will be added to EATOM!!)
 
 
 POSCAR:  H  C  N  I Pb
  positions in cartesian coordinates
  No initial velocities read in
 exchange correlation table for  LEXCH =        8
   RHO(1)=    0.500       N(1)  =     2000
   RHO(2)=  100.500       N(2)  =     4000
 


--------------------------------------------------------------------------------------------------------


 ion  position               nearest neighbor table
   1  0.456  0.305  0.581- 187 1.04
   2  0.446  0.808  0.582- 188 1.04
   3  0.954  0.302  0.579- 189 1.04
   4  0.962  0.809  0.582- 190 1.03
   5  0.307  0.048  0.580- 194 1.01
   6  0.301  0.550  0.582- 195 1.01
   7  0.793  0.051  0.581- 196 1.01
   8  0.079  0.162  0.560- 183 1.00
   9  0.077  0.668  0.558- 184 1.00
  10  0.585  0.177  0.556- 185 1.04
  11  0.570  0.671  0.559- 186 1.01
  12  0.333  0.075  0.554- 194 1.04
  13  0.328  0.581  0.557- 195 1.04
  14  0.825  0.081  0.557- 196 1.04
  15  0.044  0.198  0.582- 183 0.98
  16  0.054  0.706  0.582- 184 1.04
  17  0.559  0.213  0.581- 185 1.04
  18  0.541  0.701  0.584- 186 1.03
  19  0.203  0.447  0.582- 191 1.01
  20  0.201  0.954  0.582- 192 1.01
  21  0.699  0.945  0.580- 193 1.01
  22  0.417  0.326  0.556- 187 1.01
  23  0.426  0.836  0.556- 188 0.99
  24  0.933  0.325  0.553- 189 0.99
  25  0.926  0.835  0.557- 190 1.00
  26  0.173  0.418  0.557- 191 1.04
  27  0.166  0.925  0.557- 192 1.04
  28  0.676  0.912  0.555- 193 1.04
  29  0.497  0.251  0.538- 146 1.08
  30  0.501  0.752  0.539- 147 1.09
  31  0.011  0.241  0.538- 144 1.09
  32  0.001  0.751  0.539- 145 1.08
  33  0.248  0.500  0.540- 148 1.05
  34  0.247  0.000  0.539- 149 1.05
  35  0.753  0.995  0.539- 150 1.05
  36  0.447  0.303  0.675- 205 1.04
  37  0.451  0.792  0.675- 206 1.04
  38  0.945  0.305  0.672- 207 1.03
  39  0.947  0.802  0.674- 208 0.98
  40  0.302  0.051  0.675- 209 1.04
  41  0.301  0.549  0.675- 210 1.04
  42  0.802  0.055  0.675- 211 1.04
  43  0.803  0.555  0.675- 212 0.98
  44  0.077  0.174  0.651- 197 1.03
  45  0.074  0.668  0.650- 198 1.00
  46  0.580  0.176  0.650- 199 1.00
  47  0.583  0.674  0.645- 200 1.05
  48  0.164  0.425  0.650- 201 1.03
  49  0.170  0.922  0.650- 202 0.99
  50  0.673  0.416  0.651- 203 1.06
  51  0.671  0.924  0.650- 204 0.99
  52  0.045  0.206  0.675- 197 0.97
  53  0.048  0.698  0.675- 198 1.01
  54  0.554  0.202  0.675- 199 1.02
  55  0.556  0.698  0.672- 200 1.03
  56  0.192  0.451  0.675- 201 1.04
  57  0.198  0.949  0.675- 202 1.04
  58  0.700  0.451  0.676- 203 1.04
  59  0.699  0.950  0.675- 204 1.04
  60  0.422  0.331  0.650- 205 1.01
  61  0.418  0.822  0.651- 206 1.01
  62  0.919  0.330  0.645- 207 1.04
  63  0.919  0.828  0.649- 208 1.02
  64  0.328  0.077  0.650- 209 1.01
  65  0.330  0.573  0.650- 210 0.99
  66  0.827  0.082  0.650- 211 1.01
  67  0.833  0.578  0.649- 212 1.07
  68  0.001  0.249  0.630- 151 1.07
  69  0.992  0.744  0.632- 152 1.08
  70  0.502  0.255  0.632- 153 1.09
  71  0.499  0.749  0.630- 154 1.08
  72  0.249  0.999  0.632- 156 1.07
  73  0.248  0.496  0.632- 155 1.08
  74  0.748  0.007  0.632- 158 1.08
  75  0.759  0.494  0.633- 157 1.04
  76  0.449  0.301  0.769- 221 1.02
  77  0.449  0.801  0.769- 222 1.02
  78  0.949  0.301  0.769- 223 1.02
  79  0.949  0.801  0.769- 224 1.02
  80  0.301  0.051  0.769- 225 1.02
  81  0.301  0.551  0.769- 226 1.02
  82  0.801  0.051  0.769- 227 1.02
  83  0.801  0.551  0.769- 228 1.02
  84  0.079  0.171  0.743- 213 1.02
  85  0.079  0.671  0.743- 214 1.02
  86  0.579  0.171  0.743- 215 1.02
  87  0.579  0.671  0.743- 216 1.02
  88  0.171  0.421  0.743- 217 1.02
  89  0.171  0.921  0.743- 218 1.02
  90  0.671  0.421  0.743- 219 1.02
  91  0.671  0.921  0.743- 220 1.02
  92  0.051  0.199  0.769- 213 1.02
  93  0.051  0.699  0.769- 214 1.02
  94  0.551  0.199  0.769- 215 1.02
  95  0.551  0.699  0.769- 216 1.02
  96  0.199  0.449  0.769- 217 1.02
  97  0.199  0.949  0.769- 218 1.02
  98  0.699  0.449  0.769- 219 1.02
  99  0.699  0.949  0.769- 220 1.02
 100  0.421  0.329  0.743- 221 1.02
 101  0.421  0.829  0.743- 222 1.02
 102  0.921  0.329  0.743- 223 1.02
 103  0.921  0.829  0.743- 224 1.02
 104  0.329  0.079  0.743- 225 1.02
 105  0.329  0.579  0.743- 226 1.02
 106  0.829  0.079  0.743- 227 1.02
 107  0.829  0.579  0.743- 228 1.02
 108  0.000  0.250  0.726- 161 1.09
 109  0.000  0.750  0.726- 162 1.09
 110  0.500  0.250  0.726- 159 1.09
 111  0.500  0.750  0.726- 160 1.09
 112  0.250  0.000  0.726- 163 1.09
 113  0.250  0.500  0.726- 164 1.09
 114  0.750  0.000  0.726- 165 1.09
 115  0.750  0.500  0.726- 166 1.09
 116  0.795  0.572  0.534- 173 1.10
 117  0.741  0.489  0.533- 173 1.11
 118  0.873  0.507  0.556- 174 1.07
 119  0.846  0.481  0.581- 174 1.07
 120  0.751  0.639  0.573- 175 1.07
 121  0.802  0.585  0.590- 175 1.09
 122  0.664  0.541  0.576- 176 1.08
 123  0.680  0.454  0.564- 176 1.09
 124  0.628  0.560  0.544- 177 1.09
 125  0.688  0.639  0.548- 177 1.12
 126  0.638  0.669  0.514- 178 1.13
 127  0.711  0.613  0.505- 178 1.12
 128  0.810  0.400  0.539- 179 1.09
 129  0.761  0.383  0.563- 179 1.06
 130  0.854  0.371  0.563- 179 1.09
 131  0.870  0.684  0.570- 180 1.08
 132  0.860  0.637  0.545- 180 1.09
 133  0.912  0.598  0.566- 180 1.09
 134  0.772  0.499  0.603- 181 1.10
 135  0.737  0.412  0.594- 181 1.06
 136  0.681  0.476  0.607- 181 1.05
 137  0.554  0.558  0.515- 182 1.12
 138  0.589  0.578  0.489- 182 1.10
 139  0.716  0.502  0.478- 168 1.11
 140  0.577  0.440  0.530- 169 1.05
 141  0.772  0.376  0.479- 170 1.11
 142  0.632  0.321  0.532- 171 1.08
 143  0.731  0.285  0.506- 172 1.10
 144  0.005  0.245  0.555-  31 1.09 183 1.28 189 1.30
 145  0.002  0.754  0.556-  32 1.08 190 1.31 184 1.33
 146  0.500  0.252  0.555-  29 1.08 187 1.29 185 1.29
 147  0.498  0.753  0.557-  30 1.09 188 1.29 186 1.29
 148  0.250  0.500  0.556-  33 1.05 195 1.29 191 1.31
 149  0.250  0.001  0.555-  34 1.05 194 1.29 192 1.31
 150  0.750  0.996  0.555-  35 1.05 193 1.29 196 1.31
 151  0.998  0.252  0.647-  68 1.07 207 1.29 197 1.36
 152  0.996  0.748  0.649-  69 1.08 208 1.32 198 1.34
 153  0.500  0.254  0.649-  70 1.09 205 1.29 199 1.34
 154  0.500  0.748  0.647-  71 1.08 200 1.30 206 1.31
 155  0.247  0.499  0.649-  73 1.08 201 1.28 210 1.33
 156  0.250  1.000  0.649-  72 1.07 209 1.29 202 1.33
 157  0.754  0.498  0.650-  75 1.04 212 1.31 203 1.32
 158  0.750  0.004  0.649-  74 1.08 211 1.29 204 1.33
 159  0.500  0.250  0.743- 110 1.09 221 1.31 215 1.31
 160  0.500  0.750  0.743- 111 1.09 222 1.31 216 1.31
 161  1.000  0.250  0.743- 108 1.09 223 1.31 213 1.31
 162  1.000  0.750  0.743- 109 1.09 224 1.31 214 1.31
 163  0.250  0.000  0.743- 112 1.09 225 1.31 218 1.31
 164  0.250  0.500  0.743- 113 1.09 226 1.31 217 1.31
 165  0.750  0.000  0.743- 114 1.09 227 1.31 220 1.31
 166  0.750  0.500  0.743- 115 1.09 228 1.31 219 1.31
 167  0.637  0.480  0.504- 169 1.39 168 1.41 182 1.51
 168  0.695  0.460  0.490- 139 1.11 170 1.38 167 1.41
 169  0.617  0.427  0.519- 140 1.05 171 1.36 167 1.39
 170  0.726  0.390  0.490- 141 1.11 168 1.38 172 1.38
 171  0.648  0.358  0.520- 142 1.08 169 1.36 172 1.38
 172  0.703  0.339  0.505- 143 1.10 170 1.38 171 1.38
 173  0.747  0.543  0.541- 116 1.10 117 1.11 177 1.49 229 1.52
 174  0.829  0.480  0.565- 119 1.07 118 1.07 229 1.45 179 1.48
 175  0.797  0.602  0.573- 120 1.07 121 1.09 229 1.46 180 1.47
 176  0.704  0.496  0.575- 122 1.08 123 1.09 181 1.42 229 1.50
 177  0.678  0.588  0.538- 124 1.09 125 1.12 173 1.49 178 1.55
 178  0.660  0.610  0.515- 127 1.12 126 1.13 182 1.52 177 1.55
 179  0.811  0.406  0.556- 129 1.06 130 1.09 128 1.09 174 1.48
 180  0.863  0.630  0.562- 131 1.08 132 1.09 133 1.09 175 1.47
 181  0.724  0.469  0.596- 136 1.05 135 1.06 134 1.10 176 1.42
 182  0.605  0.557  0.505- 138 1.10 137 1.12 167 1.51 178 1.52
 183  0.045  0.200  0.566-  15 0.98   8 1.00 144 1.28
 184  0.046  0.705  0.566-   9 1.00  16 1.04 145 1.33
 185  0.551  0.214  0.565-  17 1.04  10 1.04 146 1.29
 186  0.536  0.705  0.567-  11 1.01  18 1.03 147 1.29
 187  0.455  0.296  0.565-  22 1.01   1 1.04 146 1.29
 188  0.454  0.801  0.565-  23 0.99   2 1.04 147 1.29
 189  0.961  0.295  0.563-  24 0.99   3 1.04 144 1.30
 190  0.960  0.803  0.566-  25 1.00   4 1.03 145 1.31
 191  0.207  0.453  0.566-  19 1.01  26 1.04 148 1.31
 192  0.204  0.958  0.566-  20 1.01  27 1.04 149 1.31
 193  0.706  0.949  0.564-  21 1.01  28 1.04 150 1.29
 194  0.299  0.043  0.564-   5 1.01  12 1.04 149 1.29
 195  0.295  0.546  0.566-   6 1.01  13 1.04 148 1.29
 196  0.791  0.045  0.565-   7 1.01  14 1.04 150 1.31
 197  0.043  0.208  0.660-  52 0.97  44 1.03 151 1.36
 198  0.043  0.703  0.659-  45 1.00  53 1.01 152 1.34
 199  0.547  0.207  0.659-  46 1.00  54 1.02 153 1.34
 200  0.549  0.704  0.656-  55 1.03  47 1.05 154 1.30
 201  0.201  0.456  0.659-  48 1.03  56 1.04 155 1.28
 202  0.203  0.954  0.659-  49 0.99  57 1.04 156 1.33
 203  0.707  0.453  0.659-  58 1.04  50 1.06 157 1.32
 204  0.704  0.956  0.659-  51 0.99  59 1.04 158 1.33
 205  0.455  0.298  0.659-  60 1.01  36 1.04 153 1.29
 206  0.454  0.789  0.658-  61 1.01  37 1.04 154 1.31
 207  0.951  0.299  0.655-  38 1.03  62 1.04 151 1.29
 208  0.952  0.796  0.659-  39 0.98  63 1.02 152 1.32
 209  0.295  0.045  0.659-  64 1.01  40 1.04 156 1.29
 210  0.296  0.543  0.659-  65 0.99  41 1.04 155 1.33
 211  0.795  0.049  0.659-  66 1.01  42 1.04 158 1.29
 212  0.798  0.546  0.659-  43 0.98  67 1.07 157 1.31
 213  0.046  0.204  0.753-  92 1.02  84 1.02 161 1.31
 214  0.046  0.704  0.753-  93 1.02  85 1.02 162 1.31
 215  0.546  0.204  0.753-  94 1.02  86 1.02 159 1.31
 216  0.546  0.704  0.753-  95 1.02  87 1.02 160 1.31
 217  0.204  0.454  0.753-  96 1.02  88 1.02 164 1.31
 218  0.204  0.954  0.753-  97 1.02  89 1.02 163 1.31
 219  0.704  0.454  0.753-  98 1.02  90 1.02 166 1.31
 220  0.704  0.954  0.753-  99 1.02  91 1.02 165 1.31
 221  0.454  0.296  0.753-  76 1.02 100 1.02 159 1.31
 222  0.454  0.796  0.753-  77 1.02 101 1.02 160 1.31
 223  0.954  0.296  0.753-  78 1.02 102 1.02 161 1.31
 224  0.954  0.796  0.753-  79 1.02 103 1.02 162 1.31
 225  0.296  0.046  0.753-  80 1.02 104 1.02 163 1.31
 226  0.296  0.546  0.753-  81 1.02 105 1.02 164 1.31
 227  0.796  0.046  0.753-  82 1.02 106 1.02 165 1.31
 228  0.796  0.546  0.753-  83 1.02 107 1.02 166 1.31
 229  0.768  0.532  0.564- 174 1.45 175 1.46 176 1.50 173 1.52
 230  0.496  0.999  0.554- 304 3.10
 231  0.493  0.506  0.554- 305 3.08
 232  0.006  0.999  0.553- 302 3.11
 233  0.007  0.493  0.550- 303 3.33
 234  0.249  0.251  0.554- 306 3.07
 235  0.249  0.748  0.554- 307 3.09
 236  0.756  0.243  0.554- 308 3.05
 237  0.744  0.756  0.550- 309 3.35
 238  0.994  0.998  0.655- 310 3.14 302 3.25
 239  0.001  0.494  0.654- 311 3.15 303 3.18
 240  0.494  0.999  0.654- 312 3.16 304 3.19
 241  0.501  0.498  0.654- 305 3.17 313 3.20
 242  0.249  0.251  0.654- 314 3.16 306 3.21
 243  0.249  0.749  0.655- 315 3.14 307 3.21
 244  0.749  0.251  0.655- 316 3.14 308 3.26
 245  0.751  0.751  0.654- 309 3.11 317 3.20
 246  0.142  0.106  0.607- 302 3.19 306 3.26
 247  0.142  0.606  0.606- 303 3.17 307 3.28
 248  0.642  0.106  0.607- 304 3.18 308 3.19
 249  0.637  0.613  0.609- 309 3.26 305 3.28
 250  0.358  0.394  0.607- 305 3.16 306 3.26
 251  0.356  0.892  0.607- 307 3.19 304 3.28
 252  0.863  0.386  0.609- 303 3.25 308 3.30
 253  0.856  0.891  0.607- 309 3.16 302 3.30
 254  0.106  0.358  0.607- 303 3.17 306 3.28
 255  0.106  0.854  0.607- 307 3.22 302 3.28
 256  0.600  0.350  0.609- 305 3.29 308 3.31
 257  0.608  0.856  0.607- 309 3.09 304 3.27
 258  0.392  0.142  0.607- 306 3.21 304 3.22
 259  0.392  0.642  0.607- 305 3.21 307 3.23
 260  0.894  0.142  0.607- 302 3.21 308 3.23
 261  0.900  0.650  0.609- 303 3.32 309 3.38
 262  0.000  0.000  0.755- 310 3.13 318 3.27
 263  0.000  0.500  0.755- 311 3.13 319 3.27
 264  0.500  0.000  0.755- 312 3.13 320 3.27
 265  0.500  0.500  0.755- 313 3.13 321 3.27
 266  0.250  0.250  0.755- 314 3.13 322 3.27
 267  0.250  0.750  0.755- 315 3.13 323 3.27
 268  0.750  0.250  0.755- 316 3.13 324 3.27
 269  0.750  0.750  0.755- 317 3.13 325 3.27
 270  0.136  0.114  0.705- 310 3.20 314 3.20
 271  0.136  0.614  0.705- 311 3.20 315 3.20
 272  0.636  0.114  0.705- 312 3.20 316 3.20
 273  0.636  0.614  0.705- 313 3.20 317 3.20
 274  0.364  0.386  0.705- 313 3.20 314 3.20
 275  0.364  0.886  0.705- 312 3.20 315 3.20
 276  0.864  0.386  0.705- 311 3.20 316 3.20
 277  0.864  0.886  0.705- 310 3.20 317 3.20
 278  0.114  0.364  0.705- 314 3.21 311 3.21
 279  0.114  0.864  0.705- 315 3.21 310 3.21
 280  0.614  0.364  0.705- 316 3.21 313 3.21
 281  0.614  0.864  0.705- 317 3.21 312 3.21
 282  0.386  0.136  0.705- 314 3.21 312 3.21
 283  0.386  0.636  0.705- 315 3.21 313 3.21
 284  0.886  0.136  0.705- 316 3.21 310 3.21
 285  0.886  0.636  0.705- 317 3.21 311 3.21
 286  0.135  0.115  0.801- 318 3.22 322 3.22
 287  0.135  0.615  0.801- 319 3.22 323 3.22
 288  0.635  0.115  0.801- 320 3.22 324 3.22
 289  0.635  0.615  0.801- 321 3.22 325 3.22
 290  0.365  0.385  0.801- 321 3.22 322 3.22
 291  0.365  0.885  0.801- 320 3.22 323 3.22
 292  0.865  0.385  0.801- 319 3.22 324 3.22
 293  0.865  0.885  0.801- 318 3.22 325 3.22
 294  0.115  0.365  0.801- 319 3.23 322 3.23
 295  0.115  0.865  0.801- 318 3.23 323 3.23
 296  0.615  0.365  0.801- 321 3.23 324 3.23
 297  0.615  0.865  0.801- 320 3.23 325 3.23
 298  0.385  0.135  0.801- 320 3.23 322 3.23
 299  0.385  0.635  0.801- 321 3.23 323 3.23
 300  0.885  0.135  0.801- 318 3.23 324 3.23
 301  0.885  0.635  0.801- 319 3.23 325 3.23
 302  0.001  0.001  0.603- 232 3.11 246 3.19 260 3.21 238 3.25 255 3.28 253 3.30
 303  0.003  0.499  0.603- 254 3.17 247 3.17 239 3.18 252 3.25 261 3.32 233 3.33
 304  0.501  0.001  0.603- 230 3.10 248 3.18 240 3.19 258 3.22 257 3.27 251 3.28
 305  0.497  0.499  0.603- 231 3.08 250 3.16 241 3.17 259 3.21 249 3.28 256 3.29
 306  0.251  0.249  0.603- 234 3.07 242 3.21 258 3.21 246 3.26 250 3.26 254 3.28
 307  0.251  0.751  0.603- 235 3.09 251 3.19 243 3.21 255 3.22 259 3.23 247 3.28
 308  0.749  0.246  0.602- 236 3.05 248 3.19 260 3.23 244 3.26 252 3.30 256 3.31
 309  0.746  0.755  0.604- 257 3.09 245 3.11 253 3.16 249 3.26 237 3.35 261 3.38
 310  0.000  0.000  0.705- 262 3.13 238 3.14 270 3.20 277 3.20 279 3.21 284 3.21
 311  0.000  0.500  0.705- 263 3.13 239 3.15 271 3.20 276 3.20 278 3.21 285 3.21
 312  0.500  0.000  0.705- 264 3.13 240 3.16 272 3.20 275 3.20 281 3.21 282 3.21
 313  0.500  0.500  0.705- 265 3.13 241 3.20 273 3.20 274 3.20 280 3.21 283 3.21
 314  0.250  0.250  0.705- 266 3.13 242 3.16 270 3.20 274 3.20 282 3.21 278 3.21
 315  0.250  0.750  0.705- 267 3.13 243 3.14 271 3.20 275 3.20 283 3.21 279 3.21
 316  0.750  0.250  0.705- 268 3.13 244 3.14 272 3.20 276 3.20 284 3.21 280 3.21
 317  0.750  0.750  0.705- 269 3.13 273 3.20 277 3.20 245 3.20 285 3.21 281 3.21
 318  0.000  0.000  0.807- 286 3.22 293 3.22 300 3.23 295 3.23 262 3.27
 319  0.000  0.500  0.807- 287 3.22 292 3.22 301 3.23 294 3.23 263 3.27
 320  0.500  0.000  0.807- 288 3.22 291 3.22 298 3.23 297 3.23 264 3.27
 321  0.500  0.500  0.807- 289 3.22 290 3.22 299 3.23 296 3.23 265 3.27
 322  0.250  0.250  0.807- 290 3.22 286 3.22 294 3.23 298 3.23 266 3.27
 323  0.250  0.750  0.807- 291 3.22 287 3.22 299 3.23 295 3.23 267 3.27
 324  0.750  0.250  0.807- 292 3.22 288 3.22 296 3.23 300 3.23 268 3.27
 325  0.750  0.750  0.807- 293 3.22 289 3.22 297 3.23 301 3.23 269 3.27
 

IMPORTANT INFORMATION: All symmetrisations will be switched off!
NOSYMM: (Re-)initialisation of all symmetry stuff for point group C_1.


----------------------------------------------------------------------------------------

                                     Primitive cell                                     

  volume of cell :   20385.2105

  direct lattice vectors                    reciprocal lattice vectors
    18.060800552  0.000000000  0.000000000     0.055368531  0.000015077 -0.000000000
    -0.004918649 18.062799454  0.000000000     0.000000000  0.055362404  0.000000000
     0.000000000  0.000000000 62.487499237     0.000000000 -0.000000000  0.016003201

  length of vectors
    18.060800552 18.062800123 62.487499237     0.055368533  0.055362404  0.016003201

  position of ions in fractional coordinates (direct lattice)
     0.455559972  0.304662676  0.581213906
     0.445963336  0.807562669  0.581565234
     0.954378741  0.301890981  0.579356723
     0.961830838  0.808858219  0.582158919
     0.306853571  0.048447538  0.579908469
     0.300614377  0.550401321  0.581759486
     0.793113297  0.051067961  0.581276419
     0.079288801  0.162284721  0.559620659
     0.077390233  0.667691840  0.558356612
     0.584947932  0.177079892  0.556394611
     0.569963959  0.671050354  0.558895294
     0.332934057  0.075383141  0.554418813
     0.327559892  0.581320289  0.556725304
     0.825330184  0.080796951  0.556621097
     0.043816248  0.198050017  0.581690259
     0.053972691  0.706030469  0.582379850
     0.558529458  0.213088242  0.581174897
     0.541103059  0.700860782  0.583579125
     0.202695576  0.447457469  0.581975228
     0.201281123  0.953654982  0.581795077
     0.698951358  0.944951300  0.580304545
     0.417263710  0.325744852  0.556459626
     0.425938105  0.836497552  0.556177771
     0.933077738  0.324966957  0.552513341
     0.925877234  0.834503647  0.557054472
     0.172509420  0.418209785  0.557062652
     0.165649790  0.925193093  0.557405494
     0.675977516  0.912491622  0.555079773
     0.497434782  0.251006192  0.537968745
     0.501478246  0.752331467  0.539293168
     0.011148567  0.240989095  0.537859898
     0.001492530  0.750685235  0.538973646
     0.248465426  0.499954911  0.539545599
     0.246505227  0.000207537  0.538610658
     0.753441371  0.994883194  0.538548085
     0.447302333  0.303078217  0.675168550
     0.450954706  0.791889301  0.675023135
     0.944779170  0.304648130  0.671745747
     0.947448477  0.802186121  0.674072994
     0.302183634  0.051387717  0.674971917
     0.300933377  0.548900968  0.675241441
     0.801504718  0.054508441  0.675161957
     0.802665257  0.555409288  0.674694517
     0.076821235  0.174120184  0.650640268
     0.073571373  0.668462475  0.650076068
     0.579930297  0.175610188  0.649821501
     0.583085939  0.673503441  0.645172499
     0.164466151  0.425401519  0.649916307
     0.170297304  0.921547438  0.650286743
     0.672870819  0.415634604  0.650616704
     0.671466236  0.924090875  0.649918077
     0.045004470  0.205585556  0.675018740
     0.048434716  0.698305532  0.674877476
     0.554010917  0.201517757  0.675204996
     0.555843921  0.697807016  0.671989814
     0.192010395  0.451428701  0.675245104
     0.198020005  0.948863270  0.675484165
     0.700018713  0.451138419  0.675613341
     0.699004883  0.950316114  0.675229964
     0.421763203  0.331162107  0.649851231
     0.417642739  0.821925070  0.650666213
     0.918730857  0.330397860  0.645216454
     0.919045704  0.827526906  0.649189843
     0.328442394  0.077192215  0.649510220
     0.329845493  0.573368427  0.649910141
     0.827087363  0.082285378  0.649815701
     0.832674439  0.578006758  0.648903165
     0.001195145  0.248850700  0.630347818
     0.991675416  0.743787321  0.631560951
     0.502474044  0.255301787  0.631831818
     0.499432007  0.748662661  0.630252401
     0.249284759  0.999259928  0.632129730
     0.247898401  0.495904377  0.632155003
     0.748107042  0.006673987  0.632110011
     0.758817538  0.494052180  0.632963820
     0.448745018  0.301283966  0.768889017
     0.448745007  0.801283913  0.768889017
     0.948744965  0.301283966  0.768889017
     0.948745007  0.801283913  0.768889017
     0.301275995  0.051294496  0.768872961
     0.301276011  0.551294499  0.768872961
     0.801275943  0.051294496  0.768872961
     0.801275984  0.551294499  0.768872961
     0.078771004  0.171180501  0.743441971
     0.078771006  0.671180448  0.743441971
     0.578771004  0.171180501  0.743441971
     0.578770992  0.671180448  0.743441971
     0.171199499  0.421174482  0.743421032
     0.171199501  0.921174508  0.743421032
     0.671199512  0.421174482  0.743421032
     0.671199501  0.921174508  0.743421032
     0.051256000  0.198714991  0.768889017
     0.051256002  0.698714925  0.768889017
     0.551256027  0.198714991  0.768889017
     0.551256016  0.698714925  0.768889017
     0.198723491  0.448703970  0.768872046
     0.198723493  0.948703970  0.768872046
     0.698723518  0.448703970  0.768872046
     0.698723507  0.948703970  0.768872046
     0.421231519  0.328817467  0.743441971
     0.421231508  0.828817440  0.743441971
     0.921231466  0.328817467  0.743441971
     0.921231508  0.828817440  0.743441971
     0.328800503  0.078824997  0.743421032
     0.328800492  0.578824964  0.743421032
     0.828800477  0.078824997  0.743421032
     0.828800519  0.578824964  0.743421032
     0.000003500  0.250001478  0.725821992
     0.000003500  0.750001452  0.725821992
     0.500003506  0.250001478  0.725821992
     0.500003495  0.750001452  0.725821992
     0.250000502  0.000000000  0.725803983
     0.250000517  0.500000000  0.725803983
     0.750000502  0.000000000  0.725803983
     0.750000490  0.500000000  0.725803983
     0.795254574  0.572389241  0.534016173
     0.741259910  0.488719137  0.532824711
     0.872983309  0.506906731  0.556035774
     0.845746752  0.481459875  0.581093765
     0.750550728  0.638721740  0.572564471
     0.802413390  0.585290148  0.589864074
     0.664436221  0.540993879  0.575667203
     0.680374457  0.453988650  0.564471910
     0.628127236  0.560189487  0.543855726
     0.688185195  0.639094809  0.548120556
     0.638172390  0.668642673  0.514085734
     0.711037041  0.612539835  0.504547296
     0.809715085  0.399812980  0.539099037
     0.761233974  0.382517033  0.562518639
     0.853612383  0.370610386  0.563439477
     0.870103459  0.683742394  0.569518757
     0.860311107  0.637449263  0.544999937
     0.912097438  0.598063391  0.566413399
     0.771871131  0.499390503  0.602524504
     0.737167276  0.411978310  0.594311130
     0.681149438  0.476030793  0.606663760
     0.553549499  0.557807730  0.514774043
     0.589239262  0.578377609  0.488808827
     0.715674872  0.502374682  0.478379556
     0.577382936  0.440027670  0.530371889
     0.771761765  0.375845357  0.478994059
     0.631936517  0.320665158  0.532165888
     0.731418626  0.285049676  0.506343920
     0.005010174  0.244936304  0.555194542
     0.002017989  0.753631875  0.556176611
     0.499976528  0.251957950  0.555175129
     0.497547074  0.753296240  0.556651926
     0.250399266  0.500206703  0.556309694
     0.249622557  0.000667670  0.555323046
     0.750366873  0.996198761  0.555272499
     0.997871931  0.252163703  0.647487721
     0.995794105  0.748253056  0.648678511
     0.500453540  0.253838974  0.649216460
     0.500271823  0.747797359  0.647474412
     0.246721504  0.498963845  0.649336784
     0.249782996  0.999775856  0.649318653
     0.754441015  0.498486184  0.649576090
     0.749678703  0.003634184  0.649289351
     0.499988984  0.249994984  0.743277021
     0.499989025  0.749994958  0.743277021
     0.999988984  0.249994984  0.743277021
     0.999989025  0.749994958  0.743277021
     0.250000502  0.000001000  0.743255960
     0.250000517  0.500001003  0.743255960
     0.750000502  0.000001000  0.743255960
     0.750000491  0.500001003  0.743255960
     0.636614502  0.479509000  0.503507263
     0.695442500  0.459886629  0.489880331
     0.616510724  0.426615523  0.518630893
     0.726312676  0.390313195  0.490309036
     0.647703072  0.358075023  0.519533845
     0.703349525  0.339133003  0.505350161
     0.747221407  0.543310378  0.540762517
     0.829027662  0.480457933  0.564695099
     0.796734621  0.601534681  0.573084534
     0.703689773  0.495730514  0.574990860
     0.678284071  0.588160337  0.538333076
     0.660321312  0.610085481  0.514958161
     0.811137005  0.405531658  0.556451812
     0.862896689  0.630097394  0.562235012
     0.724330022  0.469275433  0.595619192
     0.605082415  0.556966451  0.504709133
     0.045259285  0.200067193  0.566096258
     0.045896801  0.705217332  0.565951881
     0.550738794  0.213758957  0.564725196
     0.536247223  0.705238873  0.567143709
     0.454527425  0.296036403  0.564821895
     0.453746207  0.800962217  0.565183112
     0.960564889  0.294529952  0.563012329
     0.960411749  0.803259973  0.565704334
     0.206687219  0.453222027  0.565983138
     0.203590546  0.957993534  0.565739742
     0.706436870  0.949321769  0.564407078
     0.298597812  0.043294687  0.564053491
     0.294762237  0.545838121  0.565796821
     0.791336869  0.044821128  0.565270776
     0.042619991  0.207928982  0.659531084
     0.042658121  0.702936524  0.658861944
     0.546967293  0.206943539  0.659018347
     0.549465881  0.703601669  0.655671792
     0.201448579  0.455835566  0.658815670
     0.202973275  0.953737706  0.659020606
     0.707161614  0.453297422  0.659159794
     0.703712249  0.956262700  0.658790335
     0.454533953  0.297901587  0.658736614
     0.454114201  0.789158182  0.658433819
     0.950912074  0.298601209  0.655456661
     0.952335720  0.796022781  0.658623554
     0.295430404  0.044698535  0.658565681
     0.295706252  0.543293113  0.658804621
     0.794694650  0.048710778  0.658729288
     0.798030217  0.545916578  0.659300386
     0.045862501  0.204119496  0.752725994
     0.045862500  0.704119456  0.752725994
     0.545862507  0.204119496  0.752725994
     0.545862496  0.704119456  0.752725994
     0.204119002  0.454101003  0.752704994
     0.204118991  0.954100951  0.752704994
     0.704118976  0.454101003  0.752704994
     0.704118964  0.954100951  0.752704994
     0.454140018  0.295888490  0.752726971
     0.454140007  0.795888516  0.752726971
     0.954140018  0.295888490  0.752726971
     0.954140060  0.795888516  0.752726971
     0.295882492  0.045900498  0.752704994
     0.295882481  0.545900528  0.752704994
     0.795882439  0.045900498  0.752704994
     0.795882481  0.545900528  0.752704994
     0.768113512  0.532498781  0.564110632
     0.496093202  0.998951101  0.553759379
     0.493461461  0.506312599  0.553793627
     0.006108236  0.998905131  0.552998485
     0.006644104  0.493453349  0.550187009
     0.248902224  0.250930190  0.553747780
     0.248926838  0.748478080  0.553841610
     0.755820171  0.243448518  0.553737830
     0.743907639  0.756484482  0.550157646
     0.994180519  0.998407923  0.654630568
     0.001448672  0.493709629  0.654376184
     0.494113191  0.998814485  0.654305002
     0.501419203  0.497915599  0.653641662
     0.249120102  0.250872218  0.654265505
     0.249142414  0.749077175  0.654621228
     0.748977325  0.250885840  0.654625745
     0.751109470  0.751084069  0.653546122
     0.142243049  0.106002918  0.606946592
     0.141940151  0.605834896  0.606480190
     0.642227644  0.105955070  0.606923882
     0.636793630  0.613165329  0.609266697
     0.357774783  0.394077724  0.606776636
     0.355967314  0.892167345  0.606615105
     0.863476979  0.386493545  0.609314925
     0.855545583  0.891431978  0.606747883
     0.106037641  0.357828300  0.606876327
     0.105966896  0.853504009  0.606794279
     0.600352230  0.350314606  0.608742728
     0.608120431  0.855811691  0.606904347
     0.392075609  0.141776840  0.607076562
     0.392102617  0.642005176  0.607047015
     0.894121527  0.142036552  0.606994819
     0.899621466  0.649739829  0.609357536
     0.000000000  0.000000000  0.754927972
     0.000000000  0.500000000  0.754927972
     0.500000000  0.000000000  0.754927972
     0.499999989  0.500000000  0.754927972
     0.250000496  0.250000000  0.754939022
     0.250000511  0.749999974  0.754939022
     0.750000470  0.250000000  0.754939022
     0.750000458  0.749999974  0.754939022
     0.135790500  0.114209997  0.704782994
     0.135790502  0.614209984  0.704782994
     0.635790447  0.114209997  0.704782994
     0.635790488  0.614209984  0.704782994
     0.364209516  0.385789989  0.704782994
     0.364209505  0.885789963  0.704782994
     0.864209542  0.385789989  0.704782994
     0.864209531  0.885789963  0.704782994
     0.114217990  0.364218986  0.704780979
     0.114217992  0.864218986  0.704780979
     0.614218004  0.364218986  0.704780979
     0.614217992  0.864218986  0.704780979
     0.385782012  0.135781489  0.704782017
     0.385782001  0.635781489  0.704782017
     0.885781985  0.135781489  0.704782017
     0.885782027  0.635781489  0.704782017
     0.134667000  0.115332001  0.801256025
     0.134666989  0.615331988  0.801256025
     0.634666987  0.115332001  0.801256025
     0.634666976  0.615331988  0.801256025
     0.365333002  0.384667985  0.801256025
     0.365332990  0.884667959  0.801256025
     0.865332949  0.384667985  0.801256025
     0.865332938  0.884667959  0.801256025
     0.115328503  0.365337004  0.801264999
     0.115328505  0.865336978  0.801264999
     0.615328503  0.365337004  0.801264999
     0.615328492  0.865336978  0.801264999
     0.384671513  0.134662996  0.801264999
     0.384671501  0.634662970  0.801264999
     0.884671486  0.134662996  0.801264999
     0.884671528  0.634662970  0.801264999
     0.000891723  0.001021049  0.602710271
     0.002676740  0.499105449  0.603474096
     0.501038760  0.001001267  0.603359571
     0.497104143  0.499053496  0.603000979
     0.250906078  0.249131979  0.602877175
     0.250922090  0.750865064  0.603317631
     0.749139210  0.245802398  0.602470416
     0.746398431  0.755306512  0.603777318
     0.000000500  0.000000500  0.704828963
     0.000000500  0.500000475  0.704828963
     0.500000475  0.000000500  0.704828963
     0.500000464  0.500000475  0.704828963
     0.249999994  0.249999472  0.704824995
     0.250000010  0.749999498  0.704824995
     0.749999994  0.249999472  0.704824995
     0.749999983  0.749999498  0.704824995
     0.000000000  0.000000000  0.807317968
     0.000000000  0.500000000  0.807317968
     0.500000000  0.000000000  0.807317968
     0.499999989  0.500000000  0.807317968
     0.249999994  0.250000000  0.807317968
     0.250000010  0.749999974  0.807317968
     0.749999994  0.250000000  0.807317968
     0.749999983  0.749999974  0.807317968

  ion indices of the primitive-cell ions
   primitive index   ion index
                 1           1
                 2           2
                 3           3
                 4           4
                 5           5
                 6           6
                 7           7
                 8           8
                 9           9
                10          10
                11          11
                12          12
                13          13
                14          14
                15          15
                16          16
                17          17
                18          18
                19          19
                20          20
                21          21
                22          22
                23          23
                24          24
                25          25
                26          26
                27          27
                28          28
                29          29
                30          30
                31          31
                32          32
                33          33
                34          34
                35          35
                36          36
                37          37
                38          38
                39          39
                40          40
                41          41
                42          42
                43          43
                44          44
                45          45
                46          46
                47          47
                48          48
                49          49
                50          50
                51          51
                52          52
                53          53
                54          54
                55          55
                56          56
                57          57
                58          58
                59          59
                60          60
                61          61
                62          62
                63          63
                64          64
                65          65
                66          66
                67          67
                68          68
                69          69
                70          70
                71          71
                72          72
                73          73
                74          74
                75          75
                76          76
                77          77
                78          78
                79          79
                80          80
                81          81
                82          82
                83          83
                84          84
                85          85
                86          86
                87          87
                88          88
                89          89
                90          90
                91          91
                92          92
                93          93
                94          94
                95          95
                96          96
                97          97
                98          98
                99          99
               100         100
               101         101
               102         102
               103         103
               104         104
               105         105
               106         106
               107         107
               108         108
               109         109
               110         110
               111         111
               112         112
               113         113
               114         114
               115         115
               116         116
               117         117
               118         118
               119         119
               120         120
               121         121
               122         122
               123         123
               124         124
               125         125
               126         126
               127         127
               128         128
               129         129
               130         130
               131         131
               132         132
               133         133
               134         134
               135         135
               136         136
               137         137
               138         138
               139         139
               140         140
               141         141
               142         142
               143         143
               144         144
               145         145
               146         146
               147         147
               148         148
               149         149
               150         150
               151         151
               152         152
               153         153
               154         154
               155         155
               156         156
               157         157
               158         158
               159         159
               160         160
               161         161
               162         162
               163         163
               164         164
               165         165
               166         166
               167         167
               168         168
               169         169
               170         170
               171         171
               172         172
               173         173
               174         174
               175         175
               176         176
               177         177
               178         178
               179         179
               180         180
               181         181
               182         182
               183         183
               184         184
               185         185
               186         186
               187         187
               188         188
               189         189
               190         190
               191         191
               192         192
               193         193
               194         194
               195         195
               196         196
               197         197
               198         198
               199         199
               200         200
               201         201
               202         202
               203         203
               204         204
               205         205
               206         206
               207         207
               208         208
               209         209
               210         210
               211         211
               212         212
               213         213
               214         214
               215         215
               216         216
               217         217
               218         218
               219         219
               220         220
               221         221
               222         222
               223         223
               224         224
               225         225
               226         226
               227         227
               228         228
               229         229
               230         230
               231         231
               232         232
               233         233
               234         234
               235         235
               236         236
               237         237
               238         238
               239         239
               240         240
               241         241
               242         242
               243         243
               244         244
               245         245
               246         246
               247         247
               248         248
               249         249
               250         250
               251         251
               252         252
               253         253
               254         254
               255         255
               256         256
               257         257
               258         258
               259         259
               260         260
               261         261
               262         262
               263         263
               264         264
               265         265
               266         266
               267         267
               268         268
               269         269
               270         270
               271         271
               272         272
               273         273
               274         274
               275         275
               276         276
               277         277
               278         278
               279         279
               280         280
               281         281
               282         282
               283         283
               284         284
               285         285
               286         286
               287         287
               288         288
               289         289
               290         290
               291         291
               292         292
               293         293
               294         294
               295         295
               296         296
               297         297
               298         298
               299         299
               300         300
               301         301
               302         302
               303         303
               304         304
               305         305
               306         306
               307         307
               308         308
               309         309
               310         310
               311         311
               312         312
               313         313
               314         314
               315         315
               316         316
               317         317
               318         318
               319         319
               320         320
               321         321
               322         322
               323         323
               324         324
               325         325

----------------------------------------------------------------------------------------

 
 
 KPOINTS: Automatic Mesh                          

Automatic generation of k-mesh.
 Grid dimensions read from file:
 generate k-points for:    3    3    1

 Generating k-lattice:

  Cartesian coordinates                     Fractional coordinates (reciprocal lattice)
     0.018456177  0.000005026 -0.000000000     0.333333333  0.000000000  0.000000000
     0.000000000  0.018454135  0.000000000     0.000000000  0.333333333  0.000000000
     0.000000000 -0.000000000  0.016003201     0.000000000  0.000000000  1.000000000

  Length of vectors
     0.018456178  0.018454135  0.016003201

  Shift w.r.t. Gamma in fractional coordinates (k-lattice)
     0.000000000  0.000000000  0.000000000

 
 Subroutine IBZKPT returns following result:
 ===========================================
 
 Found      5 irreducible k-points:
 
 Following reciprocal coordinates:
            Coordinates               Weight
  0.000000  0.000000  0.000000      1.000000
  0.333333  0.000000  0.000000      2.000000
  0.000000  0.333333  0.000000      2.000000
  0.333333  0.333333  0.000000      2.000000
 -0.333333  0.333333  0.000000      2.000000
 
 Following cartesian coordinates:
            Coordinates               Weight
  0.000000  0.000000  0.000000      1.000000
  0.018456  0.000005  0.000000      2.000000
  0.000000  0.018454  0.000000      2.000000
  0.018456  0.018459  0.000000      2.000000
 -0.018456  0.018449  0.000000      2.000000
 


--------------------------------------------------------------------------------------------------------




 Dimension of arrays:
   k-points           NKPTS =      5   k-points in BZ     NKDIM =      5   number of bands    NBANDS=    732
   number of dos      NEDOS =    301   number of ions     NIONS =    325
   non local maximal  LDIM  =      5   non local SUM 2l+1 LMDIM =     13
   total plane-waves  NPLWV = ******
   max r-space proj   IRMAX =   3336   max aug-charges    IRDMAX=  19845
   dimension x,y,z NGX =   100 NGY =  100 NGZ =  350
   dimension x,y,z NGXF=   200 NGYF=  200 NGZF=  700
   support grid    NGXF=   200 NGYF=  200 NGZF=  700
   ions per type =             143  39  47  72  24
   NGX,Y,Z   is equivalent  to a cutoff of   9.20,  9.20,  9.31 a.u.
   NGXF,Y,Z  is equivalent  to a cutoff of  18.41, 18.41, 18.62 a.u.

 SYSTEM =  PSC                                     
 POSCAR =   H  C  N  I Pb                          

 Startparameter for this run:
   NWRITE =      2    write-flag & timer
   PREC   = normal    normal or accurate (medium, high low for compatibility)
   ISTART =      0    job   : 0-new  1-cont  2-samecut
   ICHARG =      1    charge: 1-file 2-atom 10-const
   ISPIN  =      1    spin polarized calculation?
   LNONCOLLINEAR =      F non collinear calculations
   LSORBIT =      F    spin-orbit coupling
   INIWAV =      1    electr: 0-lowe 1-rand  2-diag
   LASPH  =      F    aspherical Exc in radial PAW
 Electronic Relaxation 1
   ENCUT  =  500.0 eV  36.75 Ry    6.06 a.u.  32.93 32.93113.93*2*pi/ulx,y,z
   ENINI  =  500.0     initial cutoff
   ENAUG  =  644.9 eV  augmentation charge cutoff
   NELM   =    600;   NELMIN=  2; NELMDL=  0     # of ELM steps 
   EDIFF  = 0.1E-03   stopping-criterion for ELM
   LREAL  =      T    real-space projection
   NLSPLINE    = F    spline interpolate recip. space projectors
   LCOMPAT=      F    compatible to vasp.4.4
   GGA_COMPAT  = F    GGA compatible to vasp.4.4-vasp.4.6
   LMAXPAW     = -100 max onsite density
   LMAXMIX     =    2 max onsite mixed and CHGCAR
   VOSKOWN=      0    Vosko Wilk Nusair interpolation
   ROPT   =   -0.00050  -0.00050  -0.00050  -0.00050
   ROPT   =   -0.00050
 Ionic relaxation
   EDIFFG = 0.1E-02   stopping-criterion for IOM
   NSW    =      0    number of steps for IOM
   NBLOCK =      1;   KBLOCK =      1    inner block; outer block 
   IBRION =     -1    ionic relax: 0-MD 1-quasi-New 2-CG
   NFREE  =      0    steps in history (QN), initial steepest desc. (CG)
   ISIF   =      2    stress and relaxation
   IWAVPR =     10    prediction:  0-non 1-charg 2-wave 3-comb
   ISYM   =      0    0-nonsym 1-usesym 2-fastsym
   LCORR  =      T    Harris-Foulkes like correction to forces

   POTIM  = 0.5000    time-step for ionic-motion
   TEIN   =    0.0    initial temperature
   TEBEG  =    0.0;   TEEND  =   0.0 temperature during run
   SMASS  =  -3.00    Nose mass-parameter (am)
   estimated Nose-frequenzy (Omega)   =  0.10E-29 period in steps = 0.13E+47 mass=  -0.745E-26a.u.
   SCALEE = 1.0000    scale energy and forces
   NPACO  =    256;   APACO  = 16.0  distance and # of slots for P.C.
   PSTRESS=    0.0 pullay stress

  Mass of Ions in am
   POMASS =   1.00 12.01 14.00126.90207.20
  Ionic Valenz
   ZVAL   =   1.00  4.00  5.00  7.00  4.00
  Atomic Wigner-Seitz radii
   RWIGS  =  -1.00 -1.00 -1.00 -1.00 -1.00
  virtual crystal weights 
   VCA    =   1.00  1.00  1.00  1.00  1.00
   NELECT =    1134.0000    total number of electrons
   NUPDOWN=      -1.0000    fix difference up-down

 DOS related values:
   EMIN   =  10.00;   EMAX   =-10.00  energy-range for DOS
   EFERMI =   0.00
   ISMEAR =     0;   SIGMA  =   0.05  broadening in eV -4-tet -1-fermi 0-gaus

 Electronic relaxation 2 (details)
   IALGO  =     38    algorithm
   LDIAG  =      T    sub-space diagonalisation (order eigenvalues)
   LSUBROT=      F    optimize rotation matrix (better conditioning)
   TURBO    =      0    0=normal 1=particle mesh
   IRESTART =      0    0=no restart 2=restart with 2 vectors
   NREBOOT  =      0    no. of reboots
   NMIN     =      0    reboot dimension
   EREF     =   0.00    reference energy to select bands
   IMIX   =      4    mixing-type and parameters
     AMIX     =   0.40;   BMIX     =  0.01
     AMIX_MAG =   1.60;   BMIX_MAG =  0.01
     AMIN     =   0.01
     WC   =   100.;   INIMIX=   1;  MIXPRE=   1;  MAXMIX= -45

 Intra band minimization:
   WEIMIN = 0.0000     energy-eigenvalue tresh-hold
   EBREAK =  0.34E-07  absolut break condition
   DEPER  =   0.30     relativ break condition  

   TIME   =   0.40     timestep for ELM

  volume/ion in A,a.u.               =      62.72       423.28
  Fermi-wavevector in a.u.,A,eV,Ry     =   0.624944  1.180972  5.313816  0.390554
  Thomas-Fermi vector in A             =   1.685677
 
 Write flags
   LWAVE        =      F    write WAVECAR
   LDOWNSAMPLE  =      F    k-point downsampling of WAVECAR
   LCHARG       =      T    write CHGCAR
   LVTOT        =      T    write LOCPOT, total local potential
   LVHAR        =      F    write LOCPOT, Hartree potential only
   LELF         =      F    write electronic localiz. function (ELF)
   LORBIT       =      0    0 simple, 1 ext, 2 COOP (PROOUT), +10 PAW based schemes


 Dipole corrections
   LMONO  =      F    monopole corrections only (constant potential shift)
   LDIPOL =      T    correct potential (dipole corrections)
   IDIPOL =      3    1-x, 2-y, 3-z, 4-all directions 
   EPSILON=  1.0000000 bulk dielectric constant

 Exchange correlation treatment:
   GGA     =    --    GGA type
   LEXCH   =     8    internal setting for exchange type
   VOSKOWN=      0    Vosko Wilk Nusair interpolation
   LHFCALC =     F    Hartree Fock is set to
   LHFONE  =     F    Hartree Fock one center treatment
   AEXX    =    0.0000 exact exchange contribution

 Linear response parameters
   LEPSILON=     F    determine dielectric tensor
   LRPA    =     F    only Hartree local field effects (RPA)
   LNABLA  =     F    use nabla operator in PAW spheres
   LVEL    =     F    velocity operator in full k-point grid
   LINTERFAST=   F  fast interpolation
   KINTER  =     0    interpolate to denser k-point grid
   CSHIFT  =0.1000    complex shift for real part using Kramers Kronig
   OMEGAMAX=  -1.0    maximum frequency
   DEG_THRESHOLD= 0.2000000E-02 threshold for treating states as degnerate
   RTIME   =   -0.100 relaxation time in fs
  (WPLASMAI=    0.000 imaginary part of plasma frequency in eV, 0.658/RTIME)
   DFIELD  = 0.0000000 0.0000000 0.0000000 field for delta impulse in time
 
 Orbital magnetization related:
   ORBITALMAG=     F  switch on orbital magnetization
   LCHIMAG   =     F  perturbation theory with respect to B field
   DQ        =  0.001000  dq finite difference perturbation B field
   LLRAUG    =     F  two centre corrections for induced B field



--------------------------------------------------------------------------------------------------------


 Static calculation
 charge density and potential will be updated during run
 non-spin polarized calculation
 Variant of blocked Davidson
 Davidson routine will perform the subspace rotation
 perform sub-space diagonalisation
    after iterative eigenvector-optimisation
 modified Broyden-mixing scheme, WC =      100.0
 initial mixing is a Kerker type mixing with AMIX =  0.4000 and BMIX =      0.0100
 Hartree-type preconditioning will be used
 using additional bands           165
 real space projection scheme for non local part
[...]
     13.54561      0.00000     45.35368         0.000954     -0.000525      0.011443
     13.54315      9.03140     45.35368         0.000653     -0.001338      0.010447
     14.36012     10.33895     33.36934        -0.255200     -0.179731     -0.291904
     13.38534      8.82764     33.29488         0.194084      0.331013      0.399487
     15.76428      9.15615     34.74529         0.456419     -0.166587     -0.476442
     15.27250      8.69651     36.31110         0.466811     -0.392786      0.652339
     13.55241     11.53710     35.77812        -0.417436      0.675529      0.010407
     14.48935     10.57198     36.85913         0.476080      0.499023     -0.092709
     11.99759      9.77186     35.97200        -0.580260      0.008117      0.090186
     12.28587      8.20031     35.27244         0.041800     -0.174508     -0.288679
     11.34173     10.11859     33.98418         0.089765     -0.256174      0.369224
     12.42603     11.54384     34.25068        -0.561494     -0.509250     -0.486289
     11.52262     12.07756     32.12393         0.220263     -0.771271      0.257717
     12.83889     11.06418     31.52790        -0.340054     -0.054522      0.527619
     14.62214      7.22174     33.68695         0.172093      0.046039     -0.170233
     13.74661      6.90933     35.15038        -0.841365     -0.150693      0.319339
     15.41510      6.69426     35.20792         0.073783     -0.261579     -0.178814
     15.71140     12.35030     35.58780         0.276551      0.566709     -0.237071
     15.53477     11.51412     34.05568        -0.211933     -0.019248     -0.184212
     16.47027     10.80270     35.39376         0.131907      0.046559     -0.166948
     13.93815      9.02039     37.65025        -0.271171     -0.154974     -0.200417
     13.31180      7.44148     37.13702         0.284445     -0.689180      0.272249
     12.29976      8.59845     37.90890        -1.133621     -0.005078      0.943091
      9.99480     10.07557     32.16694         0.507205     -0.212754     -0.480861
     10.63929     10.44712     30.54444         0.084226     -0.152727     -0.012664
     12.92319      9.07429     29.89274        -0.136822     -0.493389      0.284444
     10.42583      7.94813     33.14161        -1.098272      0.351580      0.832600
     13.93679      6.78882     29.93114        -0.508792      0.199500      0.437411
     11.41170      5.79211     33.25372        -0.104193     -0.354904      0.283116
     13.20860      5.14880     31.64017        -0.279936      0.273337     -0.014143
      0.08928      4.42424     34.69272         0.154820      0.104695     -1.324045
      0.03274     13.61270     34.75409         0.722531     -0.882998      0.494177
      9.02874      4.55107     34.69151         0.173606      0.246243     -0.364291
      8.98239     13.60664     34.78379         0.163598     -0.267160     -0.667688
      4.51995      9.03513     34.76240        -0.564571     -0.613038      1.075975
      4.50838      0.01206     34.70075        -0.473566     -0.466820      1.251039
     13.54733     17.99414     34.69759         0.341147      0.454746      1.166859
     18.02113      4.55478     40.45989         1.409865     -1.408218      1.845711
     17.98116     13.51554     40.53430         0.558065     -0.413724      2.085414
      9.03734      4.58504     40.56791         1.277733     -1.374413      0.638941
      9.03163     13.50731     40.45906        -0.130143      0.111351      0.313379
      4.45353      9.01268     40.57543         2.081745      1.453811      0.098641
      4.50636     18.05875     40.57430        -1.213590     -1.181231      0.548509
     13.62336      9.00406     40.59039        -0.662456     -0.612831      2.259202
     13.53978      0.06564     40.57247        -1.172025     -0.991629      0.477921
      9.02897      4.51561     46.44552         0.014720      0.000297      0.044177
      9.02651     13.54701     46.44552         0.002289      0.011474      0.040856
     18.05937      4.51561     46.44552         0.016831     -0.002632      0.045054
     18.05691     13.54701     46.44552         0.015133      0.002425      0.043390
      4.51521      0.00002     46.44421        -0.004299     -0.004868      0.047894
      4.51275      9.03142     46.44421         0.003861      0.003051      0.054812
     13.54561      0.00002     46.44421         0.007653      0.007001      0.051927
     13.54315      9.03142     46.44421        -0.008401     -0.010033      0.050402
     11.49541      8.66127     31.46291         0.408452      0.061792      0.040427
     12.55799      8.30684     30.61140        -0.582814      1.691894     -0.843677
     11.13258      7.70587     32.40795        -0.001010      0.559614     -0.797140
     13.11587      7.05015     30.63819         1.199197     -0.429863     -0.776899
     11.69627      6.46784     32.46437         0.528569     -0.823406      0.006716
     12.70139      6.12569     31.57807         0.519483     -1.105066     -0.072351
     13.49274      9.81371     33.79090         0.054102     -0.438579     -0.436502
     14.97054      8.67842     35.28638         0.183129      0.088163     -0.963767
     14.38671     10.86540     35.81062        -1.804546     -1.169241      0.595731
     12.70676      8.95428     35.92974        -0.793552      2.407732     -1.648333
     12.24746     10.62382     33.63909        -0.362609      0.964749     -0.360672
     11.92293     11.01985     32.17845         0.640678      1.020438     -0.370852
     14.64779      7.32504     34.77128         1.176206      0.307937     -0.017757
     15.58151     11.38132     35.13266         1.087045      0.160545      0.210072
     13.07967      8.47643     37.21875         1.135971      0.001681      1.064231
     10.92553     10.06037     31.53801        -0.542505     -0.006560      0.023854
      0.81643      3.61377     35.37394         0.587132     -0.641285     -0.550013
      0.82546     12.73820     35.36492        -0.724158      1.133027      0.930131
      9.94573      3.86109     35.28827         1.615449     -1.680368      0.441293
      9.68159     12.73859     35.43939         0.955187     -0.835102      0.774539
      8.20767      5.34725     35.29431        -0.536409      0.648745      1.222885
      8.19108     14.46762     35.31688        -0.523843      0.526398      1.743235
     17.34712      5.32004     35.18123         0.372094     -0.502891      1.148436
     17.34185     14.50912     35.34945         0.811414     -0.822541      0.751125
      3.73071      8.18646     35.36687        -0.864393     -0.936317     -1.035211
      3.67230     17.30405     35.35166        -0.970948     -0.922486     -1.041003
     12.75415     17.14741     35.26839        -1.213796     -1.182249     -0.859254
      5.39270      0.78202     35.24629         1.251898      1.244134     -0.915667
      5.32096      9.85936     35.35523         1.176807      1.292859     -0.915474
     14.29196      0.80960     35.32236         1.031499      0.921812     -1.073800
      0.76873      3.75578     41.21245        -0.756284      0.729725     -4.725375
      0.76698     12.69700     41.17064        -1.054629      0.987488     -0.953145
      9.87765      3.73798     41.18041        -1.036613      1.027133     -0.318372
      9.92033     12.70902     40.97129         0.781568     -0.693346      0.285210
      3.63608      8.23367     41.16774        -2.132470     -1.602862      1.493620
      3.66117     17.22717     41.18055         1.204659      1.205454      0.863257
     12.76968      8.18782     41.18925        -0.739160     -0.686505     -0.183115
     12.70490     17.27278     41.16616         1.182052      1.156908      0.845311
      8.20778      5.38094     41.16280        -0.570271      0.475757      1.122727
      8.19778     14.25441     41.14388        -0.120596      0.138238      0.686026
     17.17276      5.39357     40.95785        -0.688751      0.640037      0.418709
     17.19603     14.37840     41.15574         0.350281     -0.508956     -2.835961
      5.33549      0.80738     41.15212         0.550382      0.589005      1.266406
      5.33802      9.81339     41.16705        -1.185827     -0.957643      0.823902
     14.35258      0.87985     41.16235         0.554673      0.508992      1.313427
     14.41038      9.86078     41.19803         1.034264      0.794178     -3.547729
      0.82731      3.68697     47.03596         0.016301     -0.017200     -0.089245
      0.82485     12.71837     47.03596         0.016031     -0.023598     -0.088638
      9.85771      3.68697     47.03596         0.017341     -0.020813     -0.091369
      9.85525     12.71837     47.03596         0.027597     -0.026883     -0.084214
      3.68432      8.20234     47.03465        -0.014239     -0.013359     -0.075438
      3.68186     17.23373     47.03465        -0.008639     -0.008896     -0.072045
     12.71472      8.20234     47.03465        -0.007204     -0.005158     -0.079131
     12.71226     17.23373     47.03465        -0.014256     -0.017745     -0.073358
      8.20068      5.34457     47.03603        -0.020525      0.019740     -0.090716
      8.19822     14.37597     47.03603        -0.012153      0.012884     -0.089248
     17.23108      5.34457     47.03603        -0.020580      0.021987     -0.090425
     17.22862     14.37597     47.03603        -0.023770      0.015593     -0.088211
      5.34365      0.82909     47.03465         0.014161      0.012975     -0.069351
      5.34119      9.86049     47.03465         0.008739      0.005074     -0.073680
     14.37405      0.82909     47.03465         0.005601      0.005640     -0.074948
     14.37159      9.86049     47.03465         0.015585      0.017312     -0.072719
     13.87013      9.61842     35.24986        -0.974509     -1.545347     -2.834568
      8.95493     18.04385     34.60304         0.037027      0.055690     -0.177482
      8.90982      9.14542     34.60518        -0.739024      0.172559      0.428380
      0.10541     18.04302     34.55549        -0.045328      0.038805     -0.138702
      0.11757      8.91315     34.37981         0.939247     -0.174249      0.036240
      4.49414      4.53250     34.60231         0.008977     -0.011109     -0.242325
      4.49214     13.51961     34.60818         0.011729      0.002375     -0.156634
     13.64952      4.39736     34.60169        -0.159164     -1.260538     -0.085273
     13.43185     13.66423     34.37798        -0.168293      1.839697     -0.069324
     17.95079     18.03404     40.90623         0.058602      0.010836     -0.067690
      0.02374      8.91778     40.89033         0.017335      0.093346     -0.050699
      8.91917     18.04139     40.88588         0.075360     -0.016432      0.070207
      9.05358      8.99375     40.84443        -0.004460      0.011939      0.257988
      4.49807      4.53145     40.88342         0.005514      0.007054      0.067394
      4.49603     13.53043     40.90564        -0.012212     -0.004552      0.061012
     13.52590      4.53170     40.90593         0.002963     -0.028991     -0.013281
     13.56194     13.56668     40.83846        -0.005105      0.016804      0.129718
      2.56850      1.91471     37.92657         0.073298     -0.003783      0.074332
      2.56057     10.94307     37.89743         0.088857     -0.016531      0.082755
     11.59862      1.91385     37.92516         0.048303     -0.003606     -0.001543
     11.49799     11.07548     38.07155        -0.597757      1.047801      0.680842
      6.45976      7.11815     37.91595        -0.149329     -0.095811      0.050458
      6.42467     16.11504     37.90586         0.035207      0.095521      0.072491
     15.59318      6.98116     38.07457         1.445017     -1.238867      1.101040
     15.44745     16.10176     37.91416         0.046412      0.164919      0.046998
      1.91336      6.46338     37.92218         0.093836     -0.112796      0.030290
      1.90965     15.41667     37.91706        -0.088777      0.089956      0.059257
     10.84112      6.32766     38.03881        -0.437921     -0.532379     -0.056916
     10.97893     15.45835     37.92393        -0.176703      0.168684      0.044613
      7.08050      2.56089     37.93470         0.030647      0.002044      0.018240
      7.07853     11.59641     37.93285        -0.004698      0.009331      0.069187
     16.14785      2.56558     37.92959        -0.056979      0.018613      0.000464
     16.24469     11.73612     38.07723         0.786737      0.264804      1.718212
      0.00000      0.00000     47.17356        -0.003230     -0.000607      0.468571
     -0.00246      9.03140     47.17356        -0.001372      0.000861      0.394891
      9.03040      0.00000     47.17356         0.001514     -0.000210      0.438379
      9.02794      9.03140     47.17356         0.001336     -0.000166      0.409512
      4.51398      4.51570     47.17425         0.000100      0.002636      0.447140
      4.51152     13.54710     47.17425        -0.000876     -0.003227      0.478672
     13.54438      4.51570     47.17425        -0.000759      0.000620      0.471061
     13.54192     13.54710     47.17425         0.000707     -0.002015      0.337356
      2.45192      2.06295     44.04013         0.011957     -0.008072     -0.029094
      2.44946     11.09435     44.04013        -0.016104     -0.032509     -0.029645
     11.48232      2.06295     44.04013         0.004886     -0.011388     -0.028724
     11.47986     11.09435     44.04013         0.005055      0.022123     -0.068477
      6.57602      6.96845     44.04013         0.011311      0.005820     -0.025316
      6.57356     15.99985     44.04013         0.008496     -0.013225     -0.038189
     15.60642      6.96845     44.04013         0.026074     -0.007950     -0.052523
     15.60396     15.99985     44.04013        -0.044992     -0.016763     -0.005664
      2.06108      6.57881     44.04000        -0.008803      0.022404     -0.021499
      2.05862     15.61021     44.04000        -0.014686     -0.006300     -0.010227
     11.09148      6.57881     44.04000        -0.012679      0.004716     -0.019080
     11.08902     15.61021     44.04000         0.016525     -0.019364     -0.041487
      6.96686      2.45259     44.04007        -0.010501     -0.003958     -0.036899
      6.96440     11.48399     44.04007         0.019337     -0.015559     -0.032710
     15.99726      2.45259     44.04007        -0.015000      0.008148     -0.024443
     15.99481     11.48399     44.04007         0.013007      0.022857     -0.022398
      2.43163      2.08322     50.06849         0.011098     -0.008831      0.023804
      2.42917     11.11462     50.06849         0.002328     -0.018082      0.022171
     11.46203      2.08322     50.06849         0.008631     -0.012076      0.022950
     11.45957     11.11462     50.06849         0.016948     -0.004777      0.021752
      6.59631      6.94818     50.06849        -0.005611      0.014511      0.022662
      6.59385     15.97958     50.06849        -0.006839      0.011834      0.023709
     15.62671      6.94818     50.06849        -0.004593      0.016598      0.022216
     15.62425     15.97958     50.06849        -0.022300     -0.002591      0.022016
      2.08113      6.59901     50.06905        -0.015882     -0.003904      0.022329
      2.07867     15.63041     50.06905        -0.010969     -0.010826      0.023820
     11.11153      6.59901     50.06905        -0.014147     -0.005102      0.022736
     11.10907     15.63041     50.06905        -0.000444     -0.020210      0.022354
      6.94681      2.43239     50.06905         0.011723      0.009009      0.023740
      6.94435     11.46379     50.06905         0.016023      0.003507      0.023071
     15.97721      2.43239     50.06905         0.008539      0.010565      0.023192
     15.97475     11.46379     50.06905         0.005226      0.014514      0.021010
      0.01610      0.01844     37.66186        -0.011535     -0.120425      0.144142
      0.04589      9.01524     37.70959        -0.022698      0.113281     -0.150943
      9.04916      0.01809     37.70243        -0.113501     -0.030439      0.022280
      8.97564      9.01430     37.68002         0.035670      0.025802      0.116261
      4.53034      4.50002     37.67229        -0.023864      0.039315      0.119270
      4.52816     13.56273     37.69981        -0.049383     -0.088307     -0.008847
     13.52884      4.43988     37.64687         0.021066      0.047279      0.256649
     13.47684     13.64295     37.72853         0.177111     -0.090061     -0.126396
      0.00001      0.00001     44.04300         0.029131      0.008745     -0.007574
     -0.00245      9.03141     44.04300        -0.001763     -0.012407      0.082892
      9.03041      0.00001     44.04300        -0.018373     -0.003970     -0.008468
      9.02795      9.03141     44.04300        -0.007993      0.005263     -0.072370
      4.51397      4.51569     44.04275        -0.015074     -0.030628     -0.030065
      4.51151     13.54709     44.04275         0.004039      0.021059     -0.017988
     13.54437      4.51569     44.04275         0.007309      0.003334      0.001268
     13.54191     13.54709     44.04275        -0.009428      0.029638      0.044301
      0.00000      0.00000     50.44728         0.008027      0.004801     -0.643859
     -0.00246      9.03140     50.44728         0.006954     -0.006603     -0.621971
      9.03040      0.00000     50.44728        -0.007409      0.005796     -0.634871
      9.02794      9.03140     50.44728        -0.007568     -0.005331     -0.627109
      4.51397      4.51570     50.44728         0.000199     -0.007304     -0.637746
      4.51151     13.54710     50.44728        -0.000619      0.006468     -0.646757
     13.54437      4.51570     50.44728         0.000800     -0.006572     -0.643910
     13.54191     13.54710     50.44728        -0.000226      0.006085     -0.607565
 -----------------------------------------------------------------------------------
    total drift:                               -0.014612      0.109673      0.522538


--------------------------------------------------------------------------------------------------------



  FREE ENERGIE OF THE ION-ELECTRON SYSTEM (eV)
  ---------------------------------------------------
  free  energy   TOTEN  =     -1568.05509730 eV

  energy  without entropy=    -1568.05509730  energy(sigma->0) =    -1568.05509730
 


--------------------------------------------------------------------------------------------------------


    POTLOK:  cpu time    0.5043: real time    0.5042


--------------------------------------------------------------------------------------------------------


     LOOP+:  cpu time  347.5775: real time  348.1214
 vacuum level on the upper side and lower side of the slab         2.406         1.488
    4ORBIT:  cpu time    0.0000: real time    0.0000

 total amount of memory used by VASP MPI-rank0  8653560. kBytes
=======================================================================

   base      :      30000. kBytes
   nonlr-proj:      53598. kBytes
   fftplans  :     249280. kBytes
   grid      :     701440. kBytes
   one-center:       2636. kBytes
   wavefun   :    7616606. kBytes
 
  
  
 General timing and accounting informations for this job:
 ========================================================
  
                  Total CPU time used (sec):      561.765
                            User time (sec):      449.045
                          System time (sec):      112.720
                         Elapsed time (sec):      565.113
  
                   Maximum memory used (kb):    10352564.
                   Average memory used (kb):          N/A
  
                          Minor page faults:      3898133
                          Major page faults:           13
                 Voluntary context switches:        11578
