<?xml version="1.0" encoding="ISO-8859-1"?>
<modeling>
 <generator>
  <i name="program" type="string">vasp </i>
  <i name="version" type="string">6.2.1  </i>
  <i name="subversion" type="string">16May21 (build Nov 15 2021 14:57:28) complex                          parallel </i>
  <i name="platform" type="string">LinuxPGI </i>
  <i name="date" type="string">2023 07 24 </i>
  <i name="time" type="string">20:45:32 </i>
 </generator>
 <incar>
  <i type="string" name="SYSTEM">PSC</i>
  <i type="int" name="ISTART">     1</i>
  <i type="string" name="PREC">Normal</i>
  <i name="BMIX">      0.01000000</i>
  <i name="AMIN">      0.01000000</i>
  <i type="int" name="ICHARG">     1</i>
  <i type="int" name="NELM">   600</i>
  <i type="int" name="ISYM">     0</i>
  <i name="ENCUT">    500.00000000</i>
  <i type="string" name="LREAL">Auto</i>
  <i type="int" name="ISMEAR">     0</i>
  <i name="SIGMA">      0.05000000</i>
  <i type="logical" name="LWAVE"> F  </i>
  <i type="logical" name="LVTOT"> T  </i>
  <i type="logical" name="GGA_COMPAT"> F  </i>
  <i type="logical" name="LDIPOL"> T  </i>
  <i type="int" name="IDIPOL">     3</i>
  <i type="int" name="IVDW">    12</i>
 </incar>
 <primitive_cell>
  <structure name="primitive_cell" >
   <crystal>
    <varray name="basis" >
     <v>      18.06080055       0.00000000       0.00000000 </v>
     <v>      -0.00491865      18.06279945       0.00000000 </v>
     <v>       0.00000000       0.00000000      62.48749924 </v>
    </varray>
    <i name="volume">  20385.21054034 </i>
    <varray name="rec_basis" >
     <v>       0.05536853       0.00001508      -0.00000000 </v>
     <v>       0.00000000       0.05536240       0.00000000 </v>
     <v>       0.00000000      -0.00000000       0.01600320 </v>
    </varray>
   </crystal>
   <varray name="positions" >
    <v>       0.45555997       0.30466268       0.58121391 </v>
    <v>       0.44596334       0.80756267       0.58156523 </v>
    <v>       0.95437874       0.30189098       0.57935672 </v>
    <v>       0.96183084       0.80885822       0.58215892 </v>
    <v>       0.30685357       0.04844754       0.57990847 </v>
    <v>       0.30061438       0.55040132       0.58175949 </v>
    <v>       0.79311330       0.05106796       0.58127642 </v>
    <v>       0.07928880       0.16228472       0.55962066 </v>
    <v>       0.07739023       0.66769184       0.55835661 </v>
    <v>       0.58494793       0.17707989       0.55639461 </v>
    <v>       0.56996396       0.67105035       0.55889529 </v>
    <v>       0.33293406       0.07538314       0.55441881 </v>
    <v>       0.32755989       0.58132029       0.55672530 </v>
    <v>       0.82533018       0.08079695       0.55662110 </v>
    <v>       0.04381625       0.19805002       0.58169026 </v>
    <v>       0.05397269       0.70603047       0.58237985 </v>
    <v>       0.55852946       0.21308824       0.58117490 </v>
    <v>       0.54110306       0.70086078       0.58357913 </v>
    <v>       0.20269558       0.44745747       0.58197523 </v>
    <v>       0.20128112       0.95365498       0.58179508 </v>
    <v>       0.69895136       0.94495130       0.58030454 </v>
    <v>       0.41726371       0.32574485       0.55645963 </v>
    <v>       0.42593811       0.83649755       0.55617777 </v>
    <v>       0.93307774       0.32496696       0.55251334 </v>
    <v>       0.92587723       0.83450365       0.55705447 </v>
    <v>       0.17250942       0.41820979       0.55706265 </v>
    <v>       0.16564979       0.92519309       0.55740549 </v>
    <v>       0.67597752       0.91249162       0.55507977 </v>
    <v>       0.49743478       0.25100619       0.53796875 </v>
    <v>       0.50147825       0.75233147       0.53929317 </v>
    <v>       0.01114857       0.24098910       0.53785990 </v>
    <v>       0.00149253       0.75068523       0.53897365 </v>
    <v>       0.24846543       0.49995491       0.53954560 </v>
    <v>       0.24650523       0.00020754       0.53861066 </v>
    <v>       0.75344137       0.99488319       0.53854808 </v>
    <v>       0.44730233       0.30307822       0.67516855 </v>
    <v>       0.45095471       0.79188930       0.67502314 </v>
    <v>       0.94477917       0.30464813       0.67174575 </v>
    <v>       0.94744848       0.80218612       0.67407299 </v>
    <v>       0.30218363       0.05138772       0.67497192 </v>
    <v>       0.30093338       0.54890097       0.67524144 </v>
    <v>       0.80150472       0.05450844       0.67516196 </v>
    <v>       0.80266526       0.55540929       0.67469452 </v>
    <v>       0.07682123       0.17412018       0.65064027 </v>
    <v>       0.07357137       0.66846247       0.65007607 </v>
    <v>       0.57993030       0.17561019       0.64982150 </v>
    <v>       0.58308594       0.67350344       0.64517250 </v>
    <v>       0.16446615       0.42540152       0.64991631 </v>
    <v>       0.17029730       0.92154744       0.65028674 </v>
    <v>       0.67287082       0.41563460       0.65061670 </v>
    <v>       0.67146624       0.92409088       0.64991808 </v>
    <v>       0.04500447       0.20558556       0.67501874 </v>
    <v>       0.04843472       0.69830553       0.67487748 </v>
    <v>       0.55401092       0.20151776       0.67520500 </v>
    <v>       0.55584392       0.69780702       0.67198981 </v>
    <v>       0.19201039       0.45142870       0.67524510 </v>
    <v>       0.19802000       0.94886327       0.67548417 </v>
    <v>       0.70001871       0.45113842       0.67561334 </v>
    <v>       0.69900488       0.95031611       0.67522996 </v>
    <v>       0.42176320       0.33116211       0.64985123 </v>
    <v>       0.41764274       0.82192507       0.65066621 </v>
    <v>       0.91873086       0.33039786       0.64521645 </v>
    <v>       0.91904570       0.82752691       0.64918984 </v>
    <v>       0.32844239       0.07719221       0.64951022 </v>
    <v>       0.32984549       0.57336843       0.64991014 </v>
    <v>       0.82708736       0.08228538       0.64981570 </v>
    <v>       0.83267444       0.57800676       0.64890317 </v>
    <v>       0.00119514       0.24885070       0.63034782 </v>
    <v>       0.99167542       0.74378732       0.63156095 </v>
    <v>       0.50247404       0.25530179       0.63183182 </v>
    <v>       0.49943201       0.74866266       0.63025240 </v>
    <v>       0.24928476       0.99925993       0.63212973 </v>
    <v>       0.24789840       0.49590438       0.63215500 </v>
    <v>       0.74810704       0.00667399       0.63211001 </v>
    <v>       0.75881754       0.49405218       0.63296382 </v>
    <v>       0.44874502       0.30128397       0.76888902 </v>
    <v>       0.44874501       0.80128391       0.76888902 </v>
    <v>       0.94874497       0.30128397       0.76888902 </v>
    <v>       0.94874501       0.80128391       0.76888902 </v>
    <v>       0.30127600       0.05129450       0.76887296 </v>
    <v>       0.30127601       0.55129450       0.76887296 </v>
    <v>       0.80127594       0.05129450       0.76887296 </v>
    <v>       0.80127598       0.55129450       0.76887296 </v>
    <v>       0.07877100       0.17118050       0.74344197 </v>
    <v>       0.07877101       0.67118045       0.74344197 </v>
    <v>       0.57877100       0.17118050       0.74344197 </v>
    <v>       0.57877099       0.67118045       0.74344197 </v>
    <v>       0.17119950       0.42117448       0.74342103 </v>
    <v>       0.17119950       0.92117451       0.74342103 </v>
    <v>       0.67119951       0.42117448       0.74342103 </v>
    <v>       0.67119950       0.92117451       0.74342103 </v>
    <v>       0.05125600       0.19871499       0.76888902 </v>
    <v>       0.05125600       0.69871493       0.76888902 </v>
    <v>       0.55125603       0.19871499       0.76888902 </v>
    <v>       0.55125602       0.69871493       0.76888902 </v>
    <v>       0.19872349       0.44870397       0.76887205 </v>
    <v>       0.19872349       0.94870397       0.76887205 </v>
    <v>       0.69872352       0.44870397       0.76887205 </v>
    <v>       0.69872351       0.94870397       0.76887205 </v>
    <v>       0.42123152       0.32881747       0.74344197 </v>
    <v>       0.42123151       0.82881744       0.74344197 </v>
    <v>       0.92123147       0.32881747       0.74344197 </v>
    <v>       0.92123151       0.82881744       0.74344197 </v>
    <v>       0.32880050       0.07882500       0.74342103 </v>
    <v>       0.32880049       0.57882496       0.74342103 </v>
    <v>       0.82880048       0.07882500       0.74342103 </v>
    <v>       0.82880052       0.57882496       0.74342103 </v>
    <v>       0.00000350       0.25000148       0.72582199 </v>
    <v>       0.00000350       0.75000145       0.72582199 </v>
    <v>       0.50000351       0.25000148       0.72582199 </v>
    <v>       0.50000350       0.75000145       0.72582199 </v>
    <v>       0.25000050       0.00000000       0.72580398 </v>
    <v>       0.25000052       0.50000000       0.72580398 </v>
    <v>       0.75000050       0.00000000       0.72580398 </v>
    <v>       0.75000049       0.50000000       0.72580398 </v>
    <v>       0.79525457       0.57238924       0.53401617 </v>
    <v>       0.74125991       0.48871914       0.53282471 </v>
    <v>       0.87298331       0.50690673       0.55603577 </v>
    <v>       0.84574675       0.48145988       0.58109376 </v>
    <v>       0.75055073       0.63872174       0.57256447 </v>
    <v>       0.80241339       0.58529015       0.58986407 </v>
    <v>       0.66443622       0.54099388       0.57566720 </v>
    <v>       0.68037446       0.45398865       0.56447191 </v>
    <v>       0.62812724       0.56018949       0.54385573 </v>
    <v>       0.68818519       0.63909481       0.54812056 </v>
    <v>       0.63817239       0.66864267       0.51408573 </v>
    <v>       0.71103704       0.61253983       0.50454730 </v>
    <v>       0.80971509       0.39981298       0.53909904 </v>
    <v>       0.76123397       0.38251703       0.56251864 </v>
    <v>       0.85361238       0.37061039       0.56343948 </v>
    <v>       0.87010346       0.68374239       0.56951876 </v>
    <v>       0.86031111       0.63744926       0.54499994 </v>
    <v>       0.91209744       0.59806339       0.56641340 </v>
    <v>       0.77187113       0.49939050       0.60252450 </v>
    <v>       0.73716728       0.41197831       0.59431113 </v>
    <v>       0.68114944       0.47603079       0.60666376 </v>
    <v>       0.55354950       0.55780773       0.51477404 </v>
    <v>       0.58923926       0.57837761       0.48880883 </v>
    <v>       0.71567487       0.50237468       0.47837956 </v>
    <v>       0.57738294       0.44002767       0.53037189 </v>
    <v>       0.77176176       0.37584536       0.47899406 </v>
    <v>       0.63193652       0.32066516       0.53216589 </v>
    <v>       0.73141863       0.28504968       0.50634392 </v>
    <v>       0.00501017       0.24493630       0.55519454 </v>
    <v>       0.00201799       0.75363187       0.55617661 </v>
    <v>       0.49997653       0.25195795       0.55517513 </v>
    <v>       0.49754707       0.75329624       0.55665193 </v>
    <v>       0.25039927       0.50020670       0.55630969 </v>
    <v>       0.24962256       0.00066767       0.55532305 </v>
    <v>       0.75036687       0.99619876       0.55527250 </v>
    <v>       0.99787193       0.25216370       0.64748772 </v>
    <v>       0.99579410       0.74825306       0.64867851 </v>
    <v>       0.50045354       0.25383897       0.64921646 </v>
    <v>       0.50027182       0.74779736       0.64747441 </v>
    <v>       0.24672150       0.49896385       0.64933678 </v>
    <v>       0.24978300       0.99977586       0.64931865 </v>
    <v>       0.75444101       0.49848618       0.64957609 </v>
    <v>       0.74967870       0.00363418       0.64928935 </v>
    <v>       0.49998898       0.24999498       0.74327702 </v>
    <v>       0.49998903       0.74999496       0.74327702 </v>
    <v>       0.99998898       0.24999498       0.74327702 </v>
    <v>       0.99998903       0.74999496       0.74327702 </v>
    <v>       0.25000050       0.00000100       0.74325596 </v>
    <v>       0.25000052       0.50000100       0.74325596 </v>
    <v>       0.75000050       0.00000100       0.74325596 </v>
    <v>       0.75000049       0.50000100       0.74325596 </v>
    <v>       0.63661450       0.47950900       0.50350726 </v>
    <v>       0.69544250       0.45988663       0.48988033 </v>
    <v>       0.61651072       0.42661552       0.51863089 </v>
    <v>       0.72631268       0.39031319       0.49030904 </v>
    <v>       0.64770307       0.35807502       0.51953384 </v>
    <v>       0.70334952       0.33913300       0.50535016 </v>
    <v>       0.74722141       0.54331038       0.54076252 </v>
    <v>       0.82902766       0.48045793       0.56469510 </v>
    <v>       0.79673462       0.60153468       0.57308453 </v>
    <v>       0.70368977       0.49573051       0.57499086 </v>
    <v>       0.67828407       0.58816034       0.53833308 </v>
    <v>       0.66032131       0.61008548       0.51495816 </v>
    <v>       0.81113701       0.40553166       0.55645181 </v>
    <v>       0.86289669       0.63009739       0.56223501 </v>
    <v>       0.72433002       0.46927543       0.59561919 </v>
    <v>       0.60508242       0.55696645       0.50470913 </v>
    <v>       0.04525929       0.20006719       0.56609626 </v>
    <v>       0.04589680       0.70521733       0.56595188 </v>
    <v>       0.55073879       0.21375896       0.56472520 </v>
    <v>       0.53624722       0.70523887       0.56714371 </v>
    <v>       0.45452743       0.29603640       0.56482189 </v>
    <v>       0.45374621       0.80096222       0.56518311 </v>
    <v>       0.96056489       0.29452995       0.56301233 </v>
    <v>       0.96041175       0.80325997       0.56570433 </v>
    <v>       0.20668722       0.45322203       0.56598314 </v>
    <v>       0.20359055       0.95799353       0.56573974 </v>
    <v>       0.70643687       0.94932177       0.56440708 </v>
    <v>       0.29859781       0.04329469       0.56405349 </v>
    <v>       0.29476224       0.54583812       0.56579682 </v>
    <v>       0.79133687       0.04482113       0.56527078 </v>
    <v>       0.04261999       0.20792898       0.65953108 </v>
    <v>       0.04265812       0.70293652       0.65886194 </v>
    <v>       0.54696729       0.20694354       0.65901835 </v>
    <v>       0.54946588       0.70360167       0.65567179 </v>
    <v>       0.20144858       0.45583557       0.65881567 </v>
    <v>       0.20297328       0.95373771       0.65902061 </v>
    <v>       0.70716161       0.45329742       0.65915979 </v>
    <v>       0.70371225       0.95626270       0.65879034 </v>
    <v>       0.45453395       0.29790159       0.65873661 </v>
    <v>       0.45411420       0.78915818       0.65843382 </v>
    <v>       0.95091207       0.29860121       0.65545666 </v>
    <v>       0.95233572       0.79602278       0.65862355 </v>
    <v>       0.29543040       0.04469854       0.65856568 </v>
    <v>       0.29570625       0.54329311       0.65880462 </v>
    <v>       0.79469465       0.04871078       0.65872929 </v>
    <v>       0.79803022       0.54591658       0.65930039 </v>
    <v>       0.04586250       0.20411950       0.75272599 </v>
    <v>       0.04586250       0.70411946       0.75272599 </v>
    <v>       0.54586251       0.20411950       0.75272599 </v>
    <v>       0.54586250       0.70411946       0.75272599 </v>
    <v>       0.20411900       0.45410100       0.75270499 </v>
    <v>       0.20411899       0.95410095       0.75270499 </v>
    <v>       0.70411898       0.45410100       0.75270499 </v>
    <v>       0.70411896       0.95410095       0.75270499 </v>
    <v>       0.45414002       0.29588849       0.75272697 </v>
    <v>       0.45414001       0.79588852       0.75272697 </v>
    <v>       0.95414002       0.29588849       0.75272697 </v>
    <v>       0.95414006       0.79588852       0.75272697 </v>
    <v>       0.29588249       0.04590050       0.75270499 </v>
    <v>       0.29588248       0.54590053       0.75270499 </v>
    <v>       0.79588244       0.04590050       0.75270499 </v>
    <v>       0.79588248       0.54590053       0.75270499 </v>
    <v>       0.76811351       0.53249878       0.56411063 </v>
    <v>       0.49609320       0.99895110       0.55375938 </v>
    <v>       0.49346146       0.50631260       0.55379363 </v>
    <v>       0.00610824       0.99890513       0.55299848 </v>
    <v>       0.00664410       0.49345335       0.55018701 </v>
    <v>       0.24890222       0.25093019       0.55374778 </v>
    <v>       0.24892684       0.74847808       0.55384161 </v>
    <v>       0.75582017       0.24344852       0.55373783 </v>
    <v>       0.74390764       0.75648448       0.55015765 </v>
    <v>       0.99418052       0.99840792       0.65463057 </v>
    <v>       0.00144867       0.49370963       0.65437618 </v>
    <v>       0.49411319       0.99881449       0.65430500 </v>
    <v>       0.50141920       0.49791560       0.65364166 </v>
    <v>       0.24912010       0.25087222       0.65426550 </v>
    <v>       0.24914241       0.74907718       0.65462123 </v>
    <v>       0.74897733       0.25088584       0.65462575 </v>
    <v>       0.75110947       0.75108407       0.65354612 </v>
    <v>       0.14224305       0.10600292       0.60694659 </v>
    <v>       0.14194015       0.60583490       0.60648019 </v>
    <v>       0.64222764       0.10595507       0.60692388 </v>
    <v>       0.63679363       0.61316533       0.60926670 </v>
    <v>       0.35777478       0.39407772       0.60677664 </v>
    <v>       0.35596731       0.89216734       0.60661510 </v>
    <v>       0.86347698       0.38649355       0.60931492 </v>
    <v>       0.85554558       0.89143198       0.60674788 </v>
    <v>       0.10603764       0.35782830       0.60687633 </v>
    <v>       0.10596690       0.85350401       0.60679428 </v>
    <v>       0.60035223       0.35031461       0.60874273 </v>
    <v>       0.60812043       0.85581169       0.60690435 </v>
    <v>       0.39207561       0.14177684       0.60707656 </v>
    <v>       0.39210262       0.64200518       0.60704701 </v>
    <v>       0.89412153       0.14203655       0.60699482 </v>
    <v>       0.89962147       0.64973983       0.60935754 </v>
    <v>       0.00000000       0.00000000       0.75492797 </v>
    <v>       0.00000000       0.50000000       0.75492797 </v>
    <v>       0.50000000       0.00000000       0.75492797 </v>
    <v>       0.49999999       0.50000000       0.75492797 </v>
    <v>       0.25000050       0.25000000       0.75493902 </v>
    <v>       0.25000051       0.74999997       0.75493902 </v>
    <v>       0.75000047       0.25000000       0.75493902 </v>
    <v>       0.75000046       0.74999997       0.75493902 </v>
    <v>       0.13579050       0.11421000       0.70478299 </v>
    <v>       0.13579050       0.61420998       0.70478299 </v>
    <v>       0.63579045       0.11421000       0.70478299 </v>
    <v>       0.63579049       0.61420998       0.70478299 </v>
    <v>       0.36420952       0.38578999       0.70478299 </v>
    <v>       0.36420950       0.88578996       0.70478299 </v>
    <v>       0.86420954       0.38578999       0.70478299 </v>
    <v>       0.86420953       0.88578996       0.70478299 </v>
    <v>       0.11421799       0.36421899       0.70478098 </v>
    <v>       0.11421799       0.86421899       0.70478098 </v>
    <v>       0.61421800       0.36421899       0.70478098 </v>
    <v>       0.61421799       0.86421899       0.70478098 </v>
    <v>       0.38578201       0.13578149       0.70478202 </v>
    <v>       0.38578200       0.63578149       0.70478202 </v>
    <v>       0.88578199       0.13578149       0.70478202 </v>
    <v>       0.88578203       0.63578149       0.70478202 </v>
    <v>       0.13466700       0.11533200       0.80125603 </v>
    <v>       0.13466699       0.61533199       0.80125603 </v>
    <v>       0.63466699       0.11533200       0.80125603 </v>
    <v>       0.63466698       0.61533199       0.80125603 </v>
    <v>       0.36533300       0.38466799       0.80125603 </v>
    <v>       0.36533299       0.88466796       0.80125603 </v>
    <v>       0.86533295       0.38466799       0.80125603 </v>
    <v>       0.86533294       0.88466796       0.80125603 </v>
    <v>       0.11532850       0.36533700       0.80126500 </v>
    <v>       0.11532850       0.86533698       0.80126500 </v>
    <v>       0.61532850       0.36533700       0.80126500 </v>
    <v>       0.61532849       0.86533698       0.80126500 </v>
    <v>       0.38467151       0.13466300       0.80126500 </v>
    <v>       0.38467150       0.63466297       0.80126500 </v>
    <v>       0.88467149       0.13466300       0.80126500 </v>
    <v>       0.88467153       0.63466297       0.80126500 </v>
    <v>       0.00089172       0.00102105       0.60271027 </v>
    <v>       0.00267674       0.49910545       0.60347410 </v>
    <v>       0.50103876       0.00100127       0.60335957 </v>
    <v>       0.49710414       0.49905350       0.60300098 </v>
    <v>       0.25090608       0.24913198       0.60287717 </v>
    <v>       0.25092209       0.75086506       0.60331763 </v>
    <v>       0.74913921       0.24580240       0.60247042 </v>
    <v>       0.74639843       0.75530651       0.60377732 </v>
    <v>       0.00000050       0.00000050       0.70482896 </v>
    <v>       0.00000050       0.50000048       0.70482896 </v>
    <v>       0.50000048       0.00000050       0.70482896 </v>
    <v>       0.50000046       0.50000048       0.70482896 </v>
    <v>       0.24999999       0.24999947       0.70482499 </v>
    <v>       0.25000001       0.74999950       0.70482499 </v>
    <v>       0.74999999       0.24999947       0.70482499 </v>
    <v>       0.74999998       0.74999950       0.70482499 </v>
    <v>       0.00000000       0.00000000       0.80731797 </v>
    <v>       0.00000000       0.50000000       0.80731797 </v>
    <v>       0.50000000       0.00000000       0.80731797 </v>
    <v>       0.49999999       0.50000000       0.80731797 </v>
    <v>       0.24999999       0.25000000       0.80731797 </v>
    <v>       0.25000001       0.74999997       0.80731797 </v>
    <v>       0.74999999       0.25000000       0.80731797 </v>
    <v>       0.74999998       0.74999997       0.80731797 </v>
   </varray>
  </structure>
  <varray name="primitive_index" >
   <v type="int" >        1 </v>
   <v type="int" >        2 </v>
   <v type="int" >        3 </v>
   <v type="int" >        4 </v>
   <v type="int" >        5 </v>
   <v type="int" >        6 </v>
   <v type="int" >        7 </v>
   <v type="int" >        8 </v>
   <v type="int" >        9 </v>
   <v type="int" >       10 </v>
   <v type="int" >       11 </v>
   <v type="int" >       12 </v>
   <v type="int" >       13 </v>
   <v type="int" >       14 </v>
   <v type="int" >       15 </v>
   <v type="int" >       16 </v>
   <v type="int" >       17 </v>
   <v type="int" >       18 </v>
   <v type="int" >       19 </v>
   <v type="int" >       20 </v>
   <v type="int" >       21 </v>
   <v type="int" >       22 </v>
   <v type="int" >       23 </v>
   <v type="int" >       24 </v>
   <v type="int" >       25 </v>
   <v type="int" >       26 </v>
   <v type="int" >       27 </v>
   <v type="int" >       28 </v>
   <v type="int" >       29 </v>
   <v type="int" >       30 </v>
   <v type="int" >       31 </v>
   <v type="int" >       32 </v>
   <v type="int" >       33 </v>
   <v type="int" >       34 </v>
   <v type="int" >       35 </v>
   <v type="int" >       36 </v>
   <v type="int" >       37 </v>
   <v type="int" >       38 </v>
   <v type="int" >       39 </v>
   <v type="int" >       40 </v>
   <v type="int" >       41 </v>
   <v type="int" >       42 </v>
   <v type="int" >       43 </v>
   <v type="int" >       44 </v>
   <v type="int" >       45 </v>
   <v type="int" >       46 </v>
   <v type="int" >       47 </v>
   <v type="int" >       48 </v>
   <v type="int" >       49 </v>
   <v type="int" >       50 </v>
   <v type="int" >       51 </v>
   <v type="int" >       52 </v>
   <v type="int" >       53 </v>
   <v type="int" >       54 </v>
   <v type="int" >       55 </v>
   <v type="int" >       56 </v>
   <v type="int" >       57 </v>
   <v type="int" >       58 </v>
   <v type="int" >       59 </v>
   <v type="int" >       60 </v>
   <v type="int" >       61 </v>
   <v type="int" >       62 </v>
   <v type="int" >       63 </v>
   <v type="int" >       64 </v>
   <v type="int" >       65 </v>
   <v type="int" >       66 </v>
   <v type="int" >       67 </v>
   <v type="int" >       68 </v>
   <v type="int" >       69 </v>
   <v type="int" >       70 </v>
   <v type="int" >       71 </v>
   <v type="int" >       72 </v>
   <v type="int" >       73 </v>
   <v type="int" >       74 </v>
   <v type="int" >       75 </v>
   <v type="int" >       76 </v>
   <v type="int" >       77 </v>
   <v type="int" >       78 </v>
   <v type="int" >       79 </v>
   <v type="int" >       80 </v>
   <v type="int" >       81 </v>
   <v type="int" >       82 </v>
   <v type="int" >       83 </v>
   <v type="int" >       84 </v>
   <v type="int" >       85 </v>
   <v type="int" >       86 </v>
   <v type="int" >       87 </v>
   <v type="int" >       88 </v>
   <v type="int" >       89 </v>
   <v type="int" >       90 </v>
   <v type="int" >       91 </v>
   <v type="int" >       92 </v>
   <v type="int" >       93 </v>
   <v type="int" >       94 </v>
   <v type="int" >       95 </v>
   <v type="int" >       96 </v>
   <v type="int" >       97 </v>
   <v type="int" >       98 </v>
   <v type="int" >       99 </v>
   <v type="int" >      100 </v>
   <v type="int" >      101 </v>
   <v type="int" >      102 </v>
   <v type="int" >      103 </v>
   <v type="int" >      104 </v>
   <v type="int" >      105 </v>
   <v type="int" >      106 </v>
   <v type="int" >      107 </v>
   <v type="int" >      108 </v>
   <v type="int" >      109 </v>
   <v type="int" >      110 </v>
   <v type="int" >      111 </v>
   <v type="int" >      112 </v>
   <v type="int" >      113 </v>
   <v type="int" >      114 </v>
   <v type="int" >      115 </v>
   <v type="int" >      116 </v>
   <v type="int" >      117 </v>
   <v type="int" >      118 </v>
   <v type="int" >      119 </v>
   <v type="int" >      120 </v>
   <v type="int" >      121 </v>
   <v type="int" >      122 </v>
   <v type="int" >      123 </v>
   <v type="int" >      124 </v>
   <v type="int" >      125 </v>
   <v type="int" >      126 </v>
   <v type="int" >      127 </v>
   <v type="int" >      128 </v>
   <v type="int" >      129 </v>
   <v type="int" >      130 </v>
   <v type="int" >      131 </v>
   <v type="int" >      132 </v>
   <v type="int" >      133 </v>
   <v type="int" >      134 </v>
   <v type="int" >      135 </v>
   <v type="int" >      136 </v>
   <v type="int" >      137 </v>
   <v type="int" >      138 </v>
   <v type="int" >      139 </v>
   <v type="int" >      140 </v>
   <v type="int" >      141 </v>
   <v type="int" >      142 </v>
   <v type="int" >      143 </v>
   <v type="int" >      144 </v>
   <v type="int" >      145 </v>
   <v type="int" >      146 </v>
   <v type="int" >      147 </v>
   <v type="int" >      148 </v>
   <v type="int" >      149 </v>
   <v type="int" >      150 </v>
   <v type="int" >      151 </v>
   <v type="int" >      152 </v>
   <v type="int" >      153 </v>
   <v type="int" >      154 </v>
   <v type="int" >      155 </v>
   <v type="int" >      156 </v>
   <v type="int" >      157 </v>
   <v type="int" >      158 </v>
   <v type="int" >      159 </v>
   <v type="int" >      160 </v>
   <v type="int" >      161 </v>
   <v type="int" >      162 </v>
   <v type="int" >      163 </v>
   <v type="int" >      164 </v>
   <v type="int" >      165 </v>
   <v type="int" >      166 </v>
   <v type="int" >      167 </v>
   <v type="int" >      168 </v>
   <v type="int" >      169 </v>
   <v type="int" >      170 </v>
   <v type="int" >      171 </v>
   <v type="int" >      172 </v>
   <v type="int" >      173 </v>
   <v type="int" >      174 </v>
   <v type="int" >      175 </v>
   <v type="int" >      176 </v>
   <v type="int" >      177 </v>
   <v type="int" >      178 </v>
   <v type="int" >      179 </v>
   <v type="int" >      180 </v>
   <v type="int" >      181 </v>
   <v type="int" >      182 </v>
   <v type="int" >      183 </v>
   <v type="int" >      184 </v>
   <v type="int" >      185 </v>
   <v type="int" >      186 </v>
   <v type="int" >      187 </v>
   <v type="int" >      188 </v>
   <v type="int" >      189 </v>
   <v type="int" >      190 </v>
   <v type="int" >      191 </v>
   <v type="int" >      192 </v>
   <v type="int" >      193 </v>
   <v type="int" >      194 </v>
   <v type="int" >      195 </v>
   <v type="int" >      196 </v>
   <v type="int" >      197 </v>
   <v type="int" >      198 </v>
   <v type="int" >      199 </v>
   <v type="int" >      200 </v>
   <v type="int" >      201 </v>
   <v type="int" >      202 </v>
   <v type="int" >      203 </v>
   <v type="int" >      204 </v>
   <v type="int" >      205 </v>
   <v type="int" >      206 </v>
   <v type="int" >      207 </v>
   <v type="int" >      208 </v>
   <v type="int" >      209 </v>
   <v type="int" >      210 </v>
   <v type="int" >      211 </v>
   <v type="int" >      212 </v>
   <v type="int" >      213 </v>
   <v type="int" >      214 </v>
   <v type="int" >      215 </v>
   <v type="int" >      216 </v>
   <v type="int" >      217 </v>
   <v type="int" >      218 </v>
   <v type="int" >      219 </v>
   <v type="int" >      220 </v>
   <v type="int" >      221 </v>
   <v type="int" >      222 </v>
   <v type="int" >      223 </v>
   <v type="int" >      224 </v>
   <v type="int" >      225 </v>
   <v type="int" >      226 </v>
   <v type="int" >      227 </v>
   <v type="int" >      228 </v>
   <v type="int" >      229 </v>
   <v type="int" >      230 </v>
   <v type="int" >      231 </v>
   <v type="int" >      232 </v>
   <v type="int" >      233 </v>
   <v type="int" >      234 </v>
   <v type="int" >      235 </v>
   <v type="int" >      236 </v>
   <v type="int" >      237 </v>
   <v type="int" >      238 </v>
   <v type="int" >      239 </v>
   <v type="int" >      240 </v>
   <v type="int" >      241 </v>
   <v type="int" >      242 </v>
   <v type="int" >      243 </v>
   <v type="int" >      244 </v>
   <v type="int" >      245 </v>
   <v type="int" >      246 </v>
   <v type="int" >      247 </v>
   <v type="int" >      248 </v>
   <v type="int" >      249 </v>
   <v type="int" >      250 </v>
   <v type="int" >      251 </v>
   <v type="int" >      252 </v>
   <v type="int" >      253 </v>
   <v type="int" >      254 </v>
   <v type="int" >      255 </v>
   <v type="int" >      256 </v>
   <v type="int" >      257 </v>
   <v type="int" >      258 </v>
   <v type="int" >      259 </v>
   <v type="int" >      260 </v>
   <v type="int" >      261 </v>
   <v type="int" >      262 </v>
   <v type="int" >      263 </v>
   <v type="int" >      264 </v>
   <v type="int" >      265 </v>
   <v type="int" >      266 </v>
   <v type="int" >      267 </v>
   <v type="int" >      268 </v>
   <v type="int" >      269 </v>
   <v type="int" >      270 </v>
   <v type="int" >      271 </v>
   <v type="int" >      272 </v>
   <v type="int" >      273 </v>
   <v type="int" >      274 </v>
   <v type="int" >      275 </v>
   <v type="int" >      276 </v>
   <v type="int" >      277 </v>
   <v type="int" >      278 </v>
   <v type="int" >      279 </v>
   <v type="int" >      280 </v>
   <v type="int" >      281 </v>
   <v type="int" >      282 </v>
   <v type="int" >      283 </v>
   <v type="int" >      284 </v>
   <v type="int" >      285 </v>
   <v type="int" >      286 </v>
   <v type="int" >      287 </v>
   <v type="int" >      288 </v>
   <v type="int" >      289 </v>
   <v type="int" >      290 </v>
   <v type="int" >      291 </v>
   <v type="int" >      292 </v>
   <v type="int" >      293 </v>
   <v type="int" >      294 </v>
   <v type="int" >      295 </v>
   <v type="int" >      296 </v>
   <v type="int" >      297 </v>
   <v type="int" >      298 </v>
   <v type="int" >      299 </v>
   <v type="int" >      300 </v>
   <v type="int" >      301 </v>
   <v type="int" >      302 </v>
   <v type="int" >      303 </v>
   <v type="int" >      304 </v>
   <v type="int" >      305 </v>
   <v type="int" >      306 </v>
   <v type="int" >      307 </v>
   <v type="int" >      308 </v>
   <v type="int" >      309 </v>
   <v type="int" >      310 </v>
   <v type="int" >      311 </v>
   <v type="int" >      312 </v>
   <v type="int" >      313 </v>
   <v type="int" >      314 </v>
   <v type="int" >      315 </v>
   <v type="int" >      316 </v>
   <v type="int" >      317 </v>
   <v type="int" >      318 </v>
   <v type="int" >      319 </v>
   <v type="int" >      320 </v>
   <v type="int" >      321 </v>
   <v type="int" >      322 </v>
   <v type="int" >      323 </v>
   <v type="int" >      324 </v>
   <v type="int" >      325 </v>
  </varray>
 </primitive_cell>
 <kpoints>
  <generation param="Gamma">
   <v type="int" name="divisions">       3        3        1 </v>
   <v name="usershift">      0.00000000       0.00000000       0.00000000 </v>
   <v name="genvec1">      0.33333333       0.00000000       0.00000000 </v>
   <v name="genvec2">      0.00000000       0.33333333       0.00000000 </v>
   <v name="genvec3">      0.00000000       0.00000000       1.00000000 </v>
   <v name="shift">      0.00000000       0.00000000       0.00000000 </v>
  </generation>
  <varray name="kpointlist" >
   <v>       0.00000000       0.00000000       0.00000000 </v>
   <v>       0.33333333       0.00000000       0.00000000 </v>
   <v>       0.00000000       0.33333333       0.00000000 </v>
   <v>       0.33333333       0.33333333       0.00000000 </v>
   <v>      -0.33333333       0.33333333       0.00000000 </v>
  </varray>
  <varray name="weights" >
   <v>       0.11111111 </v>
   <v>       0.22222222 </v>
   <v>       0.22222222 </v>
   <v>       0.22222222 </v>
   <v>       0.22222222 </v>
  </varray>
 </kpoints>
 <parameters>
  <separator name="general" >
   <i type="string" name="SYSTEM">PSC</i>
   <i type="logical" name="LCOMPAT"> F  </i>
  </separator>
  <separator name="electronic" >
   <i type="string" name="PREC">normal</i>
   <i name="ENMAX">    500.00000000</i>
   <i name="ENAUG">    644.87300000</i>
   <i name="EDIFF">      0.00010000</i>
   <i type="int" name="IALGO">    38</i>
   <i type="int" name="IWAVPR">    10</i>
   <i type="int" name="NBANDS">   732</i>
   <i type="int" name="NBANDSLOW">    -1</i>
   <i type="int" name="NBANDSHIGH">    -1</i>
   <i name="NELECT">   1134.00000000</i>
   <i type="int" name="TURBO">     0</i>
   <i type="int" name="IRESTART">     0</i>
   <i type="int" name="NREBOOT">     0</i>
   <i type="int" name="NMIN">     0</i>
   <i name="EREF">      0.00000000</i>
   <separator name="electronic smearing" >
    <i type="int" name="ISMEAR">     0</i>
    <i name="SIGMA">      0.05000000</i>
    <i name="KSPACING">      0.50000000</i>
    <i type="logical" name="KGAMMA"> T  </i>
    <i type="logical" name="KBLOWUP"> T  </i>
   </separator>
   <separator name="electronic projectors" >
    <i type="logical" name="LREAL"> T  </i>
    <v name="ROPT">     -0.00050000     -0.00050000     -0.00050000     -0.00050000     -0.00050000</v>
    <i type="int" name="LMAXPAW">  -100</i>
    <i type="int" name="LMAXMIX">     2</i>
    <i type="logical" name="NLSPLINE"> F  </i>
   </separator>
   <separator name="electronic startup" >
    <i type="int" name="ISTART">     0</i>
    <i type="int" name="ICHARG">     1</i>
    <i type="int" name="INIWAV">     1</i>
   </separator>
   <separator name="electronic spin" >
    <i type="int" name="ISPIN">     1</i>
    <i type="logical" name="LNONCOLLINEAR"> F  </i>
    <v name="MAGMOM">      1.00000000      1.00000000      1.00000000      1.00000000      1.00000000      1.00000000      1.00000000      1.00000000      1.00000000      1.00000000      1.00000000      1.00000000      1.00000000      1.00000000      1.00000000      1.00000000      1.00000000      1.00000000      1.00000000      1.00000000
      1.00000000      1.00000000      1.00000000      1.00000000      1.00000000      1.00000000      1.00000000      1.00000000      1.00000000      1.00000000      1.00000000      1.00000000      1.00000000      1.00000000      1.00000000      1.00000000      1.00000000      1.00000000      1.00000000      1.00000000
      1.00000000      1.00000000      1.00000000      1.00000000      1.00000000      1.00000000      1.00000000      1.00000000      1.00000000      1.00000000      1.00000000      1.00000000      1.00000000      1.00000000      1.00000000      1.00000000      1.00000000      1.00000000      1.00000000      1.00000000
      1.00000000      1.00000000      1.00000000      1.00000000      1.00000000      1.00000000      1.00000000      1.00000000      1.00000000      1.00000000      1.00000000      1.00000000      1.00000000      1.00000000      1.00000000      1.00000000      1.00000000      1.00000000      1.00000000      1.00000000
      1.00000000      1.00000000      1.00000000      1.00000000      1.00000000      1.00000000      1.00000000      1.00000000      1.00000000      1.00000000      1.00000000      1.00000000      1.00000000      1.00000000      1.00000000      1.00000000      1.00000000      1.00000000      1.00000000      1.00000000
      1.00000000      1.00000000      1.00000000      1.00000000      1.00000000      1.00000000      1.00000000      1.00000000      1.00000000      1.00000000      1.00000000      1.00000000      1.00000000      1.00000000      1.00000000      1.00000000      1.00000000      1.00000000      1.00000000      1.00000000
      1.00000000      1.00000000      1.00000000      1.00000000      1.00000000      1.00000000      1.00000000      1.00000000      1.00000000      1.00000000      1.00000000      1.00000000      1.00000000      1.00000000      1.00000000      1.00000000      1.00000000      1.00000000      1.00000000      1.00000000
      1.00000000      1.00000000      1.00000000      1.00000000      1.00000000      1.00000000      1.00000000      1.00000000      1.00000000      1.00000000      1.00000000      1.00000000      1.00000000      1.00000000      1.00000000      1.00000000      1.00000000      1.00000000      1.00000000      1.00000000
      1.00000000      1.00000000      1.00000000      1.00000000      1.00000000      1.00000000      1.00000000      1.00000000      1.00000000      1.00000000      1.00000000      1.00000000      1.00000000      1.00000000      1.00000000      1.00000000      1.00000000      1.00000000      1.00000000      1.00000000
      1.00000000      1.00000000      1.00000000      1.00000000      1.00000000      1.00000000      1.00000000      1.00000000      1.00000000      1.00000000      1.00000000      1.00000000      1.00000000      1.00000000      1.00000000      1.00000000      1.00000000      1.00000000      1.00000000      1.00000000
      1.00000000      1.00000000      1.00000000      1.00000000      1.00000000      1.00000000      1.00000000      1.00000000      1.00000000      1.00000000      1.00000000      1.00000000      1.00000000      1.00000000      1.00000000      1.00000000      1.00000000      1.00000000      1.00000000      1.00000000
      1.00000000      1.00000000      1.00000000      1.00000000      1.00000000      1.00000000      1.00000000      1.00000000      1.00000000      1.00000000      1.00000000      1.00000000      1.00000000      1.00000000      1.00000000      1.00000000      1.00000000      1.00000000      1.00000000      1.00000000
      1.00000000      1.00000000      1.00000000      1.00000000      1.00000000      1.00000000      1.00000000      1.00000000      1.00000000      1.00000000      1.00000000      1.00000000      1.00000000      1.00000000      1.00000000      1.00000000      1.00000000      1.00000000      1.00000000      1.00000000
      1.00000000      1.00000000      1.00000000      1.00000000      1.00000000      1.00000000      1.00000000      1.00000000      1.00000000      1.00000000      1.00000000      1.00000000      1.00000000      1.00000000      1.00000000      1.00000000      1.00000000      1.00000000      1.00000000      1.00000000
      1.00000000      1.00000000      1.00000000      1.00000000      1.00000000      1.00000000      1.00000000      1.00000000      1.00000000      1.00000000      1.00000000      1.00000000      1.00000000      1.00000000      1.00000000      1.00000000      1.00000000      1.00000000      1.00000000      1.00000000
      1.00000000      1.00000000      1.00000000      1.00000000      1.00000000      1.00000000      1.00000000      1.00000000      1.00000000      1.00000000      1.00000000      1.00000000      1.00000000      1.00000000      1.00000000      1.00000000      1.00000000      1.00000000      1.00000000      1.00000000
      1.00000000      1.00000000      1.00000000      1.00000000      1.00000000</v>
    <i name="NUPDOWN">     -1.00000000</i>
    <i type="logical" name="LSORBIT"> F  </i>
    <v name="SAXIS">      0.00000000      0.00000000      1.00000000</v>
    <i type="logical" name="LSPIRAL"> F  </i>
    <v name="QSPIRAL">      0.00000000      0.00000000      0.00000000</v>
    <i type="logical" name="LZEROZ"> F  </i>
   </separator>
   <separator name="electronic exchange-correlation" >
    <i type="logical" name="LASPH"> F  </i>
    <i type="logical" name="LMETAGGA"> F  </i>
   </separator>
   <separator name="electronic convergence" >
    <i type="int" name="NELM">   600</i>
    <i type="int" name="NELMDL">     0</i>
    <i type="int" name="NELMIN">     2</i>
    <i name="ENINI">    500.00000000</i>
    <separator name="electronic convergence detail" >
     <i type="logical" name="LDIAG"> T  </i>
     <i type="logical" name="LSUBROT"> F  </i>
     <i name="WEIMIN">      0.00000000</i>
     <i name="EBREAK">      0.00000003</i>
     <i name="DEPER">      0.30000000</i>
     <i type="int" name="NRMM">     4</i>
     <i name="TIME">      0.40000000</i>
    </separator>
   </separator>
   <separator name="electronic mixer" >
    <i name="AMIX">      0.40000000</i>
    <i name="BMIX">      0.01000000</i>
    <i name="AMIN">      0.01000000</i>
    <i name="AMIX_MAG">      1.60000000</i>
    <i name="BMIX_MAG">      0.01000000</i>
    <separator name="electronic mixer details" >
     <i type="int" name="IMIX">     4</i>
     <i type="logical" name="MIXFIRST"> F  </i>
     <i type="int" name="MAXMIX">   -45</i>
     <i name="WC">    100.00000000</i>
     <i type="int" name="INIMIX">     1</i>
     <i type="int" name="MIXPRE">     1</i>
     <i type="int" name="MREMOVE">     5</i>
    </separator>
   </separator>
   <separator name="electronic dipolcorrection" >
    <i type="logical" name="LDIPOL"> T  </i>
    <i type="logical" name="LMONO"> F  </i>
    <i type="int" name="IDIPOL">     3</i>
    <i name="EPSILON">      1.00000000</i>
    <v name="DIPOL">   -100.00000000   -100.00000000   -100.00000000</v>
    <i name="EFIELD">      0.00000000</i>
   </separator>
  </separator>
  <separator name="grids" >
   <i type="int" name="NGX">   100</i>
   <i type="int" name="NGY">   100</i>
   <i type="int" name="NGZ">   350</i>
   <i type="int" name="NGXF">   200</i>
   <i type="int" name="NGYF">   200</i>
   <i type="int" name="NGZF">   700</i>
   <i type="logical" name="ADDGRID"> F  </i>
  </separator>
  <separator name="ionic" >
   <i type="int" name="NSW">     0</i>
   <i type="int" name="IBRION">    -1</i>
   <i type="int" name="MDALGO">     0</i>
   <i type="int" name="ISIF">     2</i>
   <i name="PSTRESS">      0.00000000</i>
   <i name="EDIFFG">      0.00100000</i>
   <i type="int" name="NFREE">     0</i>
   <i name="POTIM">      0.50000000</i>
   <i name="SMASS">     -3.00000000</i>
   <i name="SCALEE">      1.00000000</i>
  </separator>
  <separator name="ionic md" >
   <i name="TEBEG">      0.00010000</i>
   <i name="TEEND">      0.00010000</i>
   <i type="int" name="NBLOCK">     1</i>
   <i type="int" name="KBLOCK">     1</i>
   <i type="int" name="NPACO">   256</i>
   <i name="APACO">     16.00000000</i>
  </separator>
  <separator name="symmetry" >
   <i type="int" name="ISYM">     0</i>
   <i name="SYMPREC">      0.00001000</i>
  </separator>
  <separator name="dos" >
   <i type="int" name="LORBIT">     0</i>
   <v name="RWIGS">     -1.00000000     -1.00000000     -1.00000000     -1.00000000     -1.00000000</v>
   <i type="int" name="NEDOS">   301</i>
   <i name="EMIN">     10.00000000</i>
   <i name="EMAX">    -10.00000000</i>
   <i name="EFERMI">      0.00000000</i>
  </separator>
  <separator name="writing" >
   <i type="int" name="NWRITE">     2</i>
   <i type="logical" name="LWAVE"> F  </i>
   <i type="logical" name="LDOWNSAMPLE"> F  </i>
   <i type="logical" name="LCHARG"> T  </i>
   <i type="logical" name="LPARD"> F  </i>
   <i type="logical" name="LVTOT"> T  </i>
   <i type="logical" name="LVHAR"> F  </i>
   <i type="logical" name="LELF"> F  </i>
   <i type="logical" name="LOPTICS"> F  </i>
   <v name="STM">      0.00000000      0.00000000      0.00000000      0.00000000      0.00000000      0.00000000      0.00000000</v>
  </separator>
  <separator name="performance" >
   <i type="int" name="NPAR">     4</i>
   <i type="int" name="NSIM">     4</i>
   <i type="int" name="NBLK">    -1</i>
   <i type="logical" name="LPLANE"> T  </i>
   <i type="logical" name="LSCALAPACK"> T  </i>
   <i type="logical" name="LSCAAWARE"> F  </i>
   <i type="logical" name="LSCALU"> F  </i>
   <i type="logical" name="LASYNC"> F  </i>
   <i type="logical" name="LORBITALREAL"> F  </i>
  </separator>
  <separator name="miscellaneous" >
   <i type="int" name="IDIOT">     3</i>
   <i type="int" name="PHON_NSTRUCT">    -1</i>
   <i type="logical" name="LMUSIC"> F  </i>
   <v name="POMASS">      1.00000000     12.01100000     14.00100000    126.90400000    207.20000000</v>
   <v name="DARWINR">      0.00000000      0.00000000      0.00000000      0.00000000      0.00000000</v>
   <v name="DARWINV">      1.00000000      1.00000000      1.00000000      1.00000000      1.00000000</v>
   <i type="logical" name="LCORR"> T  </i>
  </separator>
  <i type="logical" name="GGA_COMPAT"> F  </i>
  <i type="logical" name="LBERRY"> F  </i>
  <i type="int" name="ICORELEVEL">     0</i>
  <i type="logical" name="LDAU"> F  </i>
  <i type="int" name="I_CONSTRAINED_M">     0</i>
  <separator name="electronic exchange-correlation" >
   <i type="string" name="GGA">--</i>
   <i type="int" name="VOSKOWN">     0</i>
   <i type="logical" name="LHFCALC"> F  </i>
   <i type="string" name="PRECFOCK"></i>
   <i type="logical" name="LSYMGRAD"> F  </i>
   <i type="logical" name="LHFONE"> F  </i>
   <i type="logical" name="LRHFCALC"> F  </i>
   <i type="logical" name="LTHOMAS"> F  </i>
   <i type="logical" name="LMODELHF"> F  </i>
   <i type="logical" name="LFOCKACE"> F  </i>
   <i name="ENCUT4O">     -1.00000000</i>
   <i type="int" name="EXXOEP">     0</i>
   <i type="int" name="FOURORBIT">     0</i>
   <i name="AEXX">      0.00000000</i>
   <i name="HFALPHA">      0.00000000</i>
   <i name="MCALPHA">      0.00000000</i>
   <i name="ALDAX">      1.00000000</i>
   <i name="AGGAX">      1.00000000</i>
   <i name="ALDAC">      1.00000000</i>
   <i name="AGGAC">      1.00000000</i>
   <i type="int" name="NKREDX">     1</i>
   <i type="int" name="NKREDY">     1</i>
   <i type="int" name="NKREDZ">     1</i>
   <i type="logical" name="SHIFTRED"> F  </i>
   <i type="logical" name="ODDONLY"> F  </i>
   <i type="logical" name="EVENONLY"> F  </i>
   <i type="int" name="LMAXFOCK">     0</i>
   <i type="int" name="NMAXFOCKAE">     0</i>
   <i type="logical" name="LFOCKAEDFT"> F  </i>
   <i name="HFSCREEN">      0.00000000</i>
   <i name="HFSCREENC">      0.00000000</i>
   <i type="int" name="NBANDSGWLOW">     0</i>
  </separator>
  <separator name="vdW DFT" >
   <i type="logical" name="LUSE_VDW"> F  </i>
   <i name="Zab_VDW">     -0.84910000</i>
   <i name="PARAM1">      0.12340000</i>
   <i name="PARAM2">      1.00000000</i>
   <i name="PARAM3">      0.00000000</i>
  </separator>
  <separator name="model GW" >
   <i type="int" name="MODEL_GW">     0</i>
   <i name="MODEL_EPS0">     37.63423484</i>
   <i name="MODEL_ALPHA">      1.00000000</i>
  </separator>
  <separator name="linear response parameters" >
   <i type="logical" name="LEPSILON"> F  </i>
   <i type="logical" name="LRPA"> F  </i>
   <i type="logical" name="LNABLA"> F  </i>
   <i type="logical" name="LVEL"> F  </i>
   <i type="int" name="KINTER">     0</i>
   <i name="CSHIFT">      0.10000000</i>
   <i name="OMEGAMAX">     -1.00000000</i>
   <i name="DEG_THRESHOLD">      0.00200000</i>
   <i name="RTIME">     -0.10000000</i>
   <i name="WPLASMAI">      0.00000000</i>
   <v name="DFIELD">      0.00000000      0.00000000      0.00000000</v>
   <v name="WPLASMA">      0.00000000      0.00000000      0.00000000      0.00000000      0.00000000      0.00000000      0.00000000      0.00000000      0.00000000</v>
  </separator>
  <separator name="orbital magnetization" >
   <i type="logical" name="NUCIND"> F  </i>
   <v name="MAGPOS">      0.00000000      0.00000000      0.00000000</v>
   <i type="logical" name="LNICSALL"> T  </i>
   <i type="logical" name="ORBITALMAG"> F  </i>
   <i type="logical" name="LMAGBLOCH"> F  </i>
   <i type="logical" name="LCHIMAG"> F  </i>
   <i type="logical" name="LGAUGE"> T  </i>
   <i type="int" name="MAGATOM">     0</i>
   <v name="MAGDIPOL">      0.00000000      0.00000000      0.00000000</v>
   <v name="AVECCONST">      0.00000000      0.00000000      0.00000000</v>
  </separator>
  <separator name="response functions" >
   <i type="logical" name="LFINITE_TEMPERATURE"> F  </i>
   <i type="logical" name="LADDER"> F  </i>
   <i type="logical" name="LRPAFORCE"> F  </i>
   <i type="logical" name="LFXC"> F  </i>
   <i type="logical" name="LHARTREE"> T  </i>
   <i type="int" name="IBSE">     0</i>
   <v type="int" name="KPOINT">    -1     0     0     0</v>
   <i type="logical" name="LTCTC"> F  </i>
   <i type="logical" name="LTCTE"> F  </i>
   <i type="logical" name="LTETE"> F  </i>
   <i type="logical" name="LTRIPLET"> F  </i>
   <i type="logical" name="LFXCEPS"> F  </i>
   <i type="logical" name="LFXHEG"> F  </i>
   <i type="int" name="NATURALO">     2</i>
   <i type="logical" name="LHOLEGF"> F  </i>
   <i type="logical" name="L2ORDER"> F  </i>
   <i type="logical" name="LDMP1"> F  </i>
   <i type="logical" name="LMP2LT"> F  </i>
   <i type="logical" name="LSMP2LT"> F  </i>
   <i type="logical" name="LGWLF"> F  </i>
   <i name="ENCUTGW">     -2.00000000</i>
   <i name="ENCUTGWSOFT">     -2.00000000</i>
   <i name="ENCUTLF">     -1.00000000</i>
   <i type="logical" name="LESF_SPLINES"> F  </i>
   <i type="int" name="LMAXMP2">    -1</i>
   <i name="SCISSOR">      0.00000000</i>
   <i type="int" name="NOMEGA">     0</i>
   <i type="int" name="NOMEGAR">     0</i>
   <i type="int" name="NBANDSGW">    -1</i>
   <i type="int" name="NBANDSO">    -1</i>
   <i type="int" name="NBANDSV">    -1</i>
   <i type="int" name="NELM">   600</i>
   <i type="int" name="NELMHF">     1</i>
   <i type="int" name="DIM">     3</i>
   <i type="int" name="IESPILON">     4</i>
   <i type="int" name="ANTIRES">     0</i>
   <i name="OMEGAMAX">    -30.00000000</i>
   <i name="OMEGAMIN">    -30.00000000</i>
   <i name="OMEGATL">   -200.00000000</i>
   <i type="int" name="OMEGAGRID">     0</i>
   <i name="CSHIFT">     -0.10000000</i>
   <i type="logical" name="LSELFENERGY"> F  </i>
   <i type="logical" name="LSPECTRAL"> F  </i>
   <i type="logical" name="LSPECTRALGW"> F  </i>
   <i type="logical" name="LSINGLES"> F  </i>
   <i type="logical" name="LFERMIGW"> F  </i>
   <i type="logical" name="ODDONLYGW"> F  </i>
   <i type="logical" name="EVENONLYGW"> F  </i>
   <i type="int" name="NKREDLFX">     1</i>
   <i type="int" name="NKREDLFY">     1</i>
   <i type="int" name="NKREDLFZ">     1</i>
   <i type="int" name="MAXMEM">  2800</i>
   <i type="int" name="TELESCOPE">     0</i>
   <i type="int" name="NTAUPAR">    -1</i>
   <i type="int" name="NOMEGAPAR">    -1</i>
   <i name="DAMP_NEWTON">      0.80000001</i>
   <i name="LAMBDA">      1.00000000</i>
  </separator>
  <separator name="External order field" >
   <i name="OFIELD_KAPPA">      0.00000000</i>
   <v name="OFIELD_K">      0.00000000      0.00000000      0.00000000</v>
   <i name="OFIELD_Q6_NEAR">      0.00000000</i>
   <i name="OFIELD_Q6_FAR">      0.00000000</i>
   <i name="OFIELD_A">      0.00000000</i>
  </separator>
 </parameters>
 <atominfo>
  <atoms>     325 </atoms>
  <types>       5 </types>
  <array name="atoms" >
   <dimension dim="1">ion</dimension>
   <field type="string">element</field>
   <field type="int">atomtype</field>
   <set>
    <rc><c>H </c><c>   1</c></rc>
    <rc><c>H </c><c>   1</c></rc>
    <rc><c>H </c><c>   1</c></rc>
    <rc><c>H </c><c>   1</c></rc>
    <rc><c>H </c><c>   1</c></rc>
    <rc><c>H </c><c>   1</c></rc>
    <rc><c>H </c><c>   1</c></rc>
    <rc><c>H </c><c>   1</c></rc>
    <rc><c>H </c><c>   1</c></rc>
    <rc><c>H </c><c>   1</c></rc>
    <rc><c>H </c><c>   1</c></rc>
    <rc><c>H </c><c>   1</c></rc>
    <rc><c>H </c><c>   1</c></rc>
    <rc><c>H </c><c>   1</c></rc>
    <rc><c>H </c><c>   1</c></rc>
    <rc><c>H </c><c>   1</c></rc>
    <rc><c>H </c><c>   1</c></rc>
    <rc><c>H </c><c>   1</c></rc>
    <rc><c>H </c><c>   1</c></rc>
    <rc><c>H </c><c>   1</c></rc>
    <rc><c>H </c><c>   1</c></rc>
    <rc><c>H </c><c>   1</c></rc>
    <rc><c>H </c><c>   1</c></rc>
    <rc><c>H </c><c>   1</c></rc>
    <rc><c>H </c><c>   1</c></rc>
    <rc><c>H </c><c>   1</c></rc>
    <rc><c>H </c><c>   1</c></rc>
    <rc><c>H </c><c>   1</c></rc>
    <rc><c>H </c><c>   1</c></rc>
    <rc><c>H </c><c>   1</c></rc>
    <rc><c>H </c><c>   1</c></rc>
    <rc><c>H </c><c>   1</c></rc>
    <rc><c>H </c><c>   1</c></rc>
    <rc><c>H </c><c>   1</c></rc>
    <rc><c>H </c><c>   1</c></rc>
    <rc><c>H </c><c>   1</c></rc>
    <rc><c>H </c><c>   1</c></rc>
    <rc><c>H </c><c>   1</c></rc>
    <rc><c>H </c><c>   1</c></rc>
    <rc><c>H </c><c>   1</c></rc>
    <rc><c>H </c><c>   1</c></rc>
    <rc><c>H </c><c>   1</c></rc>
    <rc><c>H </c><c>   1</c></rc>
    <rc><c>H </c><c>   1</c></rc>
    <rc><c>H </c><c>   1</c></rc>
    <rc><c>H </c><c>   1</c></rc>
    <rc><c>H </c><c>   1</c></rc>
    <rc><c>H </c><c>   1</c></rc>
    <rc><c>H </c><c>   1</c></rc>
    <rc><c>H </c><c>   1</c></rc>
    <rc><c>H </c><c>   1</c></rc>
    <rc><c>H </c><c>   1</c></rc>
    <rc><c>H </c><c>   1</c></rc>
    <rc><c>H </c><c>   1</c></rc>
    <rc><c>H </c><c>   1</c></rc>
    <rc><c>H </c><c>   1</c></rc>
    <rc><c>H </c><c>   1</c></rc>
    <rc><c>H </c><c>   1</c></rc>
    <rc><c>H </c><c>   1</c></rc>
    <rc><c>H </c><c>   1</c></rc>
    <rc><c>H </c><c>   1</c></rc>
    <rc><c>H </c><c>   1</c></rc>
    <rc><c>H </c><c>   1</c></rc>
    <rc><c>H </c><c>   1</c></rc>
    <rc><c>H </c><c>   1</c></rc>
    <rc><c>H </c><c>   1</c></rc>
    <rc><c>H </c><c>   1</c></rc>
    <rc><c>H </c><c>   1</c></rc>
    <rc><c>H </c><c>   1</c></rc>
    <rc><c>H </c><c>   1</c></rc>
    <rc><c>H </c><c>   1</c></rc>
    <rc><c>H </c><c>   1</c></rc>
    <rc><c>H </c><c>   1</c></rc>
    <rc><c>H </c><c>   1</c></rc>
    <rc><c>H </c><c>   1</c></rc>
    <rc><c>H </c><c>   1</c></rc>
    <rc><c>H </c><c>   1</c></rc>
    <rc><c>H </c><c>   1</c></rc>
    <rc><c>H </c><c>   1</c></rc>
    <rc><c>H </c><c>   1</c></rc>
    <rc><c>H </c><c>   1</c></rc>
    <rc><c>H </c><c>   1</c></rc>
    <rc><c>H </c><c>   1</c></rc>
    <rc><c>H </c><c>   1</c></rc>
    <rc><c>H </c><c>   1</c></rc>
    <rc><c>H </c><c>   1</c></rc>
    <rc><c>H </c><c>   1</c></rc>
    <rc><c>H </c><c>   1</c></rc>
    <rc><c>H </c><c>   1</c></rc>
    <rc><c>H </c><c>   1</c></rc>
    <rc><c>H </c><c>   1</c></rc>
    <rc><c>H </c><c>   1</c></rc>
    <rc><c>H </c><c>   1</c></rc>
    <rc><c>H </c><c>   1</c></rc>
    <rc><c>H </c><c>   1</c></rc>
    <rc><c>H </c><c>   1</c></rc>
    <rc><c>H </c><c>   1</c></rc>
    <rc><c>H </c><c>   1</c></rc>
    <rc><c>H </c><c>   1</c></rc>
    <rc><c>H </c><c>   1</c></rc>
    <rc><c>H </c><c>   1</c></rc>
    <rc><c>H </c><c>   1</c></rc>
    <rc><c>H </c><c>   1</c></rc>
    <rc><c>H </c><c>   1</c></rc>
    <rc><c>H </c><c>   1</c></rc>
    <rc><c>H </c><c>   1</c></rc>
    <rc><c>H </c><c>   1</c></rc>
    <rc><c>H </c><c>   1</c></rc>
    <rc><c>H </c><c>   1</c></rc>
    <rc><c>H </c><c>   1</c></rc>
    <rc><c>H </c><c>   1</c></rc>
    <rc><c>H </c><c>   1</c></rc>
    <rc><c>H </c><c>   1</c></rc>
    <rc><c>H </c><c>   1</c></rc>
    <rc><c>H </c><c>   1</c></rc>
    <rc><c>H </c><c>   1</c></rc>
    <rc><c>H </c><c>   1</c></rc>
    <rc><c>H </c><c>   1</c></rc>
    <rc><c>H </c><c>   1</c></rc>
    <rc><c>H </c><c>   1</c></rc>
    <rc><c>H </c><c>   1</c></rc>
    <rc><c>H </c><c>   1</c></rc>
    <rc><c>H </c><c>   1</c></rc>
    <rc><c>H </c><c>   1</c></rc>
    <rc><c>H </c><c>   1</c></rc>
    <rc><c>H </c><c>   1</c></rc>
    <rc><c>H </c><c>   1</c></rc>
    <rc><c>H </c><c>   1</c></rc>
    <rc><c>H </c><c>   1</c></rc>
    <rc><c>H </c><c>   1</c></rc>
    <rc><c>H </c><c>   1</c></rc>
    <rc><c>H </c><c>   1</c></rc>
    <rc><c>H </c><c>   1</c></rc>
    <rc><c>H </c><c>   1</c></rc>
    <rc><c>H </c><c>   1</c></rc>
    <rc><c>H </c><c>   1</c></rc>
    <rc><c>H </c><c>   1</c></rc>
    <rc><c>H </c><c>   1</c></rc>
    <rc><c>H </c><c>   1</c></rc>
    <rc><c>H </c><c>   1</c></rc>
    <rc><c>H </c><c>   1</c></rc>
    <rc><c>H </c><c>   1</c></rc>
    <rc><c>H </c><c>   1</c></rc>
    <rc><c>C </c><c>   2</c></rc>
    <rc><c>C </c><c>   2</c></rc>
    <rc><c>C </c><c>   2</c></rc>
    <rc><c>C </c><c>   2</c></rc>
    <rc><c>C </c><c>   2</c></rc>
    <rc><c>C </c><c>   2</c></rc>
    <rc><c>C </c><c>   2</c></rc>
    <rc><c>C </c><c>   2</c></rc>
    <rc><c>C </c><c>   2</c></rc>
    <rc><c>C </c><c>   2</c></rc>
    <rc><c>C </c><c>   2</c></rc>
    <rc><c>C </c><c>   2</c></rc>
    <rc><c>C </c><c>   2</c></rc>
    <rc><c>C </c><c>   2</c></rc>
    <rc><c>C </c><c>   2</c></rc>
    <rc><c>C </c><c>   2</c></rc>
    <rc><c>C </c><c>   2</c></rc>
    <rc><c>C </c><c>   2</c></rc>
    <rc><c>C </c><c>   2</c></rc>
    <rc><c>C </c><c>   2</c></rc>
    <rc><c>C </c><c>   2</c></rc>
    <rc><c>C </c><c>   2</c></rc>
    <rc><c>C </c><c>   2</c></rc>
    <rc><c>C </c><c>   2</c></rc>
    <rc><c>C </c><c>   2</c></rc>
    <rc><c>C </c><c>   2</c></rc>
    <rc><c>C </c><c>   2</c></rc>
    <rc><c>C </c><c>   2</c></rc>
    <rc><c>C </c><c>   2</c></rc>
    <rc><c>C </c><c>   2</c></rc>
    <rc><c>C </c><c>   2</c></rc>
    <rc><c>C </c><c>   2</c></rc>
    <rc><c>C </c><c>   2</c></rc>
    <rc><c>C </c><c>   2</c></rc>
    <rc><c>C </c><c>   2</c></rc>
    <rc><c>C </c><c>   2</c></rc>
    <rc><c>C </c><c>   2</c></rc>
    <rc><c>C </c><c>   2</c></rc>
    <rc><c>C </c><c>   2</c></rc>
    <rc><c>N </c><c>   3</c></rc>
    <rc><c>N </c><c>   3</c></rc>
    <rc><c>N </c><c>   3</c></rc>
    <rc><c>N </c><c>   3</c></rc>
    <rc><c>N </c><c>   3</c></rc>
    <rc><c>N </c><c>   3</c></rc>
    <rc><c>N </c><c>   3</c></rc>
    <rc><c>N </c><c>   3</c></rc>
    <rc><c>N </c><c>   3</c></rc>
    <rc><c>N </c><c>   3</c></rc>
    <rc><c>N </c><c>   3</c></rc>
    <rc><c>N </c><c>   3</c></rc>
    <rc><c>N </c><c>   3</c></rc>
    <rc><c>N </c><c>   3</c></rc>
    <rc><c>N </c><c>   3</c></rc>
    <rc><c>N </c><c>   3</c></rc>
    <rc><c>N </c><c>   3</c></rc>
    <rc><c>N </c><c>   3</c></rc>
    <rc><c>N </c><c>   3</c></rc>
    <rc><c>N </c><c>   3</c></rc>
    <rc><c>N </c><c>   3</c></rc>
    <rc><c>N </c><c>   3</c></rc>
    <rc><c>N </c><c>   3</c></rc>
    <rc><c>N </c><c>   3</c></rc>
    <rc><c>N </c><c>   3</c></rc>
    <rc><c>N </c><c>   3</c></rc>
    <rc><c>N </c><c>   3</c></rc>
    <rc><c>N </c><c>   3</c></rc>
    <rc><c>N </c><c>   3</c></rc>
    <rc><c>N </c><c>   3</c></rc>
    <rc><c>N </c><c>   3</c></rc>
    <rc><c>N </c><c>   3</c></rc>
    <rc><c>N </c><c>   3</c></rc>
    <rc><c>N </c><c>   3</c></rc>
    <rc><c>N </c><c>   3</c></rc>
    <rc><c>N </c><c>   3</c></rc>
    <rc><c>N </c><c>   3</c></rc>
    <rc><c>N </c><c>   3</c></rc>
    <rc><c>N </c><c>   3</c></rc>
    <rc><c>N </c><c>   3</c></rc>
    <rc><c>N </c><c>   3</c></rc>
    <rc><c>N </c><c>   3</c></rc>
    <rc><c>N </c><c>   3</c></rc>
    <rc><c>N </c><c>   3</c></rc>
    <rc><c>N </c><c>   3</c></rc>
    <rc><c>N </c><c>   3</c></rc>
    <rc><c>N </c><c>   3</c></rc>
    <rc><c>I </c><c>   4</c></rc>
    <rc><c>I </c><c>   4</c></rc>
    <rc><c>I </c><c>   4</c></rc>
    <rc><c>I </c><c>   4</c></rc>
    <rc><c>I </c><c>   4</c></rc>
    <rc><c>I </c><c>   4</c></rc>
    <rc><c>I </c><c>   4</c></rc>
    <rc><c>I </c><c>   4</c></rc>
    <rc><c>I </c><c>   4</c></rc>
    <rc><c>I </c><c>   4</c></rc>
    <rc><c>I </c><c>   4</c></rc>
    <rc><c>I </c><c>   4</c></rc>
    <rc><c>I </c><c>   4</c></rc>
    <rc><c>I </c><c>   4</c></rc>
    <rc><c>I </c><c>   4</c></rc>
    <rc><c>I </c><c>   4</c></rc>
    <rc><c>I </c><c>   4</c></rc>
    <rc><c>I </c><c>   4</c></rc>
    <rc><c>I </c><c>   4</c></rc>
    <rc><c>I </c><c>   4</c></rc>
    <rc><c>I </c><c>   4</c></rc>
    <rc><c>I </c><c>   4</c></rc>
    <rc><c>I </c><c>   4</c></rc>
    <rc><c>I </c><c>   4</c></rc>
    <rc><c>I </c><c>   4</c></rc>
    <rc><c>I </c><c>   4</c></rc>
    <rc><c>I </c><c>   4</c></rc>
    <rc><c>I </c><c>   4</c></rc>
    <rc><c>I </c><c>   4</c></rc>
    <rc><c>I </c><c>   4</c></rc>
    <rc><c>I </c><c>   4</c></rc>
    <rc><c>I </c><c>   4</c></rc>
    <rc><c>I </c><c>   4</c></rc>
    <rc><c>I </c><c>   4</c></rc>
    <rc><c>I </c><c>   4</c></rc>
    <rc><c>I </c><c>   4</c></rc>
    <rc><c>I </c><c>   4</c></rc>
    <rc><c>I </c><c>   4</c></rc>
    <rc><c>I </c><c>   4</c></rc>
    <rc><c>I </c><c>   4</c></rc>
    <rc><c>I </c><c>   4</c></rc>
    <rc><c>I </c><c>   4</c></rc>
    <rc><c>I </c><c>   4</c></rc>
    <rc><c>I </c><c>   4</c></rc>
    <rc><c>I </c><c>   4</c></rc>
    <rc><c>I </c><c>   4</c></rc>
    <rc><c>I </c><c>   4</c></rc>
    <rc><c>I </c><c>   4</c></rc>
    <rc><c>I </c><c>   4</c></rc>
    <rc><c>I </c><c>   4</c></rc>
    <rc><c>I </c><c>   4</c></rc>
    <rc><c>I </c><c>   4</c></rc>
    <rc><c>I </c><c>   4</c></rc>
    <rc><c>I </c><c>   4</c></rc>
    <rc><c>I </c><c>   4</c></rc>
    <rc><c>I </c><c>   4</c></rc>
    <rc><c>I </c><c>   4</c></rc>
    <rc><c>I </c><c>   4</c></rc>
    <rc><c>I </c><c>   4</c></rc>
    <rc><c>I </c><c>   4</c></rc>
    <rc><c>I </c><c>   4</c></rc>
    <rc><c>I </c><c>   4</c></rc>
    <rc><c>I </c><c>   4</c></rc>
    <rc><c>I </c><c>   4</c></rc>
    <rc><c>I </c><c>   4</c></rc>
    <rc><c>I </c><c>   4</c></rc>
    <rc><c>I </c><c>   4</c></rc>
    <rc><c>I </c><c>   4</c></rc>
    <rc><c>I </c><c>   4</c></rc>
    <rc><c>I </c><c>   4</c></rc>
    <rc><c>I </c><c>   4</c></rc>
    <rc><c>I </c><c>   4</c></rc>
    <rc><c>Pb</c><c>   5</c></rc>
    <rc><c>Pb</c><c>   5</c></rc>
    <rc><c>Pb</c><c>   5</c></rc>
    <rc><c>Pb</c><c>   5</c></rc>
    <rc><c>Pb</c><c>   5</c></rc>
    <rc><c>Pb</c><c>   5</c></rc>
    <rc><c>Pb</c><c>   5</c></rc>
    <rc><c>Pb</c><c>   5</c></rc>
    <rc><c>Pb</c><c>   5</c></rc>
    <rc><c>Pb</c><c>   5</c></rc>
    <rc><c>Pb</c><c>   5</c></rc>
    <rc><c>Pb</c><c>   5</c></rc>
    <rc><c>Pb</c><c>   5</c></rc>
    <rc><c>Pb</c><c>   5</c></rc>
    <rc><c>Pb</c><c>   5</c></rc>
    <rc><c>Pb</c><c>   5</c></rc>
    <rc><c>Pb</c><c>   5</c></rc>
    <rc><c>Pb</c><c>   5</c></rc>
    <rc><c>Pb</c><c>   5</c></rc>
    <rc><c>Pb</c><c>   5</c></rc>
    <rc><c>Pb</c><c>   5</c></rc>
    <rc><c>Pb</c><c>   5</c></rc>
    <rc><c>Pb</c><c>   5</c></rc>
    <rc><c>Pb</c><c>   5</c></rc>
   </set>
  </array>
  <array name="atomtypes" >
   <dimension dim="1">type</dimension>
   <field type="int">atomspertype</field>
   <field type="string">element</field>
   <field>mass</field>
   <field>valence</field>
   <field type="string">pseudopotential</field>
   <set>
    <rc><c> 143</c><c>H </c><c>      1.00000000</c><c>      1.00000000</c><c>  PAW_PBE H 15Jun2001                   </c></rc>
    <rc><c>  39</c><c>C </c><c>     12.01100000</c><c>      4.00000000</c><c>  PAW_PBE C 08Apr2002                   </c></rc>
    <rc><c>  47</c><c>N </c><c>     14.00100000</c><c>      5.00000000</c><c>  PAW_PBE N 08Apr2002                   </c></rc>
    <rc><c>  72</c><c>I </c><c>    126.90400000</c><c>      7.00000000</c><c>  PAW_PBE I 08Apr2002                   </c></rc>
    <rc><c>  24</c><c>Pb</c><c>    207.20000000</c><c>      4.00000000</c><c>  PAW_PBE Pb 08Apr2002                  </c></rc>
   </set>
  </array>
 </atominfo>
 <structure name="initialpos" >
  <crystal>
   <varray name="basis" >
    <v>      18.06080055       0.00000000       0.00000000 </v>
    <v>      -0.00491865      18.06279945       0.00000000 </v>
    <v>       0.00000000       0.00000000      62.48749924 </v>
   </varray>
   <i name="volume">  20385.21054034 </i>
   <varray name="rec_basis" >
    <v>       0.05536853       0.00001508      -0.00000000 </v>
    <v>       0.00000000       0.05536240       0.00000000 </v>
    <v>       0.00000000      -0.00000000       0.01600320 </v>
   </varray>
  </crystal>
  <varray name="positions" >
   <v>       0.45555997       0.30466268       0.58121391 </v>
   <v>       0.44596334       0.80756267       0.58156523 </v>
   <v>       0.95437874       0.30189098       0.57935672 </v>
   <v>       0.96183084       0.80885822       0.58215892 </v>
   <v>       0.30685357       0.04844754       0.57990847 </v>
   <v>       0.30061438       0.55040132       0.58175949 </v>
   <v>       0.79311330       0.05106796       0.58127642 </v>
   <v>       0.07928880       0.16228472       0.55962066 </v>
   <v>       0.07739023       0.66769184       0.55835661 </v>
   <v>       0.58494793       0.17707989       0.55639461 </v>
   <v>       0.56996396       0.67105035       0.55889529 </v>
   <v>       0.33293406       0.07538314       0.55441881 </v>
   <v>       0.32755989       0.58132029       0.55672530 </v>
   <v>       0.82533018       0.08079695       0.55662110 </v>
   <v>       0.04381625       0.19805002       0.58169026 </v>
   <v>       0.05397269       0.70603047       0.58237985 </v>
   <v>       0.55852946       0.21308824       0.58117490 </v>
   <v>       0.54110306       0.70086078       0.58357913 </v>
   <v>       0.20269558       0.44745747       0.58197523 </v>
   <v>       0.20128112       0.95365498       0.58179508 </v>
   <v>       0.69895136       0.94495130       0.58030454 </v>
   <v>       0.41726371       0.32574485       0.55645963 </v>
   <v>       0.42593811       0.83649755       0.55617777 </v>
   <v>       0.93307774       0.32496696       0.55251334 </v>
   <v>       0.92587723       0.83450365       0.55705447 </v>
   <v>       0.17250942       0.41820979       0.55706265 </v>
   <v>       0.16564979       0.92519309       0.55740549 </v>
   <v>       0.67597752       0.91249162       0.55507977 </v>
   <v>       0.49743478       0.25100619       0.53796875 </v>
   <v>       0.50147825       0.75233147       0.53929317 </v>
   <v>       0.01114857       0.24098910       0.53785990 </v>
   <v>       0.00149253       0.75068523       0.53897365 </v>
   <v>       0.24846543       0.49995491       0.53954560 </v>
   <v>       0.24650523       0.00020754       0.53861066 </v>
   <v>       0.75344137       0.99488319       0.53854808 </v>
   <v>       0.44730233       0.30307822       0.67516855 </v>
   <v>       0.45095471       0.79188930       0.67502314 </v>
   <v>       0.94477917       0.30464813       0.67174575 </v>
   <v>       0.94744848       0.80218612       0.67407299 </v>
   <v>       0.30218363       0.05138772       0.67497192 </v>
   <v>       0.30093338       0.54890097       0.67524144 </v>
   <v>       0.80150472       0.05450844       0.67516196 </v>
   <v>       0.80266526       0.55540929       0.67469452 </v>
   <v>       0.07682123       0.17412018       0.65064027 </v>
   <v>       0.07357137       0.66846247       0.65007607 </v>
   <v>       0.57993030       0.17561019       0.64982150 </v>
   <v>       0.58308594       0.67350344       0.64517250 </v>
   <v>       0.16446615       0.42540152       0.64991631 </v>
   <v>       0.17029730       0.92154744       0.65028674 </v>
   <v>       0.67287082       0.41563460       0.65061670 </v>
   <v>       0.67146624       0.92409088       0.64991808 </v>
   <v>       0.04500447       0.20558556       0.67501874 </v>
   <v>       0.04843472       0.69830553       0.67487748 </v>
   <v>       0.55401092       0.20151776       0.67520500 </v>
   <v>       0.55584392       0.69780702       0.67198981 </v>
   <v>       0.19201039       0.45142870       0.67524510 </v>
   <v>       0.19802000       0.94886327       0.67548417 </v>
   <v>       0.70001871       0.45113842       0.67561334 </v>
   <v>       0.69900488       0.95031611       0.67522996 </v>
   <v>       0.42176320       0.33116211       0.64985123 </v>
   <v>       0.41764274       0.82192507       0.65066621 </v>
   <v>       0.91873086       0.33039786       0.64521645 </v>
   <v>       0.91904570       0.82752691       0.64918984 </v>
   <v>       0.32844239       0.07719221       0.64951022 </v>
   <v>       0.32984549       0.57336843       0.64991014 </v>
   <v>       0.82708736       0.08228538       0.64981570 </v>
   <v>       0.83267444       0.57800676       0.64890317 </v>
   <v>       0.00119514       0.24885070       0.63034782 </v>
   <v>       0.99167542       0.74378732       0.63156095 </v>
   <v>       0.50247404       0.25530179       0.63183182 </v>
   <v>       0.49943201       0.74866266       0.63025240 </v>
   <v>       0.24928476       0.99925993       0.63212973 </v>
   <v>       0.24789840       0.49590438       0.63215500 </v>
   <v>       0.74810704       0.00667399       0.63211001 </v>
   <v>       0.75881754       0.49405218       0.63296382 </v>
   <v>       0.44874502       0.30128397       0.76888902 </v>
   <v>       0.44874501       0.80128391       0.76888902 </v>
   <v>       0.94874497       0.30128397       0.76888902 </v>
   <v>       0.94874501       0.80128391       0.76888902 </v>
   <v>       0.30127600       0.05129450       0.76887296 </v>
   <v>       0.30127601       0.55129450       0.76887296 </v>
   <v>       0.80127594       0.05129450       0.76887296 </v>
   <v>       0.80127598       0.55129450       0.76887296 </v>
   <v>       0.07877100       0.17118050       0.74344197 </v>
   <v>       0.07877101       0.67118045       0.74344197 </v>
   <v>       0.57877100       0.17118050       0.74344197 </v>
   <v>       0.57877099       0.67118045       0.74344197 </v>
   <v>       0.17119950       0.42117448       0.74342103 </v>
   <v>       0.17119950       0.92117451       0.74342103 </v>
   <v>       0.67119951       0.42117448       0.74342103 </v>
   <v>       0.67119950       0.92117451       0.74342103 </v>
   <v>       0.05125600       0.19871499       0.76888902 </v>
   <v>       0.05125600       0.69871493       0.76888902 </v>
   <v>       0.55125603       0.19871499       0.76888902 </v>
   <v>       0.55125602       0.69871493       0.76888902 </v>
   <v>       0.19872349       0.44870397       0.76887205 </v>
   <v>       0.19872349       0.94870397       0.76887205 </v>
   <v>       0.69872352       0.44870397       0.76887205 </v>
   <v>       0.69872351       0.94870397       0.76887205 </v>
   <v>       0.42123152       0.32881747       0.74344197 </v>
   <v>       0.42123151       0.82881744       0.74344197 </v>
   <v>       0.92123147       0.32881747       0.74344197 </v>
   <v>       0.92123151       0.82881744       0.74344197 </v>
   <v>       0.32880050       0.07882500       0.74342103 </v>
   <v>       0.32880049       0.57882496       0.74342103 </v>
   <v>       0.82880048       0.07882500       0.74342103 </v>
   <v>       0.82880052       0.57882496       0.74342103 </v>
   <v>       0.00000350       0.25000148       0.72582199 </v>
   <v>       0.00000350       0.75000145       0.72582199 </v>
   <v>       0.50000351       0.25000148       0.72582199 </v>
   <v>       0.50000350       0.75000145       0.72582199 </v>
   <v>       0.25000050       0.00000000       0.72580398 </v>
   <v>       0.25000052       0.50000000       0.72580398 </v>
   <v>       0.75000050       0.00000000       0.72580398 </v>
   <v>       0.75000049       0.50000000       0.72580398 </v>
   <v>       0.79525457       0.57238924       0.53401617 </v>
   <v>       0.74125991       0.48871914       0.53282471 </v>
   <v>       0.87298331       0.50690673       0.55603577 </v>
   <v>       0.84574675       0.48145988       0.58109376 </v>
   <v>       0.75055073       0.63872174       0.57256447 </v>
   <v>       0.80241339       0.58529015       0.58986407 </v>
   <v>       0.66443622       0.54099388       0.57566720 </v>
   <v>       0.68037446       0.45398865       0.56447191 </v>
   <v>       0.62812724       0.56018949       0.54385573 </v>
   <v>       0.68818519       0.63909481       0.54812056 </v>
   <v>       0.63817239       0.66864267       0.51408573 </v>
   <v>       0.71103704       0.61253983       0.50454730 </v>
   <v>       0.80971509       0.39981298       0.53909904 </v>
   <v>       0.76123397       0.38251703       0.56251864 </v>
   <v>       0.85361238       0.37061039       0.56343948 </v>
   <v>       0.87010346       0.68374239       0.56951876 </v>
   <v>       0.86031111       0.63744926       0.54499994 </v>
   <v>       0.91209744       0.59806339       0.56641340 </v>
   <v>       0.77187113       0.49939050       0.60252450 </v>
   <v>       0.73716728       0.41197831       0.59431113 </v>
   <v>       0.68114944       0.47603079       0.60666376 </v>
   <v>       0.55354950       0.55780773       0.51477404 </v>
   <v>       0.58923926       0.57837761       0.48880883 </v>
   <v>       0.71567487       0.50237468       0.47837956 </v>
   <v>       0.57738294       0.44002767       0.53037189 </v>
   <v>       0.77176176       0.37584536       0.47899406 </v>
   <v>       0.63193652       0.32066516       0.53216589 </v>
   <v>       0.73141863       0.28504968       0.50634392 </v>
   <v>       0.00501017       0.24493630       0.55519454 </v>
   <v>       0.00201799       0.75363187       0.55617661 </v>
   <v>       0.49997653       0.25195795       0.55517513 </v>
   <v>       0.49754707       0.75329624       0.55665193 </v>
   <v>       0.25039927       0.50020670       0.55630969 </v>
   <v>       0.24962256       0.00066767       0.55532305 </v>
   <v>       0.75036687       0.99619876       0.55527250 </v>
   <v>       0.99787193       0.25216370       0.64748772 </v>
   <v>       0.99579410       0.74825306       0.64867851 </v>
   <v>       0.50045354       0.25383897       0.64921646 </v>
   <v>       0.50027182       0.74779736       0.64747441 </v>
   <v>       0.24672150       0.49896385       0.64933678 </v>
   <v>       0.24978300       0.99977586       0.64931865 </v>
   <v>       0.75444101       0.49848618       0.64957609 </v>
   <v>       0.74967870       0.00363418       0.64928935 </v>
   <v>       0.49998898       0.24999498       0.74327702 </v>
   <v>       0.49998903       0.74999496       0.74327702 </v>
   <v>       0.99998898       0.24999498       0.74327702 </v>
   <v>       0.99998903       0.74999496       0.74327702 </v>
   <v>       0.25000050       0.00000100       0.74325596 </v>
   <v>       0.25000052       0.50000100       0.74325596 </v>
   <v>       0.75000050       0.00000100       0.74325596 </v>
   <v>       0.75000049       0.50000100       0.74325596 </v>
   <v>       0.63661450       0.47950900       0.50350726 </v>
   <v>       0.69544250       0.45988663       0.48988033 </v>
   <v>       0.61651072       0.42661552       0.51863089 </v>
   <v>       0.72631268       0.39031319       0.49030904 </v>
   <v>       0.64770307       0.35807502       0.51953384 </v>
   <v>       0.70334952       0.33913300       0.50535016 </v>
   <v>       0.74722141       0.54331038       0.54076252 </v>
   <v>       0.82902766       0.48045793       0.56469510 </v>
   <v>       0.79673462       0.60153468       0.57308453 </v>
   <v>       0.70368977       0.49573051       0.57499086 </v>
   <v>       0.67828407       0.58816034       0.53833308 </v>
   <v>       0.66032131       0.61008548       0.51495816 </v>
   <v>       0.81113701       0.40553166       0.55645181 </v>
   <v>       0.86289669       0.63009739       0.56223501 </v>
   <v>       0.72433002       0.46927543       0.59561919 </v>
   <v>       0.60508242       0.55696645       0.50470913 </v>
   <v>       0.04525929       0.20006719       0.56609626 </v>
   <v>       0.04589680       0.70521733       0.56595188 </v>
   <v>       0.55073879       0.21375896       0.56472520 </v>
   <v>       0.53624722       0.70523887       0.56714371 </v>
   <v>       0.45452743       0.29603640       0.56482189 </v>
   <v>       0.45374621       0.80096222       0.56518311 </v>
   <v>       0.96056489       0.29452995       0.56301233 </v>
   <v>       0.96041175       0.80325997       0.56570433 </v>
   <v>       0.20668722       0.45322203       0.56598314 </v>
   <v>       0.20359055       0.95799353       0.56573974 </v>
   <v>       0.70643687       0.94932177       0.56440708 </v>
   <v>       0.29859781       0.04329469       0.56405349 </v>
   <v>       0.29476224       0.54583812       0.56579682 </v>
   <v>       0.79133687       0.04482113       0.56527078 </v>
   <v>       0.04261999       0.20792898       0.65953108 </v>
   <v>       0.04265812       0.70293652       0.65886194 </v>
   <v>       0.54696729       0.20694354       0.65901835 </v>
   <v>       0.54946588       0.70360167       0.65567179 </v>
   <v>       0.20144858       0.45583557       0.65881567 </v>
   <v>       0.20297328       0.95373771       0.65902061 </v>
   <v>       0.70716161       0.45329742       0.65915979 </v>
   <v>       0.70371225       0.95626270       0.65879034 </v>
   <v>       0.45453395       0.29790159       0.65873661 </v>
   <v>       0.45411420       0.78915818       0.65843382 </v>
   <v>       0.95091207       0.29860121       0.65545666 </v>
   <v>       0.95233572       0.79602278       0.65862355 </v>
   <v>       0.29543040       0.04469854       0.65856568 </v>
   <v>       0.29570625       0.54329311       0.65880462 </v>
   <v>       0.79469465       0.04871078       0.65872929 </v>
   <v>       0.79803022       0.54591658       0.65930039 </v>
   <v>       0.04586250       0.20411950       0.75272599 </v>
   <v>       0.04586250       0.70411946       0.75272599 </v>
   <v>       0.54586251       0.20411950       0.75272599 </v>
   <v>       0.54586250       0.70411946       0.75272599 </v>
   <v>       0.20411900       0.45410100       0.75270499 </v>
   <v>       0.20411899       0.95410095       0.75270499 </v>
   <v>       0.70411898       0.45410100       0.75270499 </v>
   <v>       0.70411896       0.95410095       0.75270499 </v>
   <v>       0.45414002       0.29588849       0.75272697 </v>
   <v>       0.45414001       0.79588852       0.75272697 </v>
   <v>       0.95414002       0.29588849       0.75272697 </v>
[...]
   <v>       0.58494793       0.17707989       0.55639461 </v>
   <v>       0.56996396       0.67105035       0.55889529 </v>
   <v>       0.33293406       0.07538314       0.55441881 </v>
   <v>       0.32755989       0.58132029       0.55672530 </v>
   <v>       0.82533018       0.08079695       0.55662110 </v>
   <v>       0.04381625       0.19805002       0.58169026 </v>
   <v>       0.05397269       0.70603047       0.58237985 </v>
   <v>       0.55852946       0.21308824       0.58117490 </v>
   <v>       0.54110306       0.70086078       0.58357913 </v>
   <v>       0.20269558       0.44745747       0.58197523 </v>
   <v>       0.20128112       0.95365498       0.58179508 </v>
   <v>       0.69895136       0.94495130       0.58030454 </v>
   <v>       0.41726371       0.32574485       0.55645963 </v>
   <v>       0.42593811       0.83649755       0.55617777 </v>
   <v>       0.93307774       0.32496696       0.55251334 </v>
   <v>       0.92587723       0.83450365       0.55705447 </v>
   <v>       0.17250942       0.41820979       0.55706265 </v>
   <v>       0.16564979       0.92519309       0.55740549 </v>
   <v>       0.67597752       0.91249162       0.55507977 </v>
   <v>       0.49743478       0.25100619       0.53796875 </v>
   <v>       0.50147825       0.75233147       0.53929317 </v>
   <v>       0.01114857       0.24098910       0.53785990 </v>
   <v>       0.00149253       0.75068523       0.53897365 </v>
   <v>       0.24846543       0.49995491       0.53954560 </v>
   <v>       0.24650523       0.00020754       0.53861066 </v>
   <v>       0.75344137       0.99488319       0.53854808 </v>
   <v>       0.44730233       0.30307822       0.67516855 </v>
   <v>       0.45095471       0.79188930       0.67502314 </v>
   <v>       0.94477917       0.30464813       0.67174575 </v>
   <v>       0.94744848       0.80218612       0.67407299 </v>
   <v>       0.30218363       0.05138772       0.67497192 </v>
   <v>       0.30093338       0.54890097       0.67524144 </v>
   <v>       0.80150472       0.05450844       0.67516196 </v>
   <v>       0.80266526       0.55540929       0.67469452 </v>
   <v>       0.07682123       0.17412018       0.65064027 </v>
   <v>       0.07357137       0.66846247       0.65007607 </v>
   <v>       0.57993030       0.17561019       0.64982150 </v>
   <v>       0.58308594       0.67350344       0.64517250 </v>
   <v>       0.16446615       0.42540152       0.64991631 </v>
   <v>       0.17029730       0.92154744       0.65028674 </v>
   <v>       0.67287082       0.41563460       0.65061670 </v>
   <v>       0.67146624       0.92409088       0.64991808 </v>
   <v>       0.04500447       0.20558556       0.67501874 </v>
   <v>       0.04843472       0.69830553       0.67487748 </v>
   <v>       0.55401092       0.20151776       0.67520500 </v>
   <v>       0.55584392       0.69780702       0.67198981 </v>
   <v>       0.19201039       0.45142870       0.67524510 </v>
   <v>       0.19802000       0.94886327       0.67548417 </v>
   <v>       0.70001871       0.45113842       0.67561334 </v>
   <v>       0.69900488       0.95031611       0.67522996 </v>
   <v>       0.42176320       0.33116211       0.64985123 </v>
   <v>       0.41764274       0.82192507       0.65066621 </v>
   <v>       0.91873086       0.33039786       0.64521645 </v>
   <v>       0.91904570       0.82752691       0.64918984 </v>
   <v>       0.32844239       0.07719221       0.64951022 </v>
   <v>       0.32984549       0.57336843       0.64991014 </v>
   <v>       0.82708736       0.08228538       0.64981570 </v>
   <v>       0.83267444       0.57800676       0.64890317 </v>
   <v>       0.00119514       0.24885070       0.63034782 </v>
   <v>       0.99167542       0.74378732       0.63156095 </v>
   <v>       0.50247404       0.25530179       0.63183182 </v>
   <v>       0.49943201       0.74866266       0.63025240 </v>
   <v>       0.24928476       0.99925993       0.63212973 </v>
   <v>       0.24789840       0.49590438       0.63215500 </v>
   <v>       0.74810704       0.00667399       0.63211001 </v>
   <v>       0.75881754       0.49405218       0.63296382 </v>
   <v>       0.44874502       0.30128397       0.76888902 </v>
   <v>       0.44874501       0.80128391       0.76888902 </v>
   <v>       0.94874497       0.30128397       0.76888902 </v>
   <v>       0.94874501       0.80128391       0.76888902 </v>
   <v>       0.30127600       0.05129450       0.76887296 </v>
   <v>       0.30127601       0.55129450       0.76887296 </v>
   <v>       0.80127594       0.05129450       0.76887296 </v>
   <v>       0.80127598       0.55129450       0.76887296 </v>
   <v>       0.07877100       0.17118050       0.74344197 </v>
   <v>       0.07877101       0.67118045       0.74344197 </v>
   <v>       0.57877100       0.17118050       0.74344197 </v>
   <v>       0.57877099       0.67118045       0.74344197 </v>
   <v>       0.17119950       0.42117448       0.74342103 </v>
   <v>       0.17119950       0.92117451       0.74342103 </v>
   <v>       0.67119951       0.42117448       0.74342103 </v>
   <v>       0.67119950       0.92117451       0.74342103 </v>
   <v>       0.05125600       0.19871499       0.76888902 </v>
   <v>       0.05125600       0.69871493       0.76888902 </v>
   <v>       0.55125603       0.19871499       0.76888902 </v>
   <v>       0.55125602       0.69871493       0.76888902 </v>
   <v>       0.19872349       0.44870397       0.76887205 </v>
   <v>       0.19872349       0.94870397       0.76887205 </v>
   <v>       0.69872352       0.44870397       0.76887205 </v>
   <v>       0.69872351       0.94870397       0.76887205 </v>
   <v>       0.42123152       0.32881747       0.74344197 </v>
   <v>       0.42123151       0.82881744       0.74344197 </v>
   <v>       0.92123147       0.32881747       0.74344197 </v>
   <v>       0.92123151       0.82881744       0.74344197 </v>
   <v>       0.32880050       0.07882500       0.74342103 </v>
   <v>       0.32880049       0.57882496       0.74342103 </v>
   <v>       0.82880048       0.07882500       0.74342103 </v>
   <v>       0.82880052       0.57882496       0.74342103 </v>
   <v>       0.00000350       0.25000148       0.72582199 </v>
   <v>       0.00000350       0.75000145       0.72582199 </v>
   <v>       0.50000351       0.25000148       0.72582199 </v>
   <v>       0.50000350       0.75000145       0.72582199 </v>
   <v>       0.25000050       0.00000000       0.72580398 </v>
   <v>       0.25000052       0.50000000       0.72580398 </v>
   <v>       0.75000050       0.00000000       0.72580398 </v>
   <v>       0.75000049       0.50000000       0.72580398 </v>
   <v>       0.79525457       0.57238924       0.53401617 </v>
   <v>       0.74125991       0.48871914       0.53282471 </v>
   <v>       0.87298331       0.50690673       0.55603577 </v>
   <v>       0.84574675       0.48145988       0.58109376 </v>
   <v>       0.75055073       0.63872174       0.57256447 </v>
   <v>       0.80241339       0.58529015       0.58986407 </v>
   <v>       0.66443622       0.54099388       0.57566720 </v>
   <v>       0.68037446       0.45398865       0.56447191 </v>
   <v>       0.62812724       0.56018949       0.54385573 </v>
   <v>       0.68818519       0.63909481       0.54812056 </v>
   <v>       0.63817239       0.66864267       0.51408573 </v>
   <v>       0.71103704       0.61253983       0.50454730 </v>
   <v>       0.80971509       0.39981298       0.53909904 </v>
   <v>       0.76123397       0.38251703       0.56251864 </v>
   <v>       0.85361238       0.37061039       0.56343948 </v>
   <v>       0.87010346       0.68374239       0.56951876 </v>
   <v>       0.86031111       0.63744926       0.54499994 </v>
   <v>       0.91209744       0.59806339       0.56641340 </v>
   <v>       0.77187113       0.49939050       0.60252450 </v>
   <v>       0.73716728       0.41197831       0.59431113 </v>
   <v>       0.68114944       0.47603079       0.60666376 </v>
   <v>       0.55354950       0.55780773       0.51477404 </v>
   <v>       0.58923926       0.57837761       0.48880883 </v>
   <v>       0.71567487       0.50237468       0.47837956 </v>
   <v>       0.57738294       0.44002767       0.53037189 </v>
   <v>       0.77176176       0.37584536       0.47899406 </v>
   <v>       0.63193652       0.32066516       0.53216589 </v>
   <v>       0.73141863       0.28504968       0.50634392 </v>
   <v>       0.00501017       0.24493630       0.55519454 </v>
   <v>       0.00201799       0.75363187       0.55617661 </v>
   <v>       0.49997653       0.25195795       0.55517513 </v>
   <v>       0.49754707       0.75329624       0.55665193 </v>
   <v>       0.25039927       0.50020670       0.55630969 </v>
   <v>       0.24962256       0.00066767       0.55532305 </v>
   <v>       0.75036687       0.99619876       0.55527250 </v>
   <v>       0.99787193       0.25216370       0.64748772 </v>
   <v>       0.99579410       0.74825306       0.64867851 </v>
   <v>       0.50045354       0.25383897       0.64921646 </v>
   <v>       0.50027182       0.74779736       0.64747441 </v>
   <v>       0.24672150       0.49896385       0.64933678 </v>
   <v>       0.24978300       0.99977586       0.64931865 </v>
   <v>       0.75444101       0.49848618       0.64957609 </v>
   <v>       0.74967870       0.00363418       0.64928935 </v>
   <v>       0.49998898       0.24999498       0.74327702 </v>
   <v>       0.49998903       0.74999496       0.74327702 </v>
   <v>       0.99998898       0.24999498       0.74327702 </v>
   <v>       0.99998903       0.74999496       0.74327702 </v>
   <v>       0.25000050       0.00000100       0.74325596 </v>
   <v>       0.25000052       0.50000100       0.74325596 </v>
   <v>       0.75000050       0.00000100       0.74325596 </v>
   <v>       0.75000049       0.50000100       0.74325596 </v>
   <v>       0.63661450       0.47950900       0.50350726 </v>
   <v>       0.69544250       0.45988663       0.48988033 </v>
   <v>       0.61651072       0.42661552       0.51863089 </v>
   <v>       0.72631268       0.39031319       0.49030904 </v>
   <v>       0.64770307       0.35807502       0.51953384 </v>
   <v>       0.70334952       0.33913300       0.50535016 </v>
   <v>       0.74722141       0.54331038       0.54076252 </v>
   <v>       0.82902766       0.48045793       0.56469510 </v>
   <v>       0.79673462       0.60153468       0.57308453 </v>
   <v>       0.70368977       0.49573051       0.57499086 </v>
   <v>       0.67828407       0.58816034       0.53833308 </v>
   <v>       0.66032131       0.61008548       0.51495816 </v>
   <v>       0.81113701       0.40553166       0.55645181 </v>
   <v>       0.86289669       0.63009739       0.56223501 </v>
   <v>       0.72433002       0.46927543       0.59561919 </v>
   <v>       0.60508242       0.55696645       0.50470913 </v>
   <v>       0.04525929       0.20006719       0.56609626 </v>
   <v>       0.04589680       0.70521733       0.56595188 </v>
   <v>       0.55073879       0.21375896       0.56472520 </v>
   <v>       0.53624722       0.70523887       0.56714371 </v>
   <v>       0.45452743       0.29603640       0.56482189 </v>
   <v>       0.45374621       0.80096222       0.56518311 </v>
   <v>       0.96056489       0.29452995       0.56301233 </v>
   <v>       0.96041175       0.80325997       0.56570433 </v>
   <v>       0.20668722       0.45322203       0.56598314 </v>
   <v>       0.20359055       0.95799353       0.56573974 </v>
   <v>       0.70643687       0.94932177       0.56440708 </v>
   <v>       0.29859781       0.04329469       0.56405349 </v>
   <v>       0.29476224       0.54583812       0.56579682 </v>
   <v>       0.79133687       0.04482113       0.56527078 </v>
   <v>       0.04261999       0.20792898       0.65953108 </v>
   <v>       0.04265812       0.70293652       0.65886194 </v>
   <v>       0.54696729       0.20694354       0.65901835 </v>
   <v>       0.54946588       0.70360167       0.65567179 </v>
   <v>       0.20144858       0.45583557       0.65881567 </v>
   <v>       0.20297328       0.95373771       0.65902061 </v>
   <v>       0.70716161       0.45329742       0.65915979 </v>
   <v>       0.70371225       0.95626270       0.65879034 </v>
   <v>       0.45453395       0.29790159       0.65873661 </v>
   <v>       0.45411420       0.78915818       0.65843382 </v>
   <v>       0.95091207       0.29860121       0.65545666 </v>
   <v>       0.95233572       0.79602278       0.65862355 </v>
   <v>       0.29543040       0.04469854       0.65856568 </v>
   <v>       0.29570625       0.54329311       0.65880462 </v>
   <v>       0.79469465       0.04871078       0.65872929 </v>
   <v>       0.79803022       0.54591658       0.65930039 </v>
   <v>       0.04586250       0.20411950       0.75272599 </v>
   <v>       0.04586250       0.70411946       0.75272599 </v>
   <v>       0.54586251       0.20411950       0.75272599 </v>
   <v>       0.54586250       0.70411946       0.75272599 </v>
   <v>       0.20411900       0.45410100       0.75270499 </v>
   <v>       0.20411899       0.95410095       0.75270499 </v>
   <v>       0.70411898       0.45410100       0.75270499 </v>
   <v>       0.70411896       0.95410095       0.75270499 </v>
   <v>       0.45414002       0.29588849       0.75272697 </v>
   <v>       0.45414001       0.79588852       0.75272697 </v>
   <v>       0.95414002       0.29588849       0.75272697 </v>
   <v>       0.95414006       0.79588852       0.75272697 </v>
   <v>       0.29588249       0.04590050       0.75270499 </v>
   <v>       0.29588248       0.54590053       0.75270499 </v>
   <v>       0.79588244       0.04590050       0.75270499 </v>
   <v>       0.79588248       0.54590053       0.75270499 </v>
   <v>       0.76811351       0.53249878       0.56411063 </v>
   <v>       0.49609320       0.99895110       0.55375938 </v>
   <v>       0.49346146       0.50631260       0.55379363 </v>
   <v>       0.00610824       0.99890513       0.55299848 </v>
   <v>       0.00664410       0.49345335       0.55018701 </v>
   <v>       0.24890222       0.25093019       0.55374778 </v>
   <v>       0.24892684       0.74847808       0.55384161 </v>
   <v>       0.75582017       0.24344852       0.55373783 </v>
   <v>       0.74390764       0.75648448       0.55015765 </v>
   <v>       0.99418052       0.99840792       0.65463057 </v>
   <v>       0.00144867       0.49370963       0.65437618 </v>
   <v>       0.49411319       0.99881449       0.65430500 </v>
   <v>       0.50141920       0.49791560       0.65364166 </v>
   <v>       0.24912010       0.25087222       0.65426550 </v>
   <v>       0.24914241       0.74907718       0.65462123 </v>
   <v>       0.74897733       0.25088584       0.65462575 </v>
   <v>       0.75110947       0.75108407       0.65354612 </v>
   <v>       0.14224305       0.10600292       0.60694659 </v>
   <v>       0.14194015       0.60583490       0.60648019 </v>
   <v>       0.64222764       0.10595507       0.60692388 </v>
   <v>       0.63679363       0.61316533       0.60926670 </v>
   <v>       0.35777478       0.39407772       0.60677664 </v>
   <v>       0.35596731       0.89216734       0.60661510 </v>
   <v>       0.86347698       0.38649355       0.60931492 </v>
   <v>       0.85554558       0.89143198       0.60674788 </v>
   <v>       0.10603764       0.35782830       0.60687633 </v>
   <v>       0.10596690       0.85350401       0.60679428 </v>
   <v>       0.60035223       0.35031461       0.60874273 </v>
   <v>       0.60812043       0.85581169       0.60690435 </v>
   <v>       0.39207561       0.14177684       0.60707656 </v>
   <v>       0.39210262       0.64200518       0.60704701 </v>
   <v>       0.89412153       0.14203655       0.60699482 </v>
   <v>       0.89962147       0.64973983       0.60935754 </v>
   <v>       0.00000000       0.00000000       0.75492797 </v>
   <v>       0.00000000       0.50000000       0.75492797 </v>
   <v>       0.50000000       0.00000000       0.75492797 </v>
   <v>       0.49999999       0.50000000       0.75492797 </v>
   <v>       0.25000050       0.25000000       0.75493902 </v>
   <v>       0.25000051       0.74999997       0.75493902 </v>
   <v>       0.75000047       0.25000000       0.75493902 </v>
   <v>       0.75000046       0.74999997       0.75493902 </v>
   <v>       0.13579050       0.11421000       0.70478299 </v>
   <v>       0.13579050       0.61420998       0.70478299 </v>
   <v>       0.63579045       0.11421000       0.70478299 </v>
   <v>       0.63579049       0.61420998       0.70478299 </v>
   <v>       0.36420952       0.38578999       0.70478299 </v>
   <v>       0.36420950       0.88578996       0.70478299 </v>
   <v>       0.86420954       0.38578999       0.70478299 </v>
   <v>       0.86420953       0.88578996       0.70478299 </v>
   <v>       0.11421799       0.36421899       0.70478098 </v>
   <v>       0.11421799       0.86421899       0.70478098 </v>
   <v>       0.61421800       0.36421899       0.70478098 </v>
   <v>       0.61421799       0.86421899       0.70478098 </v>
   <v>       0.38578201       0.13578149       0.70478202 </v>
   <v>       0.38578200       0.63578149       0.70478202 </v>
   <v>       0.88578199       0.13578149       0.70478202 </v>
   <v>       0.88578203       0.63578149       0.70478202 </v>
   <v>       0.13466700       0.11533200       0.80125603 </v>
   <v>       0.13466699       0.61533199       0.80125603 </v>
   <v>       0.63466699       0.11533200       0.80125603 </v>
   <v>       0.63466698       0.61533199       0.80125603 </v>
   <v>       0.36533300       0.38466799       0.80125603 </v>
   <v>       0.36533299       0.88466796       0.80125603 </v>
   <v>       0.86533295       0.38466799       0.80125603 </v>
   <v>       0.86533294       0.88466796       0.80125603 </v>
   <v>       0.11532850       0.36533700       0.80126500 </v>
   <v>       0.11532850       0.86533698       0.80126500 </v>
   <v>       0.61532850       0.36533700       0.80126500 </v>
   <v>       0.61532849       0.86533698       0.80126500 </v>
   <v>       0.38467151       0.13466300       0.80126500 </v>
   <v>       0.38467150       0.63466297       0.80126500 </v>
   <v>       0.88467149       0.13466300       0.80126500 </v>
   <v>       0.88467153       0.63466297       0.80126500 </v>
   <v>       0.00089172       0.00102105       0.60271027 </v>
   <v>       0.00267674       0.49910545       0.60347410 </v>
   <v>       0.50103876       0.00100127       0.60335957 </v>
   <v>       0.49710414       0.49905350       0.60300098 </v>
   <v>       0.25090608       0.24913198       0.60287717 </v>
   <v>       0.25092209       0.75086506       0.60331763 </v>
   <v>       0.74913921       0.24580240       0.60247042 </v>
   <v>       0.74639843       0.75530651       0.60377732 </v>
   <v>       0.00000050       0.00000050       0.70482896 </v>
   <v>       0.00000050       0.50000048       0.70482896 </v>
   <v>       0.50000048       0.00000050       0.70482896 </v>
   <v>       0.50000046       0.50000048       0.70482896 </v>
   <v>       0.24999999       0.24999947       0.70482499 </v>
   <v>       0.25000001       0.74999950       0.70482499 </v>
   <v>       0.74999999       0.24999947       0.70482499 </v>
   <v>       0.74999998       0.74999950       0.70482499 </v>
   <v>       0.00000000       0.00000000       0.80731797 </v>
   <v>       0.00000000       0.50000000       0.80731797 </v>
   <v>       0.50000000       0.00000000       0.80731797 </v>
   <v>       0.49999999       0.50000000       0.80731797 </v>
   <v>       0.24999999       0.25000000       0.80731797 </v>
   <v>       0.25000001       0.74999997       0.80731797 </v>
   <v>       0.74999999       0.25000000       0.80731797 </v>
   <v>       0.74999998       0.74999997       0.80731797 </v>
  </varray>
 </structure>
</modeling>
