 vasp.6.2.1 16May21 (build Nov 15 2021 14:57:28) complex                         
 executed on             LinuxPGI date 2023.07.25  02:03:56
 running on    4 total cores
 distrk:  each k-point on    4 cores,    1 groups
 distr:  one band on NCORE=   1 cores,    4 groups


--------------------------------------------------------------------------------------------------------


 INCAR:
   SYSTEM = PSC
   ISTART = 1
   ICHARG = 1
   PREC = Normal
   ENCUT = 500
   GGA_COMPAT = F
   NELM = 600
   ISYM = 0
   LREAL = Auto
   ISMEAR = 0
   SIGMA = 0.05
   AMIN = 0.01
   BMIX = 0.01
   LVTOT = T
   LWAVE = F
   LDIPOL = T
   IDIPOL = 3
   LVDW = T
   IVDW = 12

 POTCAR:    PAW_PBE H 15Jun2001                   
 POTCAR:    PAW_PBE C 08Apr2002                   
 POTCAR:    PAW_PBE N 08Apr2002                   
 POTCAR:    PAW_PBE I 08Apr2002                   
 POTCAR:    PAW_PBE Pb 08Apr2002                  
 WARNING: For LVTOT=.TRUE., VASP.5.x writes the TOTAL local potential to the
     file LOCPOT. If you want only the Hartree contributions, use LVHAR=.TRUE.
     instead. 

 POTCAR:    PAW_PBE H 15Jun2001                   
   SHA256 =  030f79b5d3ab3cf0e668861823c8fb652ff669f3e15e46930bd03bfd63a607b6 H/POTCAR              
   COPYR  = (c) Copyright 15Jun2001 Georg Kresse                                                    
   COPYR  = This file is part of the software VASP. Any use, copying, and all other rights are regul
   COPYR  = If you do not have a valid VASP license, you may not use, copy or distribute this file. 
   VRHFIN =H: ultrasoft test                                                                        
   LEXCH  = PE                                                                                      
   EATOM  =    12.4884 eV,    0.9179 Ry                                                             
                                                                                                    
   TITEL  = PAW_PBE H 15Jun2001                                                                     
   LULTRA =        F    use ultrasoft PP ?                                                          
   IUNSCR =        0    unscreen: 0-lin 1-nonlin 2-no                                               
   RPACOR =    0.000    partial core radius                                                         
   POMASS =    1.000; ZVAL   =    1.000    mass and valenz                                          
   RCORE  =    1.100    outmost cutoff radius                                                       
   RWIGS  =    0.700; RWIGS  =    0.370    wigner-seitz radius (au A)                               
   ENMAX  =  250.000; ENMIN  =  200.000 eV                                                          
   RCLOC  =    0.701    cutoff for local pot                                                        
   LCOR   =        T    correct aug charges                                                         
   LPAW   =        T    paw PP                                                                      
   EAUG   =  400.000                                                                                
   RMAX   =    1.123    core radius for proj-oper                                                   
   RAUG   =    1.200    factor for augmentation sphere                                              
   RDEP   =    1.112    radius for radial grids                                                     
   RDEPT  =    0.926    core radius for aug-charge                                                  
                                                                                                    
   Atomic configuration                                                                             
    2 entries                                                                                       
     n  l   j            E        occ.                                                              
     1  0  0.50        -6.4927   1.0000                                                             
     2  1  0.50        -3.4015   0.0000                                                             
   Description                                                                                      
     l       E           TYP  RCUT    TYP  RCUT                                                     
     0     -6.4927494     23  1.100                                                                 
     0      6.8029130     23  1.100                                                                 
     1     -4.0817478     23  1.100                                                                 
  local pseudopotential read in
  atomic valenz-charges read in
  non local Contribution for L=            0  read in
    real space projection operators read in
  non local Contribution for L=            0  read in
    real space projection operators read in
  non local Contribution for L=            1  read in
    real space projection operators read in
    PAW grid and wavefunctions read in
 
   number of l-projection  operators is LMAX  =            3
   number of lm-projection operators is LMMAX =            5
 
 POTCAR:    PAW_PBE C 08Apr2002                   
   SHA256 =  253f7b50bb8d59471dbedb8285d89021f4a42ed1a2c5d38a03a736e69125dd95 C/POTCAR              
   COPYR  = (c) Copyright 08Apr2002 Georg Kresse                                                    
   COPYR  = This file is part of the software VASP. Any use, copying, and all other rights are regul
   COPYR  = If you do not have a valid VASP license, you may not use, copy or distribute this file. 
   VRHFIN =C: s2p2                                                                                  
   LEXCH  = PE                                                                                      
   EATOM  =   147.1560 eV,   10.8157 Ry                                                             
                                                                                                    
   TITEL  = PAW_PBE C 08Apr2002                                                                     
   LULTRA =        F    use ultrasoft PP ?                                                          
   IUNSCR =        1    unscreen: 0-lin 1-nonlin 2-no                                               
   RPACOR =    1.200    partial core radius                                                         
   POMASS =   12.011; ZVAL   =    4.000    mass and valenz                                          
   RCORE  =    1.500    outmost cutoff radius                                                       
   RWIGS  =    1.630; RWIGS  =    0.863    wigner-seitz radius (au A)                               
   ENMAX  =  400.000; ENMIN  =  300.000 eV                                                          
   ICORE  =        2    local potential                                                             
   LCOR   =        T    correct aug charges                                                         
   LPAW   =        T    paw PP                                                                      
   EAUG   =  644.873                                                                                
   DEXC   =    0.000                                                                                
   RMAX   =    1.529    core radius for proj-oper                                                   
   RAUG   =    1.300    factor for augmentation sphere                                              
   RDEP   =    1.501    radius for radial grids                                                     
   RDEPT  =    1.300    core radius for aug-charge                                                  
                                                                                                    
   Atomic configuration                                                                             
    4 entries                                                                                       
     n  l   j            E        occ.                                                              
     1  0  0.50      -273.3789   2.0000                                                             
     2  0  0.50       -13.7508   2.0000                                                             
     2  1  0.50        -5.2854   2.0000                                                             
     3  2  1.50        -5.4423   0.0000                                                             
   Description                                                                                      
     l       E           TYP  RCUT    TYP  RCUT                                                     
     0    -13.7508458     23  1.200                                                                 
     0     -8.2022199     23  1.200                                                                 
     1     -5.2854383     23  1.500                                                                 
     1     34.0145650     23  1.500                                                                 
     2     -5.4423304      7  1.500                                                                 
  local pseudopotential read in
  partial core-charges read in
  partial kinetic energy density read in
  atomic valenz-charges read in
  non local Contribution for L=            0  read in
    real space projection operators read in
  non local Contribution for L=            0  read in
    real space projection operators read in
  non local Contribution for L=            1  read in
    real space projection operators read in
  non local Contribution for L=            1  read in
    real space projection operators read in
    PAW grid and wavefunctions read in
 
   number of l-projection  operators is LMAX  =            4
   number of lm-projection operators is LMMAX =            8
 
 POTCAR:    PAW_PBE N 08Apr2002                   
   SHA256 =  e053789ff3a61a86a1b75d8a110fcc91f86041011e7b0817c7c99e4e8a6349d7 N/POTCAR              
   COPYR  = (c) Copyright 08Apr2002 Georg Kresse                                                    
   COPYR  = This file is part of the software VASP. Any use, copying, and all other rights are regul
   COPYR  = If you do not have a valid VASP license, you may not use, copy or distribute this file. 
   VRHFIN =N: s2p3                                                                                  
   LEXCH  = PE                                                                                      
   EATOM  =   264.5486 eV,   19.4438 Ry                                                             
                                                                                                    
   TITEL  = PAW_PBE N 08Apr2002                                                                     
   LULTRA =        F    use ultrasoft PP ?                                                          
   IUNSCR =        1    unscreen: 0-lin 1-nonlin 2-no                                               
   RPACOR =    1.200    partial core radius                                                         
   POMASS =   14.001; ZVAL   =    5.000    mass and valenz                                          
   RCORE  =    1.500    outmost cutoff radius                                                       
   RWIGS  =    1.400; RWIGS  =    0.741    wigner-seitz radius (au A)                               
   ENMAX  =  400.000; ENMIN  =  300.000 eV                                                          
   ICORE  =        2    local potential                                                             
   LCOR   =        T    correct aug charges                                                         
   LPAW   =        T    paw PP                                                                      
   EAUG   =  627.112                                                                                
   DEXC   =    0.000                                                                                
   RMAX   =    1.529    core radius for proj-oper                                                   
   RAUG   =    1.300    factor for augmentation sphere                                              
   RDEP   =    1.514    radius for radial grids                                                     
   RDEPT  =    1.338    core radius for aug-charge                                                  
                                                                                                    
   Atomic configuration                                                                             
    4 entries                                                                                       
     n  l   j            E        occ.                                                              
     1  0  0.50      -384.7179   2.0000                                                             
     2  0  0.50       -18.5828   2.0000                                                             
     2  1  0.50        -7.0898   3.0000                                                             
     3  2  1.50        -6.8029   0.0000                                                             
   Description                                                                                      
     l       E           TYP  RCUT    TYP  RCUT                                                     
     0    -18.5828119     23  1.200                                                                 
     0    -13.5018863     23  1.200                                                                 
     1     -7.0897853     23  1.500                                                                 
     1      9.5240782     23  1.500                                                                 
     2     -6.8029130      7  1.500                                                                 
  local pseudopotential read in
  partial core-charges read in
  partial kinetic energy density read in
  atomic valenz-charges read in
  non local Contribution for L=            0  read in
    real space projection operators read in
  non local Contribution for L=            0  read in
    real space projection operators read in
  non local Contribution for L=            1  read in
    real space projection operators read in
  non local Contribution for L=            1  read in
    real space projection operators read in
    PAW grid and wavefunctions read in
 
   number of l-projection  operators is LMAX  =            4
   number of lm-projection operators is LMMAX =            8
 
 POTCAR:    PAW_PBE I 08Apr2002                   
   SHA256 =  e40f3f59b681c1fc3e3091736183c4589116986673d2b852a5012aec72758799 I/POTCAR              
   COPYR  = (c) Copyright 08Apr2002 Georg Kresse                                                    
   COPYR  = This file is part of the software VASP. Any use, copying, and all other rights are regul
   COPYR  = If you do not have a valid VASP license, you may not use, copy or distribute this file. 
   VRHFIN =I : s2p5                                                                                 
   LEXCH  = PE                                                                                      
   EATOM  =   315.8678 eV,   23.2156 Ry                                                             
                                                                                                    
   TITEL  = PAW_PBE I 08Apr2002                                                                     
   LULTRA =        F    use ultrasoft PP ?                                                          
   IUNSCR =        1    unscreen: 0-lin 1-nonlin 2-no                                               
   RPACOR =    2.200    partial core radius                                                         
   POMASS =  126.904; ZVAL   =    7.000    mass and valenz                                          
   RCORE  =    2.300    outmost cutoff radius                                                       
   RWIGS  =    2.810; RWIGS  =    1.487    wigner-seitz radius (au A)                               
   ENMAX  =  175.647; ENMIN  =  131.735 eV                                                          
   ICORE  =        3    local potential                                                             
   LCOR   =        T    correct aug charges                                                         
   LPAW   =        T    paw PP                                                                      
   EAUG   =  370.139                                                                                
   DEXC   =    0.000                                                                                
   RMAX   =    2.359    core radius for proj-oper                                                   
   RAUG   =    1.300    factor for augmentation sphere                                              
   RDEP   =    2.392    radius for radial grids                                                     
   RDEPT  =    2.170    core radius for aug-charge                                                  
                                                                                                    
   Atomic configuration                                                                             
   13 entries                                                                                       
     n  l   j            E        occ.                                                              
     1  0  0.50    -32976.3739   2.0000                                                             
     2  0  0.50     -5094.5933   2.0000                                                             
     2  1  1.50     -4572.0131   6.0000                                                             
     3  0  0.50     -1028.2813   2.0000                                                             
     3  1  1.50      -859.0250   6.0000                                                             
     3  2  2.50      -605.7620  10.0000                                                             
     4  0  0.50      -180.5540   2.0000                                                             
     4  1  1.50      -127.5306   6.0000                                                             
     4  2  2.50       -50.2720  10.0000                                                             
     5  0  0.50       -17.4058   2.0000                                                             
     5  1  0.50        -7.0851   5.0000                                                             
     5  2  1.50        -7.0750   0.0000                                                             
     4  3  2.50        -7.0750   0.0000                                                             
   Description                                                                                      
     l       E           TYP  RCUT    TYP  RCUT                                                     
     0    -17.4058016     23  2.300                                                                 
     0    -18.7663842     23  2.300                                                                 
     1     -7.0850686     23  2.300                                                                 
     1     -4.2150896     23  2.300                                                                 
     2     -7.0750295     23  2.300                                                                 
     3     -1.3605826     23  2.300                                                                 
  local pseudopotential read in
  partial core-charges read in
  partial kinetic energy density read in
  atomic valenz-charges read in
  non local Contribution for L=            0  read in
    real space projection operators read in
  non local Contribution for L=            0  read in
    real space projection operators read in
  non local Contribution for L=            1  read in
    real space projection operators read in
  non local Contribution for L=            1  read in
    real space projection operators read in
  non local Contribution for L=            2  read in
    real space projection operators read in
    PAW grid and wavefunctions read in
 
   number of l-projection  operators is LMAX  =            5
   number of lm-projection operators is LMMAX =           13
 
 POTCAR:    PAW_PBE Pb 08Apr2002                  
   SHA256 =  797118a27cf1bcd06b9881c67a26cdde129e3cd1a551dd4a281f9681ce847303 Pb/POTCAR             
   COPYR  = (c) Copyright 08Apr2002 Georg Kresse                                                    
   COPYR  = This file is part of the software VASP. Any use, copying, and all other rights are regul
   COPYR  = If you do not have a valid VASP license, you may not use, copy or distribute this file. 
   VRHFIN =Pb:                                                                                      
   LEXCH  = PE                                                                                      
   EATOM  =    96.9868 eV,    7.1283 Ry                                                             
                                                                                                    
   TITEL  = PAW_PBE Pb 08Apr2002                                                                    
   LULTRA =        F    use ultrasoft PP ?                                                          
   IUNSCR =        1    unscreen: 0-lin 1-nonlin 2-no                                               
   RPACOR =    2.200    partial core radius                                                         
   POMASS =  207.200; ZVAL   =    4.000    mass and valenz                                          
   RCORE  =    3.100    outmost cutoff radius                                                       
   RWIGS  =    3.260; RWIGS  =    1.725    wigner-seitz radius (au A)                               
   ENMAX  =   97.973; ENMIN  =   73.480 eV                                                          
   ICORE  =        3    local potential                                                             
   LCOR   =        T    correct aug charges                                                         
   LPAW   =        T    paw PP                                                                      
   EAUG   =  234.873                                                                                
   DEXC   =    0.000                                                                                
   RMAX   =    3.158    core radius for proj-oper                                                   
   RAUG   =    1.300    factor for augmentation sphere                                              
   RDEP   =    3.202    radius for radial grids                                                     
   RDEPT  =    2.659    core radius for aug-charge                                                  
                                                                                                    
   Atomic configuration                                                                             
   17 entries                                                                                       
     n  l   j            E        occ.                                                              
     1  0  0.50    -88091.8466   2.0000                                                             
     2  0  0.50    -15753.4197   2.0000                                                             
     2  1  1.50    -13508.1797   6.0000                                                             
     3  0  0.50     -3781.7194   2.0000                                                             
     3  1  1.50     -3138.2529   6.0000                                                             
     3  2  2.50     -2483.2977  10.0000                                                             
     4  0  0.50      -856.2895   2.0000                                                             
     4  1  1.50      -645.4943   6.0000                                                             
     4  2  2.50      -401.8768  10.0000                                                             
     4  3  3.50      -132.9059  14.0000                                                             
     5  0  0.50      -144.0950   2.0000                                                             
     5  1  1.50       -85.7879   6.0000                                                             
     5  2  2.50       -21.1769  10.0000                                                             
     6  0  0.50       -12.0372   2.0000                                                             
     6  1  1.50        -3.4971   2.0000                                                             
     6  2  2.50        -1.3606   0.0000                                                             
     5  3  2.50        -2.7212   0.0000                                                             
   Description                                                                                      
     l       E           TYP  RCUT    TYP  RCUT                                                     
     0    -12.0371566     23  3.100                                                                 
     0    -13.3977392     23  3.100                                                                 
     1     -3.4971341     23  3.100                                                                 
     1     -5.4423304     23  3.100                                                                 
     2     -1.3605826     23  3.100                                                                 
     3     -1.3605826     23  3.100                                                                 
  local pseudopotential read in
  partial core-charges read in
  partial kinetic energy density read in
  atomic valenz-charges read in
  non local Contribution for L=            0  read in
    real space projection operators read in
  non local Contribution for L=            0  read in
    real space projection operators read in
  non local Contribution for L=            1  read in
    real space projection operators read in
  non local Contribution for L=            1  read in
    real space projection operators read in
  non local Contribution for L=            2  read in
    real space projection operators read in
    PAW grid and wavefunctions read in
 
   number of l-projection  operators is LMAX  =            5
   number of lm-projection operators is LMMAX =           13
 
 Optimization of the real space projectors (new method)

 maximal supplied QI-value         = 34.20
 optimisation between [QCUT,QGAM] = [ 11.29, 22.57] = [ 35.68,142.71] Ry 
 Optimized for a Real-space Cutoff    1.16 Angstroem

   l    n(q)    QCUT    max X(q) W(low)/X(q) W(high)/X(q)  e(spline) 
   0      8    11.287    19.460    0.40E-03    0.73E-03    0.16E-06
   0      8    11.287    12.209    0.38E-03    0.70E-03    0.15E-06
   1      7    11.287     4.655    0.22E-03    0.25E-04    0.22E-06
 Optimization of the real space projectors (new method)

 maximal supplied QI-value         = 25.13
 optimisation between [QCUT,QGAM] = [ 11.31, 22.87] = [ 35.82,146.48] Ry 
 Optimized for a Real-space Cutoff    1.00 Angstroem

   l    n(q)    QCUT    max X(q) W(low)/X(q) W(high)/X(q)  e(spline) 
   0      7    11.310   115.676    0.43E-03    0.13E-02    0.19E-06
   0      7    11.310    87.132    0.43E-03    0.13E-02    0.18E-06
   1      6    11.310     4.429    0.42E-03    0.74E-03    0.11E-06
   1      6    11.310     2.733    0.34E-03    0.55E-03    0.92E-07
 Optimization of the real space projectors (new method)

 maximal supplied QI-value         = 25.13
 optimisation between [QCUT,QGAM] = [ 11.31, 22.87] = [ 35.82,146.48] Ry 
 Optimized for a Real-space Cutoff    1.27 Angstroem

   l    n(q)    QCUT    max X(q) W(low)/X(q) W(high)/X(q)  e(spline) 
   0      9    11.310    79.467    0.75E-04    0.16E-03    0.36E-06
   0      9    11.310    66.151    0.74E-04    0.16E-03    0.36E-06
   1      8    11.310    17.416    0.35E-03    0.12E-03    0.95E-06
   1      8    11.310    12.382    0.37E-03    0.13E-03    0.98E-06
 Optimization of the real space projectors (new method)

 maximal supplied QI-value         = 16.25
 optimisation between [QCUT,QGAM] = [ 11.38, 22.75] = [ 36.24,144.96] Ry 
 Optimized for a Real-space Cutoff    1.31 Angstroem

   l    n(q)    QCUT    max X(q) W(low)/X(q) W(high)/X(q)  e(spline) 
   0      9    11.376   194.483    0.24E-03    0.23E-03    0.67E-07
   0      9    11.376   190.334    0.23E-03    0.22E-03    0.65E-07
   1      8    11.376   116.687    0.25E-03    0.63E-04    0.16E-06
   1      8    11.376    88.696    0.25E-03    0.61E-04    0.16E-06
   2      8    11.376     4.877    0.17E-03    0.14E-03    0.29E-07
 Optimization of the real space projectors (new method)

 maximal supplied QI-value         = 12.09
 optimisation between [QCUT,QGAM] = [ 11.37, 22.86] = [ 36.19,146.31] Ry 
 Optimized for a Real-space Cutoff    1.66 Angstroem

   l    n(q)    QCUT    max X(q) W(low)/X(q) W(high)/X(q)  e(spline) 
   0     11    11.369   135.111    0.12E-03    0.69E-04    0.19E-05
   0     11    11.369   146.850    0.11E-03    0.65E-04    0.18E-05
   1     11    11.369   148.016    0.17E-03    0.32E-03    0.89E-06
   1     11    11.369   122.989    0.17E-03    0.32E-03    0.91E-06
   2     10    11.369     8.916    0.12E-03    0.45E-04    0.33E-06
  PAW_PBE H 15Jun2001                   :
 energy of atom  1       EATOM=  -12.4884
 kinetic energy error for atom=    0.0020 (will be added to EATOM!!)
  PAW_PBE C 08Apr2002                   :
 energy of atom  2       EATOM= -147.1560
 kinetic energy error for atom=    0.0076 (will be added to EATOM!!)
  PAW_PBE N 08Apr2002                   :
 energy of atom  3       EATOM= -264.5486
 kinetic energy error for atom=    0.0138 (will be added to EATOM!!)
  PAW_PBE I 08Apr2002                   :
 energy of atom  4       EATOM= -315.8678
 kinetic energy error for atom=    0.0009 (will be added to EATOM!!)
  PAW_PBE Pb 08Apr2002                  :
 energy of atom  5       EATOM=  -96.9868
 kinetic energy error for atom=    0.0000 (will be added to EATOM!!)
 
 
 POSCAR:  H  C  N  I Pb
  positions in cartesian coordinates
  No initial velocities read in
 exchange correlation table for  LEXCH =        8
   RHO(1)=    0.500       N(1)  =     2000
   RHO(2)=  100.500       N(2)  =     4000
 


--------------------------------------------------------------------------------------------------------


 ion  position               nearest neighbor table
   1  0.451  0.334  0.565- 187 1.02
   2  0.429  0.831  0.569- 188 1.03
   3  0.961  0.328  0.576- 189 1.04
   4  0.946  0.815  0.573- 190 1.03
   5  0.330  0.954  0.573- 194 1.03
   6  0.353  0.548  0.559- 195 1.04
   7  0.806  0.088  0.566- 196 1.04
   8  0.011  0.143  0.560- 183 1.03
   9  0.071  0.660  0.569- 184 1.02
  10  0.554  0.163  0.557- 185 1.02
  11  0.496  0.645  0.560- 186 1.02
  12  0.363  0.026  0.557- 194 1.03
  13  0.299  0.628  0.554- 195 1.03
  14  0.877  0.025  0.559- 196 1.03
  15  0.955  0.192  0.578- 183 1.03
  16  0.992  0.690  0.583- 184 1.03
  17  0.566  0.253  0.567- 185 1.02
  18  0.432  0.695  0.575- 186 1.03
  19  0.280  0.437  0.572- 191 1.03
  20  0.196  0.928  0.572- 192 1.03
  21  0.680  0.033  0.570- 193 1.02
  22  0.372  0.291  0.554- 187 1.03
  23  0.497  0.869  0.553- 188 1.03
  24  0.018  0.369  0.557- 189 1.03
  25  0.995  0.865  0.554- 190 1.03
  26  0.185  0.442  0.568- 191 1.02
  27  0.139  0.991  0.559- 192 1.03
  28  0.671  0.939  0.562- 193 1.03
  29  0.433  0.181  0.547- 146 1.10
  30  0.548  0.752  0.544- 147 1.09
  31  0.062  0.252  0.545- 144 1.09
  32  0.084  0.769  0.550- 145 1.10
  33  0.188  0.562  0.556- 148 1.09
  34  0.241  0.063  0.547- 149 1.09
  35  0.795  0.926  0.555- 150 1.09
  36  0.486  0.339  0.662- 205 1.02
  37  0.450  0.812  0.673- 206 1.02
  38  0.966  0.283  0.677- 207 1.02
  39  0.929  0.725  0.673- 208 1.03
  40  0.309  0.056  0.670- 209 1.01
  41  0.298  0.548  0.675- 210 1.01
  42  0.801  0.056  0.675- 211 1.01
  43  0.758  0.598  0.658- 212 1.02
  44  0.085  0.162  0.645- 197 1.02
  45  0.115  0.719  0.650- 198 1.03
  46  0.573  0.162  0.651- 199 1.02
  47  0.563  0.663  0.651- 200 1.02
  48  0.178  0.413  0.648- 201 1.03
  49  0.174  0.921  0.650- 202 1.03
  50  0.701  0.405  0.661- 203 1.02
  51  0.674  0.922  0.650- 204 1.03
  52  0.063  0.180  0.672- 197 1.03
  53  0.058  0.675  0.669- 198 1.02
  54  0.595  0.251  0.659- 199 1.03
  55  0.532  0.695  0.676- 200 1.02
  56  0.199  0.444  0.674- 201 1.01
  57  0.208  0.955  0.674- 202 1.01
  58  0.666  0.495  0.664- 203 1.02
  59  0.698  0.959  0.675- 204 1.01
  60  0.398  0.300  0.658- 205 1.03
  61  0.436  0.845  0.648- 206 1.02
  62  0.937  0.326  0.653- 207 1.02
  63  0.904  0.796  0.656- 208 1.02
  64  0.332  0.077  0.644- 209 1.02
  65  0.330  0.577  0.650- 210 1.03
  66  0.835  0.076  0.649- 211 1.02
  67  0.846  0.570  0.650- 212 1.01
  68  0.009  0.253  0.631- 151 1.10
  69  0.022  0.800  0.640- 152 1.10
  70  0.447  0.184  0.649- 153 1.10
  71  0.506  0.754  0.631- 154 1.10
  72  0.249  0.994  0.629- 156 1.09
  73  0.259  0.493  0.632- 155 1.09
  74  0.759  0.992  0.632- 158 1.09
  75  0.818  0.445  0.651- 157 1.10
  76  0.449  0.301  0.769- 221 1.02
  77  0.449  0.801  0.769- 222 1.02
  78  0.949  0.301  0.769- 223 1.02
  79  0.949  0.801  0.769- 224 1.02
  80  0.301  0.051  0.769- 225 1.02
  81  0.301  0.551  0.769- 226 1.02
  82  0.801  0.051  0.769- 227 1.02
  83  0.801  0.551  0.769- 228 1.02
  84  0.079  0.171  0.743- 213 1.02
  85  0.079  0.671  0.743- 214 1.02
  86  0.579  0.171  0.743- 215 1.02
  87  0.579  0.671  0.743- 216 1.02
  88  0.171  0.421  0.743- 217 1.02
  89  0.171  0.921  0.743- 218 1.02
  90  0.671  0.421  0.743- 219 1.02
  91  0.671  0.921  0.743- 220 1.02
  92  0.051  0.199  0.769- 213 1.02
  93  0.051  0.699  0.769- 214 1.02
  94  0.551  0.199  0.769- 215 1.02
  95  0.551  0.699  0.769- 216 1.02
  96  0.199  0.449  0.769- 217 1.02
  97  0.199  0.949  0.769- 218 1.02
  98  0.699  0.449  0.769- 219 1.02
  99  0.699  0.949  0.769- 220 1.02
 100  0.421  0.329  0.743- 221 1.02
 101  0.421  0.829  0.743- 222 1.02
 102  0.921  0.329  0.743- 223 1.02
 103  0.921  0.829  0.743- 224 1.02
 104  0.329  0.079  0.743- 225 1.02
 105  0.329  0.579  0.743- 226 1.02
 106  0.829  0.079  0.743- 227 1.02
 107  0.829  0.579  0.743- 228 1.02
 108  0.000  0.250  0.726- 161 1.09
 109  0.000  0.750  0.726- 162 1.09
 110  0.500  0.250  0.726- 159 1.09
 111  0.500  0.750  0.726- 160 1.09
 112  0.250  0.000  0.726- 163 1.09
 113  0.250  0.500  0.726- 164 1.09
 114  0.750  0.000  0.726- 165 1.09
 115  0.750  0.500  0.726- 166 1.09
 116  0.776  0.557  0.520- 173 1.10
 117  0.720  0.478  0.525- 173 1.10
 118  0.869  0.501  0.539- 174 1.10
 119  0.858  0.481  0.567- 174 1.10
 120  0.745  0.642  0.560- 175 1.09
 121  0.811  0.596  0.576- 175 1.10
 122  0.666  0.548  0.569- 176 1.10
 123  0.680  0.454  0.560- 176 1.10
 124  0.617  0.558  0.537- 177 1.10
 125  0.673  0.638  0.535- 177 1.10
 126  0.606  0.646  0.504- 178 1.10
 127  0.687  0.602  0.494- 178 1.10
 128  0.785  0.390  0.530- 179 1.09
 129  0.779  0.372  0.558- 179 1.09
 130  0.866  0.368  0.545- 179 1.10
 131  0.863  0.696  0.554- 180 1.10
 132  0.842  0.647  0.530- 180 1.10
 133  0.907  0.610  0.549- 180 1.09
 134  0.769  0.529  0.597- 181 1.10
 135  0.773  0.434  0.589- 181 1.09
 136  0.690  0.470  0.600- 181 1.10
 137  0.536  0.529  0.504- 182 1.10
 138  0.575  0.547  0.479- 182 1.10
 139  0.700  0.480  0.470- 168 1.09
 140  0.557  0.415  0.521- 169 1.09
 141  0.764  0.359  0.472- 170 1.09
 142  0.622  0.294  0.524- 171 1.09
 143  0.727  0.266  0.499- 172 1.09
 144  0.019  0.255  0.558-  31 1.09 183 1.31 189 1.31
 145  0.036  0.762  0.561-  32 1.10 184 1.31 190 1.32
 146  0.464  0.227  0.554-  29 1.10 185 1.32 187 1.32
 147  0.499  0.757  0.555-  30 1.09 186 1.32 188 1.32
 148  0.240  0.534  0.560-  33 1.09 195 1.31 191 1.32
 149  0.250  0.013  0.557-  34 1.09 192 1.31 194 1.31
 150  0.775  0.981  0.560-  35 1.09 196 1.31 193 1.31
 151  0.011  0.244  0.649-  68 1.10 197 1.30 207 1.31
 152  0.010  0.760  0.652-  69 1.10 198 1.31 208 1.31
 153  0.484  0.229  0.654-  70 1.10 199 1.32 205 1.32
 154  0.500  0.754  0.649-  71 1.10 206 1.31 200 1.31
 155  0.254  0.495  0.649-  73 1.09 210 1.31 201 1.32
 156  0.253  0.998  0.647-  72 1.09 202 1.31 209 1.32
 157  0.775  0.485  0.655-  75 1.10 203 1.31 212 1.32
 158  0.755  0.999  0.649-  74 1.09 204 1.30 211 1.32
 159  0.500  0.250  0.743- 110 1.09 221 1.31 215 1.31
 160  0.500  0.750  0.743- 111 1.09 222 1.31 216 1.31
 161  1.000  0.250  0.743- 108 1.09 223 1.31 213 1.31
 162  1.000  0.750  0.743- 109 1.09 224 1.31 214 1.31
 163  0.250  0.000  0.743- 112 1.09 225 1.31 218 1.31
 164  0.250  0.500  0.743- 113 1.09 226 1.31 217 1.31
 165  0.750  0.000  0.743- 114 1.09 227 1.31 220 1.31
 166  0.750  0.500  0.743- 115 1.09 228 1.31 219 1.31
 167  0.625  0.456  0.495- 168 1.40 169 1.41 182 1.51
 168  0.683  0.439  0.482- 139 1.09 170 1.40 167 1.40
 169  0.603  0.402  0.510- 140 1.09 171 1.40 167 1.41
 170  0.719  0.371  0.483- 141 1.09 172 1.39 168 1.40
 171  0.639  0.334  0.512- 142 1.09 172 1.40 169 1.40
 172  0.698  0.318  0.498- 143 1.09 170 1.39 171 1.40
 173  0.732  0.535  0.530- 117 1.10 116 1.10 177 1.51 229 1.52
 174  0.831  0.478  0.551- 118 1.10 119 1.10 179 1.51 229 1.52
 175  0.793  0.605  0.560- 120 1.09 121 1.10 229 1.52 180 1.52
 176  0.707  0.503  0.568- 122 1.10 123 1.10 181 1.52 229 1.53
 177  0.663  0.583  0.528- 124 1.10 125 1.10 173 1.51 178 1.54
 178  0.638  0.594  0.505- 126 1.10 127 1.10 177 1.54 182 1.55
 179  0.813  0.398  0.546- 129 1.09 128 1.09 130 1.10 174 1.51
 180  0.855  0.640  0.547- 133 1.09 131 1.10 132 1.10 175 1.52
 181  0.737  0.483  0.590- 135 1.09 136 1.10 134 1.10 176 1.52
 182  0.589  0.532  0.495- 137 1.10 138 1.10 167 1.51 178 1.55
 183  0.994  0.193  0.566-   8 1.03  15 1.03 144 1.31
 184  0.033  0.700  0.572-   9 1.02  16 1.03 145 1.31
 185  0.534  0.215  0.559-  10 1.02  17 1.02 146 1.32
 186  0.473  0.695  0.563-  11 1.02  18 1.03 147 1.32
 187  0.428  0.290  0.557-   1 1.02  22 1.03 146 1.32
 188  0.471  0.823  0.558-  23 1.03   2 1.03 147 1.32
 189  0.995  0.321  0.563-  24 1.03   3 1.04 144 1.31
 190  0.986  0.815  0.562-   4 1.03  25 1.03 145 1.32
 191  0.236  0.464  0.565-  26 1.02  19 1.03 148 1.32
 192  0.192  0.974  0.562-  20 1.03  27 1.03 149 1.31
 193  0.703  0.986  0.564-  21 1.02  28 1.03 150 1.31
 194  0.318  0.996  0.562-  12 1.03   5 1.03 149 1.31
 195  0.302  0.572  0.558-  13 1.03   6 1.04 148 1.31
 196  0.823  0.034  0.563-  14 1.03   7 1.04 150 1.31
 197  0.055  0.192  0.656-  44 1.02  52 1.03 151 1.30
 198  0.063  0.713  0.657-  53 1.02  45 1.03 152 1.31
 199  0.555  0.214  0.655-  46 1.02  54 1.03 153 1.32
 200  0.533  0.700  0.659-  55 1.02  47 1.02 154 1.31
 201  0.208  0.448  0.658-  56 1.01  48 1.03 155 1.32
 202  0.209  0.956  0.658-  57 1.01  49 1.03 156 1.31
 203  0.709  0.461  0.660-  58 1.02  50 1.02 157 1.31
 204  0.706  0.958  0.659-  59 1.01  51 1.03 158 1.30
 205  0.455  0.295  0.658-  36 1.02  60 1.03 153 1.32
 206  0.460  0.807  0.657-  61 1.02  37 1.02 154 1.31
 207  0.969  0.287  0.660-  62 1.02  38 1.02 151 1.31
 208  0.944  0.761  0.661-  63 1.02  39 1.03 152 1.31
 209  0.301  0.046  0.654-  40 1.01  64 1.02 156 1.32
 210  0.297  0.542  0.659-  41 1.01  65 1.03 155 1.31
 211  0.800  0.047  0.658-  42 1.01  66 1.02 158 1.32
 212  0.795  0.556  0.655-  67 1.01  43 1.02 157 1.32
 213  0.046  0.204  0.753-  92 1.02  84 1.02 161 1.31
 214  0.046  0.704  0.753-  93 1.02  85 1.02 162 1.31
 215  0.546  0.204  0.753-  94 1.02  86 1.02 159 1.31
 216  0.546  0.704  0.753-  95 1.02  87 1.02 160 1.31
 217  0.204  0.454  0.753-  96 1.02  88 1.02 164 1.31
 218  0.204  0.954  0.753-  97 1.02  89 1.02 163 1.31
 219  0.704  0.454  0.753-  98 1.02  90 1.02 166 1.31
 220  0.704  0.954  0.753-  99 1.02  91 1.02 165 1.31
 221  0.454  0.296  0.753-  76 1.02 100 1.02 159 1.31
 222  0.454  0.796  0.753-  77 1.02 101 1.02 160 1.31
 223  0.954  0.296  0.753-  78 1.02 102 1.02 161 1.31
 224  0.954  0.796  0.753-  79 1.02 103 1.02 162 1.31
 225  0.296  0.046  0.753-  80 1.02 104 1.02 163 1.31
 226  0.296  0.546  0.753-  81 1.02 105 1.02 164 1.31
 227  0.796  0.046  0.753-  82 1.02 106 1.02 165 1.31
 228  0.796  0.546  0.753-  83 1.02 107 1.02 166 1.31
 229  0.765  0.530  0.552- 173 1.52 175 1.52 174 1.52 176 1.53
 230  0.512  0.018  0.552- 304 3.24
 231  0.480  0.497  0.555- 305 3.13
 232  0.008  0.005  0.549- 302 3.53
 233  0.039  0.506  0.553- 303 3.28
 234  0.236  0.242  0.552- 306 3.14
 235  0.257  0.766  0.554- 307 3.16
 236  0.737  0.202  0.555- 308 3.11
 237  0.702  0.792  0.554- 309 3.21
 238  0.000  0.983  0.654- 302 3.07 310 3.20
 239  0.996  0.505  0.655- 311 3.12 303 3.13
 240  0.500  0.012  0.654- 304 3.18 312 3.18
 241  0.511  0.490  0.655- 313 3.11 305 3.16
 242  0.261  0.246  0.654- 314 3.17 306 3.25
 243  0.261  0.754  0.655- 315 3.15 307 3.18
 244  0.750  0.263  0.655- 316 3.15 308 3.24
 245  0.744  0.751  0.655- 317 3.14 309 3.21
 246  0.136  0.112  0.607- 306 3.17 302 3.21
 247  0.152  0.603  0.608- 307 3.14 303 3.20
 248  0.648  0.105  0.610- 308 3.11 304 3.18
 249  0.616  0.629  0.610- 309 3.20 305 3.28
 250  0.360  0.386  0.605- 305 3.14 306 3.25
 251  0.374  0.880  0.606- 304 3.28 307 3.29
 252  0.891  0.365  0.610- 303 3.27 308 3.45
 253  0.871  0.876  0.605- 302 3.20 309 3.25
 254  0.124  0.368  0.609- 306 3.17 303 3.23
 255  0.123  0.865  0.607- 307 3.20 302 3.27
 256  0.592  0.337  0.601- 308 3.18 305 3.28
 257  0.617  0.872  0.612- 309 3.09 304 3.25
 258  0.385  0.134  0.604- 304 3.13 306 3.22
 259  0.386  0.629  0.611- 305 3.21 307 3.23
 260  0.887  0.133  0.611- 302 3.21 308 3.35
 261  0.897  0.643  0.611- 303 3.24 309 3.54
 262  0.000  0.000  0.755- 310 3.13 318 3.27
 263  0.000  0.500  0.755- 311 3.13 319 3.27
 264  0.500  0.000  0.755- 312 3.13 320 3.27
 265  0.500  0.500  0.755- 313 3.13 321 3.27
 266  0.250  0.250  0.755- 314 3.13 322 3.27
 267  0.250  0.750  0.755- 315 3.13 323 3.27
 268  0.750  0.250  0.755- 316 3.13 324 3.27
 269  0.750  0.750  0.755- 317 3.13 325 3.27
 270  0.136  0.114  0.705- 310 3.20 314 3.20
 271  0.136  0.614  0.705- 311 3.20 315 3.20
 272  0.636  0.114  0.705- 312 3.20 316 3.20
 273  0.636  0.614  0.705- 313 3.20 317 3.20
 274  0.364  0.386  0.705- 313 3.20 314 3.20
 275  0.364  0.886  0.705- 312 3.20 315 3.20
 276  0.864  0.386  0.705- 311 3.20 316 3.20
 277  0.864  0.886  0.705- 310 3.20 317 3.20
 278  0.114  0.364  0.705- 314 3.21 311 3.21
 279  0.114  0.864  0.705- 315 3.21 310 3.21
 280  0.614  0.364  0.705- 316 3.21 313 3.21
 281  0.614  0.864  0.705- 317 3.21 312 3.21
 282  0.386  0.136  0.705- 314 3.21 312 3.21
 283  0.386  0.636  0.705- 315 3.21 313 3.21
 284  0.886  0.136  0.705- 316 3.21 310 3.21
 285  0.886  0.636  0.705- 317 3.21 311 3.21
 286  0.135  0.115  0.801- 318 3.22 322 3.22
 287  0.135  0.615  0.801- 319 3.22 323 3.22
 288  0.635  0.115  0.801- 320 3.22 324 3.22
 289  0.635  0.615  0.801- 321 3.22 325 3.22
 290  0.365  0.385  0.801- 321 3.22 322 3.22
 291  0.365  0.885  0.801- 320 3.22 323 3.22
 292  0.865  0.385  0.801- 319 3.22 324 3.22
 293  0.865  0.885  0.801- 318 3.22 325 3.22
 294  0.115  0.365  0.801- 319 3.23 322 3.23
 295  0.115  0.865  0.801- 318 3.23 323 3.23
 296  0.615  0.365  0.801- 321 3.23 324 3.23
 297  0.615  0.865  0.801- 320 3.23 325 3.23
 298  0.385  0.135  0.801- 320 3.23 322 3.23
 299  0.385  0.635  0.801- 321 3.23 323 3.23
 300  0.885  0.135  0.801- 318 3.23 324 3.23
 301  0.885  0.635  0.801- 319 3.23 325 3.23
 302  0.000  0.998  0.605- 238 3.07 253 3.20 246 3.21 260 3.21 255 3.27 232 3.53
 303  0.007  0.503  0.605- 239 3.13 247 3.20 254 3.23 261 3.24 252 3.27 233 3.28
 304  0.504  0.007  0.603- 258 3.13 240 3.18 248 3.18 230 3.24 257 3.25 251 3.28
 305  0.498  0.492  0.605- 231 3.13 250 3.14 241 3.16 259 3.21 249 3.28 256 3.28
 306  0.248  0.246  0.602- 234 3.14 254 3.17 246 3.17 258 3.22 250 3.25 242 3.25
 307  0.252  0.745  0.604- 247 3.14 235 3.16 243 3.18 255 3.20 259 3.23 251 3.29
 308  0.743  0.247  0.603- 236 3.11 248 3.11 256 3.18 244 3.24 260 3.35 252 3.45
 309  0.738  0.755  0.603- 257 3.09 249 3.20 245 3.21 237 3.21 253 3.25 261 3.54
 310  0.000  0.000  0.705- 262 3.13 238 3.20 270 3.20 277 3.20 279 3.21 284 3.21
 311  0.000  0.500  0.705- 239 3.12 263 3.13 271 3.20 276 3.20 278 3.21 285 3.21
 312  0.500  0.000  0.705- 264 3.13 240 3.18 272 3.20 275 3.20 281 3.21 282 3.21
 313  0.500  0.500  0.705- 241 3.11 265 3.13 273 3.20 274 3.20 280 3.21 283 3.21
 314  0.250  0.250  0.705- 266 3.13 242 3.17 270 3.20 274 3.20 282 3.21 278 3.21
 315  0.250  0.750  0.705- 267 3.13 243 3.15 271 3.20 275 3.20 283 3.21 279 3.21
 316  0.750  0.250  0.705- 268 3.13 244 3.15 272 3.20 276 3.20 284 3.21 280 3.21
 317  0.750  0.750  0.705- 269 3.13 245 3.14 273 3.20 277 3.20 285 3.21 281 3.21
 318  0.000  0.000  0.807- 286 3.22 293 3.22 300 3.23 295 3.23 262 3.27
 319  0.000  0.500  0.807- 287 3.22 292 3.22 301 3.23 294 3.23 263 3.27
 320  0.500  0.000  0.807- 288 3.22 291 3.22 298 3.23 297 3.23 264 3.27
 321  0.500  0.500  0.807- 289 3.22 290 3.22 299 3.23 296 3.23 265 3.27
 322  0.250  0.250  0.807- 290 3.22 286 3.22 294 3.23 298 3.23 266 3.27
 323  0.250  0.750  0.807- 291 3.22 287 3.22 299 3.23 295 3.23 267 3.27
 324  0.750  0.250  0.807- 292 3.22 288 3.22 296 3.23 300 3.23 268 3.27
 325  0.750  0.750  0.807- 293 3.22 289 3.22 297 3.23 301 3.23 269 3.27
 

IMPORTANT INFORMATION: All symmetrisations will be switched off!
NOSYMM: (Re-)initialisation of all symmetry stuff for point group C_1.


----------------------------------------------------------------------------------------

                                     Primitive cell                                     

  volume of cell :   20385.2105

  direct lattice vectors                    reciprocal lattice vectors
    18.060800552  0.000000000  0.000000000     0.055368531  0.000015077 -0.000000000
    -0.004918649 18.062799454  0.000000000     0.000000000  0.055362404  0.000000000
     0.000000000  0.000000000 62.487499237     0.000000000 -0.000000000  0.016003201

  length of vectors
    18.060800552 18.062800123 62.487499237     0.055368533  0.055362404  0.016003201

  position of ions in fractional coordinates (direct lattice)
     0.451466497  0.334380312  0.564821284
     0.428719232  0.830645561  0.568966828
     0.960650200  0.328195246  0.576425473
     0.945674682  0.814820294  0.573301374
     0.329656905  0.954277054  0.573049187
     0.353376184  0.547792481  0.559242715
     0.806169252  0.087762533  0.566372315
     0.010651347  0.142800442  0.559975466
     0.070617427  0.659505133  0.569349412
     0.554222489  0.162887935  0.556980849
     0.496024000  0.645074201  0.560101163
     0.363176763  0.025949962  0.557149095
     0.298628491  0.627580105  0.553918347
     0.877361759  0.024822116  0.558861169
     0.955453910  0.191701621  0.578114959
     0.991998146  0.689843380  0.583004792
     0.565620691  0.252765676  0.567079976
     0.432203470  0.694713546  0.575127911
     0.280054404  0.436632963  0.572107348
     0.196410629  0.927814915  0.571809376
     0.679685313  0.033229696  0.569730896
     0.371841697  0.290721918  0.554391097
     0.496923666  0.869404196  0.552554548
     0.018235803  0.368749214  0.557254280
     0.994838721  0.864953508  0.554309965
     0.184868752  0.441725512  0.567802899
     0.139112128  0.990682176  0.558511367
     0.671212797  0.939475802  0.562372247
     0.432986839  0.181106891  0.547369490
     0.547642710  0.752186379  0.544443612
     0.061760997  0.251919513  0.545378919
     0.083599271  0.769198697  0.550052156
     0.187694546  0.561836933  0.556036385
     0.241400410  0.063094773  0.547154970
     0.794655247  0.926326812  0.555098575
     0.485597143  0.339295303  0.662338958
     0.449720596  0.811525401  0.673481323
     0.965682458  0.283083305  0.676738444
     0.928909928  0.724985689  0.673071451
     0.309028335  0.055705325  0.670165780
     0.298029656  0.548414965  0.675166292
     0.801009663  0.056173542  0.674505026
     0.758286125  0.597985303  0.657753324
     0.085487403  0.162357160  0.644768244
     0.114803621  0.718743839  0.650469274
     0.573129905  0.162103823  0.651028895
     0.563429263  0.662543008  0.650713158
     0.178065541  0.413358996  0.648091174
     0.174270456  0.920535557  0.649984009
     0.700878946  0.405031241  0.660978578
     0.673827203  0.922208182  0.650170691
     0.062826453  0.180371340  0.671554851
     0.058430783  0.674963456  0.669158437
     0.595133919  0.251430607  0.659233661
     0.531718433  0.694619618  0.675578850
     0.199321441  0.443767595  0.673891989
     0.207688361  0.954633534  0.674152356
     0.666044895  0.494511151  0.663974417
     0.697622512  0.958941035  0.675173434
     0.398475676  0.299842299  0.657524335
     0.436138317  0.844708968  0.647705416
     0.936969841  0.325863594  0.653052249
     0.904040905  0.795639364  0.655686504
     0.331669284  0.076946078  0.643727264
     0.329981556  0.576621505  0.650150485
     0.835288799  0.076426668  0.649033013
     0.845858147  0.570382506  0.650340159
     0.009495363  0.252980246  0.631306750
     0.021832348  0.800001246  0.639538438
     0.446998776  0.184263534  0.649002489
     0.506463866  0.753742803  0.631482994
     0.248722472  0.993992500  0.629313126
     0.258765116  0.493318292  0.631529695
     0.758987357  0.992275405  0.631916369
     0.818438665  0.444643457  0.651203735
     0.448745018  0.301283966  0.768889017
     0.448745007  0.801283913  0.768889017
     0.948744965  0.301283966  0.768889017
     0.948745007  0.801283913  0.768889017
     0.301275995  0.051294496  0.768872961
     0.301276011  0.551294499  0.768872961
     0.801275943  0.051294496  0.768872961
     0.801275984  0.551294499  0.768872961
     0.078771004  0.171180501  0.743441971
     0.078771006  0.671180448  0.743441971
     0.578771004  0.171180501  0.743441971
     0.578770992  0.671180448  0.743441971
     0.171199499  0.421174482  0.743421032
     0.171199501  0.921174508  0.743421032
     0.671199512  0.421174482  0.743421032
     0.671199501  0.921174508  0.743421032
     0.051256000  0.198714991  0.768889017
     0.051256002  0.698714925  0.768889017
     0.551256027  0.198714991  0.768889017
     0.551256016  0.698714925  0.768889017
     0.198723491  0.448703970  0.768872046
     0.198723493  0.948703970  0.768872046
     0.698723518  0.448703970  0.768872046
     0.698723507  0.948703970  0.768872046
     0.421231519  0.328817467  0.743441971
     0.421231508  0.828817440  0.743441971
     0.921231466  0.328817467  0.743441971
     0.921231508  0.828817440  0.743441971
     0.328800503  0.078824997  0.743421032
     0.328800492  0.578824964  0.743421032
     0.828800477  0.078824997  0.743421032
     0.828800519  0.578824964  0.743421032
     0.000003500  0.250001478  0.725821992
     0.000003500  0.750001452  0.725821992
     0.500003506  0.250001478  0.725821992
     0.500003495  0.750001452  0.725821992
     0.250000502  0.000000000  0.725803983
     0.250000517  0.500000000  0.725803983
     0.750000502  0.000000000  0.725803983
     0.750000490  0.500000000  0.725803983
     0.776239182  0.557107262  0.519659541
     0.719904930  0.478402308  0.524906562
     0.868594111  0.501057221  0.539013388
     0.858482160  0.481209139  0.566561867
     0.744658950  0.641783901  0.560199449
     0.811028614  0.595983953  0.576289948
     0.666275460  0.547921624  0.569156136
     0.679739212  0.454308287  0.560477825
     0.617364785  0.557746959  0.537009203
     0.673072871  0.638118051  0.535138956
     0.606451342  0.645750910  0.503769187
     0.686894337  0.602365928  0.494433549
     0.785461664  0.390265096  0.530283431
     0.779180548  0.371546674  0.557903336
     0.865688062  0.367833834  0.544902444
     0.863151237  0.695758782  0.553527338
     0.842301919  0.647108074  0.529858908
     0.907269498  0.609673447  0.548644831
     0.768608823  0.528670367  0.597275773
     0.772622746  0.433892313  0.589211172
     0.690449431  0.470292158  0.600138346
     0.536449482  0.529462016  0.504181989
     0.575274780  0.546954845  0.478598258
     0.699633535  0.479729589  0.469610438
     0.557352513  0.414709588  0.521310873
     0.764122383  0.358872110  0.471546860
     0.621709101  0.293508977  0.523693429
     0.726817454  0.265555391  0.499069333
     0.018683354  0.255087983  0.557636253
     0.036111679  0.761865254  0.560836906
     0.464107914  0.227297067  0.554369487
     0.499310750  0.756536118  0.554913236
     0.240032580  0.534221993  0.559658753
     0.250194115  0.013219644  0.556734401
     0.774829387  0.980702049  0.560135594
     0.011142624  0.244050649  0.648649086
     0.009938523  0.759693315  0.652217243
     0.484289069  0.229463542  0.653696116
     0.500010694  0.753555265  0.648947913
     0.254447536  0.494898316  0.648968180
     0.252730746  0.998486013  0.646732199
     0.775251240  0.485220656  0.655240919
     0.754806652  0.998538658  0.649303331
     0.499988984  0.249994984  0.743277021
     0.499989025  0.749994958  0.743277021
     0.999988984  0.249994984  0.743277021
     0.999989025  0.749994958  0.743277021
     0.250000502  0.000001000  0.743255960
     0.250000517  0.500001003  0.743255960
     0.750000502  0.000001000  0.743255960
     0.750000491  0.500001003  0.743255960
     0.624609175  0.456173894  0.495423126
     0.683154830  0.439066013  0.481522641
     0.603132601  0.402084126  0.510431347
     0.719126333  0.370762443  0.482613222
     0.639452921  0.333767251  0.511700338
     0.697908151  0.318310539  0.497786575
     0.731714646  0.535374250  0.529838579
     0.830946811  0.477565253  0.550969331
     0.792794765  0.605125612  0.559753132
     0.706598706  0.502659579  0.567841419
     0.663148663  0.583273646  0.528066374
     0.638075720  0.594043374  0.504695306
     0.813021621  0.397988318  0.545703447
     0.855098922  0.639972729  0.546961145
     0.737411335  0.483139159  0.589681176
     0.589140561  0.531804175  0.495248622
     0.994273902  0.193202027  0.565963786
     0.032774722  0.700265699  0.571897651
     0.534347547  0.215418930  0.558729734
     0.472572541  0.695372250  0.563443811
     0.428047244  0.289948379  0.557393468
     0.471092536  0.822850244  0.558252526
     0.995223481  0.321023628  0.563298458
     0.985987098  0.814713326  0.561659702
     0.236109027  0.464084574  0.565367353
     0.192065267  0.974105918  0.562364372
     0.703319066  0.986481023  0.563562671
     0.318206878  0.996156418  0.562323653
     0.301692352  0.571986711  0.557616596
     0.822947100  0.034235958  0.562898597
     0.055190006  0.192193432  0.655575337
     0.062875805  0.713204410  0.657161348
     0.555305885  0.213782479  0.654951799
     0.533291870  0.700037983  0.659357649
     0.207722162  0.448396476  0.657925355
     0.209071496  0.955937466  0.657970652
     0.708943531  0.460891158  0.659758302
     0.706160984  0.957512415  0.659153201
     0.455007759  0.294604133  0.657997391
     0.460217012  0.806565796  0.657490576
     0.968725487  0.286535562  0.660410288
     0.944273620  0.761163678  0.661188520
     0.301190301  0.046371826  0.654350177
     0.296534833  0.542180507  0.659051984
     0.799564461  0.046980980  0.658486686
     0.794530071  0.555770002  0.655078350
     0.045862501  0.204119496  0.752725994
     0.045862500  0.704119456  0.752725994
     0.545862507  0.204119496  0.752725994
     0.545862496  0.704119456  0.752725994
     0.204119002  0.454101003  0.752704994
     0.204118991  0.954100951  0.752704994
     0.704118976  0.454101003  0.752704994
     0.704118964  0.954100951  0.752704994
     0.454140018  0.295888490  0.752726971
     0.454140007  0.795888516  0.752726971
     0.954140018  0.295888490  0.752726971
     0.954140060  0.795888516  0.752726971
     0.295882492  0.045900498  0.752704994
     0.295882481  0.545900528  0.752704994
     0.795882439  0.045900498  0.752704994
     0.795882481  0.545900528  0.752704994
     0.765242339  0.530437612  0.552038576
     0.511916899  0.017582684  0.551599523
     0.479700513  0.496521212  0.554948338
     0.008039533  0.005103535  0.548544957
     0.038666854  0.505633726  0.553314283
     0.235914851  0.242309856  0.552160427
     0.256574391  0.765692718  0.553504751
     0.737033659  0.202488482  0.554820993
     0.701954660  0.792228738  0.554152952
     0.000452633  0.983270266  0.653810213
     0.995762946  0.504871538  0.654966817
     0.499765276  0.011976325  0.654105255
     0.511168997  0.490313681  0.655299769
     0.260796258  0.246406377  0.654187059
     0.260650737  0.753641484  0.654588567
     0.749733720  0.263236305  0.654500415
     0.744181893  0.751414160  0.654680016
     0.135796288  0.112053027  0.607195116
     0.151962637  0.603472621  0.608389752
     0.648414890  0.104758945  0.610115927
     0.616191527  0.628844240  0.609810873
     0.360361101  0.386131485  0.605104610
     0.373987274  0.880282582  0.606473170
     0.890730231  0.364858710  0.609879430
     0.871192176  0.876323335  0.604952480
     0.124184113  0.368367328  0.609369501
     0.122816806  0.865067393  0.607335586
     0.591802413  0.337231388  0.601428032
     0.617466817  0.871516262  0.612426143
     0.385468337  0.133958160  0.603988969
     0.385984509  0.628923278  0.611018024
     0.886762209  0.132795119  0.610868336
     0.897220454  0.643406058  0.610922424
     0.000000000  0.000000000  0.754927972
     0.000000000  0.500000000  0.754927972
     0.500000000  0.000000000  0.754927972
     0.499999989  0.500000000  0.754927972
     0.250000496  0.250000000  0.754939022
     0.250000511  0.749999974  0.754939022
     0.750000470  0.250000000  0.754939022
     0.750000458  0.749999974  0.754939022
     0.135790500  0.114209997  0.704782994
     0.135790502  0.614209984  0.704782994
     0.635790447  0.114209997  0.704782994
     0.635790488  0.614209984  0.704782994
     0.364209516  0.385789989  0.704782994
     0.364209505  0.885789963  0.704782994
     0.864209542  0.385789989  0.704782994
     0.864209531  0.885789963  0.704782994
     0.114217990  0.364218986  0.704780979
     0.114217992  0.864218986  0.704780979
     0.614218004  0.364218986  0.704780979
     0.614217992  0.864218986  0.704780979
     0.385782012  0.135781489  0.704782017
     0.385782001  0.635781489  0.704782017
     0.885781985  0.135781489  0.704782017
     0.885782027  0.635781489  0.704782017
     0.134667000  0.115332001  0.801256025
     0.134666989  0.615331988  0.801256025
     0.634666987  0.115332001  0.801256025
     0.634666976  0.615331988  0.801256025
     0.365333002  0.384667985  0.801256025
     0.365332990  0.884667959  0.801256025
     0.865332949  0.384667985  0.801256025
     0.865332938  0.884667959  0.801256025
     0.115328503  0.365337004  0.801264999
     0.115328505  0.865336978  0.801264999
     0.615328503  0.365337004  0.801264999
     0.615328492  0.865336978  0.801264999
     0.384671513  0.134662996  0.801264999
     0.384671501  0.634662970  0.801264999
     0.884671486  0.134662996  0.801264999
     0.884671528  0.634662970  0.801264999
     0.000189343  0.997709954  0.604872935
     0.006796739  0.502735396  0.605052964
     0.503595522  0.007258447  0.603324652
     0.497772117  0.492302148  0.604810423
     0.247610945  0.246392254  0.602356135
     0.252227293  0.744776802  0.603769992
     0.742884941  0.246753839  0.602883096
     0.738442422  0.754943423  0.603317204
     0.000000500  0.000000500  0.704828963
     0.000000500  0.500000475  0.704828963
     0.500000475  0.000000500  0.704828963
     0.500000464  0.500000475  0.704828963
     0.249999994  0.249999472  0.704824995
     0.250000010  0.749999498  0.704824995
     0.749999994  0.249999472  0.704824995
     0.749999983  0.749999498  0.704824995
     0.000000000  0.000000000  0.807317968
     0.000000000  0.500000000  0.807317968
     0.500000000  0.000000000  0.807317968
     0.499999989  0.500000000  0.807317968
     0.249999994  0.250000000  0.807317968
     0.250000010  0.749999974  0.807317968
     0.749999994  0.250000000  0.807317968
     0.749999983  0.749999974  0.807317968

  ion indices of the primitive-cell ions
   primitive index   ion index
                 1           1
                 2           2
                 3           3
                 4           4
                 5           5
                 6           6
                 7           7
                 8           8
                 9           9
                10          10
                11          11
                12          12
                13          13
                14          14
                15          15
                16          16
                17          17
                18          18
                19          19
                20          20
                21          21
                22          22
                23          23
                24          24
                25          25
                26          26
                27          27
                28          28
                29          29
                30          30
                31          31
                32          32
                33          33
                34          34
                35          35
                36          36
                37          37
                38          38
                39          39
                40          40
                41          41
                42          42
                43          43
                44          44
                45          45
                46          46
                47          47
                48          48
                49          49
                50          50
                51          51
                52          52
                53          53
                54          54
                55          55
                56          56
                57          57
                58          58
                59          59
                60          60
                61          61
                62          62
                63          63
                64          64
                65          65
                66          66
                67          67
                68          68
                69          69
                70          70
                71          71
                72          72
                73          73
                74          74
                75          75
                76          76
                77          77
                78          78
                79          79
                80          80
                81          81
                82          82
                83          83
                84          84
                85          85
                86          86
                87          87
                88          88
                89          89
                90          90
                91          91
                92          92
                93          93
                94          94
                95          95
                96          96
                97          97
                98          98
                99          99
               100         100
               101         101
               102         102
               103         103
               104         104
               105         105
               106         106
               107         107
               108         108
               109         109
               110         110
               111         111
               112         112
               113         113
               114         114
               115         115
               116         116
               117         117
               118         118
               119         119
               120         120
               121         121
               122         122
               123         123
               124         124
               125         125
               126         126
               127         127
               128         128
               129         129
               130         130
               131         131
               132         132
               133         133
               134         134
               135         135
               136         136
               137         137
               138         138
               139         139
               140         140
               141         141
               142         142
               143         143
               144         144
               145         145
               146         146
               147         147
               148         148
               149         149
               150         150
               151         151
               152         152
               153         153
               154         154
               155         155
               156         156
               157         157
               158         158
               159         159
               160         160
               161         161
               162         162
               163         163
               164         164
               165         165
               166         166
               167         167
               168         168
               169         169
               170         170
               171         171
               172         172
               173         173
               174         174
               175         175
               176         176
               177         177
               178         178
               179         179
               180         180
               181         181
               182         182
               183         183
               184         184
               185         185
               186         186
               187         187
               188         188
               189         189
               190         190
               191         191
               192         192
               193         193
               194         194
               195         195
               196         196
               197         197
               198         198
               199         199
               200         200
               201         201
               202         202
               203         203
               204         204
               205         205
               206         206
               207         207
               208         208
               209         209
               210         210
               211         211
               212         212
               213         213
               214         214
               215         215
               216         216
               217         217
               218         218
               219         219
               220         220
               221         221
               222         222
               223         223
               224         224
               225         225
               226         226
               227         227
               228         228
               229         229
               230         230
               231         231
               232         232
               233         233
               234         234
               235         235
               236         236
               237         237
               238         238
               239         239
               240         240
               241         241
               242         242
               243         243
               244         244
               245         245
               246         246
               247         247
               248         248
               249         249
               250         250
               251         251
               252         252
               253         253
               254         254
               255         255
               256         256
               257         257
               258         258
               259         259
               260         260
               261         261
               262         262
               263         263
               264         264
               265         265
               266         266
               267         267
               268         268
               269         269
               270         270
               271         271
               272         272
               273         273
               274         274
               275         275
               276         276
               277         277
               278         278
               279         279
               280         280
               281         281
               282         282
               283         283
               284         284
               285         285
               286         286
               287         287
               288         288
               289         289
               290         290
               291         291
               292         292
               293         293
               294         294
               295         295
               296         296
               297         297
               298         298
               299         299
               300         300
               301         301
               302         302
               303         303
               304         304
               305         305
               306         306
               307         307
               308         308
               309         309
               310         310
               311         311
               312         312
               313         313
               314         314
               315         315
               316         316
               317         317
               318         318
               319         319
               320         320
               321         321
               322         322
               323         323
               324         324
               325         325

----------------------------------------------------------------------------------------

 
 
 KPOINTS: Automatic Mesh                          

Automatic generation of k-mesh.
 Grid dimensions read from file:
 generate k-points for:    3    3    1

 Generating k-lattice:

  Cartesian coordinates                     Fractional coordinates (reciprocal lattice)
     0.018456177  0.000005026 -0.000000000     0.333333333  0.000000000  0.000000000
     0.000000000  0.018454135  0.000000000     0.000000000  0.333333333  0.000000000
     0.000000000 -0.000000000  0.016003201     0.000000000  0.000000000  1.000000000

  Length of vectors
     0.018456178  0.018454135  0.016003201

  Shift w.r.t. Gamma in fractional coordinates (k-lattice)
     0.000000000  0.000000000  0.000000000

 
 Subroutine IBZKPT returns following result:
 ===========================================
 
 Found      5 irreducible k-points:
 
 Following reciprocal coordinates:
            Coordinates               Weight
  0.000000  0.000000  0.000000      1.000000
  0.333333  0.000000  0.000000      2.000000
  0.000000  0.333333  0.000000      2.000000
  0.333333  0.333333  0.000000      2.000000
 -0.333333  0.333333  0.000000      2.000000
 
 Following cartesian coordinates:
            Coordinates               Weight
  0.000000  0.000000  0.000000      1.000000
  0.018456  0.000005  0.000000      2.000000
  0.000000  0.018454  0.000000      2.000000
  0.018456  0.018459  0.000000      2.000000
 -0.018456  0.018449  0.000000      2.000000
 


--------------------------------------------------------------------------------------------------------




 Dimension of arrays:
   k-points           NKPTS =      5   k-points in BZ     NKDIM =      5   number of bands    NBANDS=    732
   number of dos      NEDOS =    301   number of ions     NIONS =    325
   non local maximal  LDIM  =      5   non local SUM 2l+1 LMDIM =     13
   total plane-waves  NPLWV = ******
   max r-space proj   IRMAX =   3336   max aug-charges    IRDMAX=  19845
   dimension x,y,z NGX =   100 NGY =  100 NGZ =  350
   dimension x,y,z NGXF=   200 NGYF=  200 NGZF=  700
   support grid    NGXF=   200 NGYF=  200 NGZF=  700
   ions per type =             143  39  47  72  24
   NGX,Y,Z   is equivalent  to a cutoff of   9.20,  9.20,  9.31 a.u.
   NGXF,Y,Z  is equivalent  to a cutoff of  18.41, 18.41, 18.62 a.u.

 SYSTEM =  PSC                                     
 POSCAR =   H  C  N  I Pb                          

 Startparameter for this run:
   NWRITE =      2    write-flag & timer
   PREC   = normal    normal or accurate (medium, high low for compatibility)
   ISTART =      0    job   : 0-new  1-cont  2-samecut
   ICHARG =      1    charge: 1-file 2-atom 10-const
   ISPIN  =      1    spin polarized calculation?
   LNONCOLLINEAR =      F non collinear calculations
   LSORBIT =      F    spin-orbit coupling
   INIWAV =      1    electr: 0-lowe 1-rand  2-diag
   LASPH  =      F    aspherical Exc in radial PAW
 Electronic Relaxation 1
   ENCUT  =  500.0 eV  36.75 Ry    6.06 a.u.  32.93 32.93113.93*2*pi/ulx,y,z
   ENINI  =  500.0     initial cutoff
   ENAUG  =  644.9 eV  augmentation charge cutoff
   NELM   =    600;   NELMIN=  2; NELMDL=  0     # of ELM steps 
   EDIFF  = 0.1E-03   stopping-criterion for ELM
   LREAL  =      T    real-space projection
   NLSPLINE    = F    spline interpolate recip. space projectors
   LCOMPAT=      F    compatible to vasp.4.4
   GGA_COMPAT  = F    GGA compatible to vasp.4.4-vasp.4.6
   LMAXPAW     = -100 max onsite density
   LMAXMIX     =    2 max onsite mixed and CHGCAR
   VOSKOWN=      0    Vosko Wilk Nusair interpolation
   ROPT   =   -0.00050  -0.00050  -0.00050  -0.00050
   ROPT   =   -0.00050
 Ionic relaxation
   EDIFFG = 0.1E-02   stopping-criterion for IOM
   NSW    =      0    number of steps for IOM
   NBLOCK =      1;   KBLOCK =      1    inner block; outer block 
   IBRION =     -1    ionic relax: 0-MD 1-quasi-New 2-CG
   NFREE  =      0    steps in history (QN), initial steepest desc. (CG)
   ISIF   =      2    stress and relaxation
   IWAVPR =     10    prediction:  0-non 1-charg 2-wave 3-comb
   ISYM   =      0    0-nonsym 1-usesym 2-fastsym
   LCORR  =      T    Harris-Foulkes like correction to forces

   POTIM  = 0.5000    time-step for ionic-motion
   TEIN   =    0.0    initial temperature
   TEBEG  =    0.0;   TEEND  =   0.0 temperature during run
   SMASS  =  -3.00    Nose mass-parameter (am)
   estimated Nose-frequenzy (Omega)   =  0.10E-29 period in steps = 0.13E+47 mass=  -0.745E-26a.u.
   SCALEE = 1.0000    scale energy and forces
   NPACO  =    256;   APACO  = 16.0  distance and # of slots for P.C.
   PSTRESS=    0.0 pullay stress

  Mass of Ions in am
   POMASS =   1.00 12.01 14.00126.90207.20
  Ionic Valenz
   ZVAL   =   1.00  4.00  5.00  7.00  4.00
  Atomic Wigner-Seitz radii
   RWIGS  =  -1.00 -1.00 -1.00 -1.00 -1.00
  virtual crystal weights 
   VCA    =   1.00  1.00  1.00  1.00  1.00
   NELECT =    1134.0000    total number of electrons
   NUPDOWN=      -1.0000    fix difference up-down

 DOS related values:
   EMIN   =  10.00;   EMAX   =-10.00  energy-range for DOS
   EFERMI =   0.00
   ISMEAR =     0;   SIGMA  =   0.05  broadening in eV -4-tet -1-fermi 0-gaus

 Electronic relaxation 2 (details)
   IALGO  =     38    algorithm
   LDIAG  =      T    sub-space diagonalisation (order eigenvalues)
   LSUBROT=      F    optimize rotation matrix (better conditioning)
   TURBO    =      0    0=normal 1=particle mesh
   IRESTART =      0    0=no restart 2=restart with 2 vectors
   NREBOOT  =      0    no. of reboots
   NMIN     =      0    reboot dimension
   EREF     =   0.00    reference energy to select bands
   IMIX   =      4    mixing-type and parameters
     AMIX     =   0.40;   BMIX     =  0.01
     AMIX_MAG =   1.60;   BMIX_MAG =  0.01
     AMIN     =   0.01
     WC   =   100.;   INIMIX=   1;  MIXPRE=   1;  MAXMIX= -45

 Intra band minimization:
   WEIMIN = 0.0000     energy-eigenvalue tresh-hold
   EBREAK =  0.34E-07  absolut break condition
   DEPER  =   0.30     relativ break condition  

   TIME   =   0.40     timestep for ELM

  volume/ion in A,a.u.               =      62.72       423.28
  Fermi-wavevector in a.u.,A,eV,Ry     =   0.624944  1.180972  5.313816  0.390554
  Thomas-Fermi vector in A             =   1.685677
 
 Write flags
   LWAVE        =      F    write WAVECAR
   LDOWNSAMPLE  =      F    k-point downsampling of WAVECAR
   LCHARG       =      T    write CHGCAR
   LVTOT        =      T    write LOCPOT, total local potential
   LVHAR        =      F    write LOCPOT, Hartree potential only
   LELF         =      F    write electronic localiz. function (ELF)
   LORBIT       =      0    0 simple, 1 ext, 2 COOP (PROOUT), +10 PAW based schemes


 Dipole corrections
   LMONO  =      F    monopole corrections only (constant potential shift)
   LDIPOL =      T    correct potential (dipole corrections)
   IDIPOL =      3    1-x, 2-y, 3-z, 4-all directions 
   EPSILON=  1.0000000 bulk dielectric constant

 Exchange correlation treatment:
   GGA     =    --    GGA type
   LEXCH   =     8    internal setting for exchange type
   VOSKOWN=      0    Vosko Wilk Nusair interpolation
   LHFCALC =     F    Hartree Fock is set to
   LHFONE  =     F    Hartree Fock one center treatment
   AEXX    =    0.0000 exact exchange contribution

 Linear response parameters
   LEPSILON=     F    determine dielectric tensor
   LRPA    =     F    only Hartree local field effects (RPA)
   LNABLA  =     F    use nabla operator in PAW spheres
   LVEL    =     F    velocity operator in full k-point grid
   LINTERFAST=   F  fast interpolation
   KINTER  =     0    interpolate to denser k-point grid
   CSHIFT  =0.1000    complex shift for real part using Kramers Kronig
   OMEGAMAX=  -1.0    maximum frequency
   DEG_THRESHOLD= 0.2000000E-02 threshold for treating states as degnerate
   RTIME   =   -0.100 relaxation time in fs
  (WPLASMAI=    0.000 imaginary part of plasma frequency in eV, 0.658/RTIME)
   DFIELD  = 0.0000000 0.0000000 0.0000000 field for delta impulse in time
 
 Orbital magnetization related:
   ORBITALMAG=     F  switch on orbital magnetization
   LCHIMAG   =     F  perturbation theory with respect to B field
   DQ        =  0.001000  dq finite difference perturbation B field
   LLRAUG    =     F  two centre corrections for induced B field



--------------------------------------------------------------------------------------------------------


 Static calculation
 charge density and potential will be updated during run
 non-spin polarized calculation
 Variant of blocked Davidson
 Davidson routine will perform the subspace rotation
 perform sub-space diagonalisation
    after iterative eigenvector-optimisation
 modified Broyden-mixing scheme, WC =      100.0
 initial mixing is a Kerker type mixing with AMIX =  0.4000 and BMIX =      0.0100
 Hartree-type preconditioning will be used
 using additional bands           165
 real space projection scheme for non local part
[...]
     13.54561      0.00000     45.35368        -0.001649     -0.002111      0.015169
     13.54315      9.03140     45.35368        -0.001707     -0.007608     -0.010253
     14.01676     10.06292     32.47223        -0.028876     -0.056875     -0.091287
     12.99971      8.64128     32.80010         0.013872      0.069661      0.001103
     15.68504      9.05050     33.68160         0.018689      0.011466      0.036721
     15.50251      8.69198     35.40303         0.033493      0.055029      0.022240
     13.44598     11.59241     35.00546        -0.104990      0.041814     -0.023711
     14.64489     10.76514     36.01092         0.039482      0.073470     -0.067743
     12.03077      9.89700     35.56514        -0.028984     -0.102546     -0.020951
     12.27440      8.20608     35.02286         0.005292      0.118306     -0.039349
     11.14736     10.07447     33.55636        -0.047023      0.027303      0.045012
     12.15310     11.52620     33.43950         0.050473      0.037546     -0.009277
     10.94982     11.66407     31.47928        -0.066886      0.120069     -0.007225
     12.40290     10.88041     30.89592         0.060716     -0.000525     -0.055612
     14.18415      7.04928     33.13609        -0.015746      0.012824     -0.098892
     14.07080      6.71117     34.86198        -0.122538     -0.165854      0.184471
     15.63321      6.64411     34.04959        -0.011047     -0.033981      0.033690
     15.58578     12.56735     34.58854        -0.003868      0.028204     -0.008071
     15.20946     11.68858     33.10956        -0.025383     -0.004085      0.109066
     16.38301     11.01241     34.28344         0.086346     -0.025023     -0.021014
     13.87909      9.54927     37.32227        -0.134500     -0.174823     -0.080487
     13.95205      7.83731     36.81833         0.021209      0.016164      0.007717
     12.46776      8.49479     37.50114         0.018092      0.012092      0.012978
      9.68610      9.56357     31.50507         0.107814      0.018759     -0.031585
     10.38723      9.87954     29.90641         0.001391      0.017067      0.091177
     12.63358      8.66526     29.34478         0.122336      0.101243     -0.138347
     10.06419      7.49082     32.57541         0.075863     -0.056687     -0.025408
     13.79890      6.48223     29.46578         0.076054     -0.044283     -0.047388
     11.22712      5.30159     32.72429         0.107730     -0.028592     -0.059931
     13.12560      4.79667     31.18559         0.026859     -0.038724     -0.042247
      0.33618      4.60760     34.84529         0.026343      0.211790     -0.082699
      0.64846     13.76142     35.04530         0.033537      0.012022     -0.189677
      8.38104      4.10562     34.64116        -0.206952      0.157725      0.047970
      9.01423     13.66516     34.67514        -0.330701      0.047825      0.150006
      4.33255      9.64954     34.97168         0.094021     -0.132247      0.035134
      4.51864      0.23878     34.78894        -0.048500     -0.133366      0.144085
     13.98922     17.71422     35.00147        -0.022297      0.061984      0.223302
      0.20004      4.40824     40.53246        -0.107494      0.167690     -0.551022
      0.17576     13.72219     40.75542        -0.066405      0.159680     -0.178698
      8.74552      4.14475     40.84784         0.029015      0.115118      0.243624
      9.02689     13.61132     40.55113         0.002623      0.023320     -0.287891
      4.59309      8.93925     40.55240        -0.343864     -0.426953     -0.128382
      4.55961     18.03545     40.41268         0.469627      0.450172     -0.218606
     13.99927      8.76444     40.94437         0.565903      0.547743     -0.093889
     13.62750     18.03640     40.57334         0.537075      0.491848     -0.140426
      9.02897      4.51561     46.44552         0.012564     -0.000244     -0.007306
      9.02651     13.54701     46.44552         0.013225      0.003123      0.036726
     18.05937      4.51561     46.44552        -0.001581      0.017614      0.046213
     18.05691     13.54701     46.44552         0.005736      0.014611      0.006911
      4.51521      0.00002     46.44421         0.006862      0.003887      0.054274
      4.51275      9.03142     46.44421        -0.000196     -0.004041      0.033779
     13.54561      0.00002     46.44421        -0.009547     -0.010799      0.015679
     13.54315      9.03142     46.44421        -0.017037     -0.020488      0.005505
     11.27870      8.23978     30.95775         0.082842     -0.184943      0.218046
     12.33616      7.93076     30.08915        -0.202014     -0.049438      0.066029
     10.89108      7.26276     31.89558        -0.049077      0.113375     -0.106158
     12.98617      6.69701     30.15729         0.040184      0.143221     -0.085948
     11.54739      6.02877     31.97487        -0.215596      0.282736      0.003082
     12.60321      5.74958     31.10544        -0.021410     -0.181292      0.183764
     13.21272      9.67036     33.10829         0.165486      0.006972      0.005720
     15.00522      8.62617     34.42870        -0.031169      0.108615     -0.063478
     14.31553     10.93026     34.97757         0.026963     -0.122160      0.004675
     12.75927      9.07944     35.48299         0.229302      0.101625      0.050362
     11.97413     10.53555     32.99755        -0.271437      0.018188     -0.065751
     11.52124     10.73009     31.53715         0.031116     -0.137077     -0.011578
     14.68186      7.18878     34.09964         0.091943      0.051977     -0.095947
     15.44062     11.55970     34.17823        -0.101089     -0.007524     -0.045187
     13.31586      8.72685     36.84770         0.043714      0.133330     -0.043143
     10.63773      9.60587     30.94685        -0.035675     -0.023446      0.012667
     17.95643      3.48977     35.36566        -0.207987     -0.257728      0.080978
      0.58849     12.64876     35.73645         0.075397      0.167937     -0.213178
      9.64968      3.89107     34.91362        -0.260734      0.004614     -0.062276
      8.53162     12.56037     35.20819         0.084722      0.099468     -0.031956
      7.72945      5.23728     34.83012         0.093821     -0.396521     -0.166870
      8.50426     14.86298     34.88380         0.222784     -0.265793     -0.044465
     17.97295      5.79859     35.19911        -0.120280      0.014534      0.255291
     17.80371     14.71600     35.09671        -0.019489      0.031183      0.083068
      4.26204      8.38267     35.32839        -0.086914      0.100866      0.010287
      3.46406     17.59508     35.14074         0.050559     -0.054459      0.044014
     12.69765     17.81861     35.21562        -0.248386     -0.300084      0.026225
      5.74217     17.99337     35.13820         0.188064      0.065340     -0.078951
      5.44599     10.33168     34.84407         0.079074      0.125378     -0.130558
     14.86292      0.61840     35.17413        -0.030670      0.099906     -0.139402
      0.99583      3.47155     40.96526         0.246250     -0.295893      0.573082
      1.13208     12.88247     41.06437         0.448275     -0.073180     -0.034473
     10.02822      3.86151     40.92630        -0.094045      0.197326     -0.008519
      9.62823     12.64465     41.20161         0.024139     -0.010437     -0.023237
      3.74942      8.09930     41.11211        -0.058893     -0.112479     -0.680581
      3.77130     17.26691     41.11494        -0.370469     -0.376652     -0.300767
     12.80182      8.32498     41.22665        -0.111993     -0.237055      0.084678
     12.74912     17.29535     41.18884        -0.340133     -0.391311     -0.277331
      8.21636      5.32138     41.11661        -0.121278     -0.594413     -0.188737
      8.30792     14.56884     41.08494        -0.023498      0.018997      0.000409
     17.49455      5.17563     41.26739        -0.202366      0.220461      0.320510
     17.05059     13.74875     41.31602        -0.058219     -0.048887      0.059115
      5.43951      0.83760     40.88871        -0.325392     -0.293660     -0.550548
      5.35299      9.79330     41.18251         0.505776      0.508620     -0.321682
     14.44054      0.84861     41.14719        -0.241924     -0.304999     -0.519668
     14.34712     10.03876     40.93421        -0.523266     -0.600757     -0.018001
      0.82731      3.68697     47.03596         0.026933     -0.034147     -0.088538
      0.82485     12.71837     47.03596         0.029691     -0.033247     -0.068919
      9.85771      3.68697     47.03596         0.020825     -0.026865     -0.061194
      9.85525     12.71837     47.03596         0.021188     -0.024034     -0.093169
      3.68432      8.20234     47.03465        -0.016282     -0.010287     -0.066934
      3.68186     17.23373     47.03465        -0.014271     -0.010274     -0.061270
     12.71472      8.20234     47.03465        -0.006369     -0.003988     -0.063027
     12.71226     17.23373     47.03465        -0.010280     -0.010703     -0.059410
      8.20068      5.34457     47.03603        -0.026661      0.022351     -0.060679
      8.19822     14.37597     47.03603        -0.022983      0.017381     -0.089062
     17.23108      5.34457     47.03603        -0.008432      0.007540     -0.090192
     17.22862     14.37597     47.03603        -0.013617      0.015348     -0.067387
      5.34365      0.82909     47.03465         0.002930      0.004875     -0.065872
      5.34119      9.86049     47.03465         0.010655      0.018022     -0.069359
     14.37405      0.82909     47.03465         0.025498      0.020121     -0.057405
     14.37159      9.86049     47.03465         0.029284      0.029699     -0.067594
     13.81828      9.58119     34.49551        -0.053763     -0.338475     -0.026958
      9.24554      0.31759     34.46807        -0.016531     -0.018774      0.007778
      8.66133      8.96856     34.67733         0.100270     -0.022155     -0.073742
      0.14518      0.09218     34.27720         0.023973     -0.001190      0.012521
      0.69587      9.13316     34.57523        -0.017602      0.053042      0.011465
      4.25962      4.37679     34.50312         0.003881     -0.006556     -0.027291
      4.63017     13.83055     34.58713        -0.008277     -0.033279     -0.006020
     13.31042      3.65751     34.66938         0.012674      0.167075     -0.010196
     12.67397     14.30987     34.62763         0.002699     -0.065740     -0.040484
      0.00334     17.76061     40.85497         0.020929     -0.000825     -0.034574
     17.98179      9.11939     40.92724         0.023755     -0.016778     -0.009342
      9.02610      0.21633     40.87340        -0.004660      0.016028     -0.013048
      9.22971      8.85644     40.94804        -0.015099     -0.012762     -0.061133
      4.70898      4.45079     40.87851        -0.001405     -0.005843      0.011716
      4.70385     13.61287     40.90360        -0.047147     -0.000325      0.000799
     13.53950      4.75478     40.89809        -0.005457      0.054305     -0.002420
     13.43682     13.57264     40.90932         0.018902     -0.027079     -0.052511
      2.45204      2.02399     37.94210        -0.030479     -0.037442      0.013855
      2.74160     10.90040     38.01675        -0.036084      0.039341      0.003302
     11.71038      1.89224     38.12462        -0.026385     -0.004914     -0.008147
     11.12582     11.35869     38.10556         0.043673      0.053197     -0.045627
      6.50651      6.97462     37.81147        -0.040438     -0.011703      0.002037
      6.75018     15.90037     37.89699         0.011137      0.021830     -0.005416
     16.08551      6.59037     38.10984         0.001948     -0.018885     -0.030827
     15.73012     15.82885     37.80197        -0.033690     -0.017684      0.008112
      2.24105      6.65375     38.07798        -0.044360     -0.013057      0.009873
      2.21391     15.62554     37.95088         0.024301      0.013911      0.022473
     10.68677      6.09134     37.58173        -0.027837     -0.001119     -0.007246
     11.14766     15.74202     38.26898        -0.017760      0.023083      0.010764
      6.96121      2.41966     37.74176         0.014803     -0.003587      0.039728
      6.96810     11.36012     38.18099        -0.032061      0.012349     -0.002074
     16.01498      2.39865     38.17163        -0.009115     -0.006803      0.010436
     16.20135     11.62171     38.17501         0.018487      0.030564     -0.147013
      0.00000      0.00000     47.17356         0.002427      0.004596      0.301053
     -0.00246      9.03140     47.17356        -0.000629      0.002370      0.407143
      9.03040      0.00000     47.17356        -0.002781     -0.003365      0.382989
      9.02794      9.03140     47.17356         0.002141      0.003912      0.431527
      4.51398      4.51570     47.17425        -0.006336     -0.003603      0.422186
      4.51152     13.54710     47.17425         0.004161     -0.001857      0.413134
     13.54438      4.51570     47.17425         0.005908      0.000833      0.423590
     13.54192     13.54710     47.17425        -0.004425     -0.005710      0.413214
      2.45192      2.06295     44.04013        -0.023867     -0.018604     -0.068799
      2.44946     11.09435     44.04013         0.016540     -0.026678     -0.068754
     11.48232      2.06295     44.04013         0.054736     -0.035496     -0.059973
     11.47986     11.09435     44.04013        -0.012685     -0.009468     -0.074617
      6.57602      6.96845     44.04013        -0.038527      0.053373     -0.028356
      6.57356     15.99985     44.04013         0.010606      0.001457     -0.049826
     15.60642      6.96845     44.04013         0.073299     -0.020009     -0.023457
     15.60396     15.99985     44.04013        -0.028185      0.024687     -0.024062
      2.06108      6.57881     44.04000        -0.007266      0.000818     -0.054244
      2.05862     15.61021     44.04000         0.058691      0.037313     -0.025195
     11.09148      6.57881     44.04000        -0.017728     -0.038192     -0.025123
     11.08902     15.61021     44.04000        -0.030397      0.003271     -0.036724
      6.96686      2.45259     44.04007        -0.064553     -0.071018     -0.036175
      6.96440     11.48399     44.04007         0.028473      0.005248     -0.046001
     15.99726      2.45259     44.04007         0.046989      0.014597     -0.061591
     15.99481     11.48399     44.04007         0.010083      0.014054     -0.013262
      2.43163      2.08322     50.06849        -0.000011     -0.020210      0.022088
      2.42917     11.11462     50.06849         0.011549     -0.009951      0.023672
     11.46203      2.08322     50.06849         0.009012     -0.014477      0.027091
     11.45957     11.11462     50.06849         0.012928     -0.006428      0.023409
      6.59631      6.94818     50.06849        -0.014875      0.008600      0.026024
      6.59385     15.97958     50.06849        -0.011352      0.009028      0.022619
     15.62671      6.94818     50.06849        -0.006265      0.012330      0.023519
     15.62425     15.97958     50.06849        -0.002262      0.018667      0.024742
      2.08113      6.59901     50.06905        -0.012849     -0.009268      0.023099
      2.07867     15.63041     50.06905        -0.017447     -0.002769      0.023207
     11.11153      6.59901     50.06905        -0.007892     -0.011619      0.025780
     11.10907     15.63041     50.06905        -0.011193     -0.011350      0.024701
      6.94681      2.43239     50.06905         0.009565      0.007236      0.024839
      6.94435     11.46379     50.06905         0.005776      0.014420      0.023390
     15.97721      2.43239     50.06905         0.022156     -0.000253      0.024210
     15.97475     11.46379     50.06905         0.010455      0.009554      0.023795
     -0.00149     18.02143     37.79700        -0.023540      0.045839      0.009349
      0.12028      9.08081     37.80825         0.020102      0.017889     -0.038562
      9.09530      0.13111     37.70025         0.050832     -0.008183      0.038901
      8.98774      8.89235     37.79309         0.035823      0.000037      0.005386
      4.47084      4.45053     37.63973        -0.006319     -0.002495      0.010541
      4.55176     13.45275     37.72808        -0.012870      0.004727      0.017607
     13.41588      4.45707     37.67266         0.028308     -0.045719     -0.046093
     13.33315     13.63639     37.69978        -0.030166      0.017302     -0.058701
      0.00001      0.00001     44.04300        -0.044274     -0.127546      0.143389
     -0.00245      9.03141     44.04300        -0.033539     -0.060479      0.203654
      9.03041      0.00001     44.04300         0.041275      0.099462      0.112742
      9.02795      9.03141     44.04300        -0.042180     -0.089964      0.315640
      4.51397      4.51569     44.04275         0.111549      0.028030      0.039084
      4.51151     13.54709     44.04275        -0.054189      0.039222      0.114642
     13.54437      4.51569     44.04275        -0.079422      0.015331      0.165498
     13.54191     13.54709     44.04275         0.000302      0.090739      0.180773
      0.00000      0.00000     50.44728        -0.002809      0.001273     -0.602188
     -0.00246      9.03140     50.44728        -0.002473     -0.002049     -0.627895
      9.03040      0.00000     50.44728         0.002800      0.004824     -0.627381
      9.02794      9.03140     50.44728         0.001807     -0.005498     -0.638181
      4.51397      4.51570     50.44728         0.009733      0.006801     -0.635923
      4.51151     13.54710     50.44728         0.006617     -0.007037     -0.631021
     13.54437      4.51570     50.44728        -0.010877      0.005315     -0.639278
     13.54191     13.54710     50.44728        -0.006512     -0.006953     -0.633199
 -----------------------------------------------------------------------------------
    total drift:                                0.066358      0.130375      0.272532


--------------------------------------------------------------------------------------------------------



  FREE ENERGIE OF THE ION-ELECTRON SYSTEM (eV)
  ---------------------------------------------------
  free  energy   TOTEN  =     -1576.16351141 eV

  energy  without entropy=    -1576.16351141  energy(sigma->0) =    -1576.16351141
 


--------------------------------------------------------------------------------------------------------


    POTLOK:  cpu time    0.5023: real time    0.5022


--------------------------------------------------------------------------------------------------------


     LOOP+:  cpu time  302.5408: real time  303.1060
 vacuum level on the upper side and lower side of the slab         2.300         1.593
    4ORBIT:  cpu time    0.0000: real time    0.0000

 total amount of memory used by VASP MPI-rank0  8653575. kBytes
=======================================================================

   base      :      30000. kBytes
   nonlr-proj:      53613. kBytes
   fftplans  :     249280. kBytes
   grid      :     701440. kBytes
   one-center:       2636. kBytes
   wavefun   :    7616606. kBytes
 
  
  
 General timing and accounting informations for this job:
 ========================================================
  
                  Total CPU time used (sec):      514.040
                            User time (sec):      415.347
                          System time (sec):       98.693
                         Elapsed time (sec):      517.503
  
                   Maximum memory used (kb):    10310672.
                   Average memory used (kb):          N/A
  
                          Minor page faults:      3737353
                          Major page faults:           13
                 Voluntary context switches:        10964
