<?xml version="1.0" encoding="ISO-8859-1"?>
<modeling>
 <generator>
  <i name="program" type="string">vasp </i>
  <i name="version" type="string">6.2.1  </i>
  <i name="subversion" type="string">16May21 (build Nov 15 2021 14:57:28) complex                          parallel </i>
  <i name="platform" type="string">LinuxPGI </i>
  <i name="date" type="string">2023 07 25 </i>
  <i name="time" type="string">02:03:56 </i>
 </generator>
 <incar>
  <i type="string" name="SYSTEM">PSC</i>
  <i type="int" name="ISTART">     1</i>
  <i type="string" name="PREC">Normal</i>
  <i name="BMIX">      0.01000000</i>
  <i name="AMIN">      0.01000000</i>
  <i type="int" name="ICHARG">     1</i>
  <i type="int" name="NELM">   600</i>
  <i type="int" name="ISYM">     0</i>
  <i name="ENCUT">    500.00000000</i>
  <i type="string" name="LREAL">Auto</i>
  <i type="int" name="ISMEAR">     0</i>
  <i name="SIGMA">      0.05000000</i>
  <i type="logical" name="LWAVE"> F  </i>
  <i type="logical" name="LVTOT"> T  </i>
  <i type="logical" name="GGA_COMPAT"> F  </i>
  <i type="logical" name="LDIPOL"> T  </i>
  <i type="int" name="IDIPOL">     3</i>
  <i type="int" name="IVDW">    12</i>
 </incar>
 <primitive_cell>
  <structure name="primitive_cell" >
   <crystal>
    <varray name="basis" >
     <v>      18.06080055       0.00000000       0.00000000 </v>
     <v>      -0.00491865      18.06279945       0.00000000 </v>
     <v>       0.00000000       0.00000000      62.48749924 </v>
    </varray>
    <i name="volume">  20385.21054034 </i>
    <varray name="rec_basis" >
     <v>       0.05536853       0.00001508      -0.00000000 </v>
     <v>       0.00000000       0.05536240       0.00000000 </v>
     <v>       0.00000000      -0.00000000       0.01600320 </v>
    </varray>
   </crystal>
   <varray name="positions" >
    <v>       0.45146650       0.33438031       0.56482128 </v>
    <v>       0.42871923       0.83064556       0.56896683 </v>
    <v>       0.96065020       0.32819525       0.57642547 </v>
    <v>       0.94567468       0.81482029       0.57330137 </v>
    <v>       0.32965690       0.95427705       0.57304919 </v>
    <v>       0.35337618       0.54779248       0.55924271 </v>
    <v>       0.80616925       0.08776253       0.56637231 </v>
    <v>       0.01065135       0.14280044       0.55997547 </v>
    <v>       0.07061743       0.65950513       0.56934941 </v>
    <v>       0.55422249       0.16288794       0.55698085 </v>
    <v>       0.49602400       0.64507420       0.56010116 </v>
    <v>       0.36317676       0.02594996       0.55714910 </v>
    <v>       0.29862849       0.62758010       0.55391835 </v>
    <v>       0.87736176       0.02482212       0.55886117 </v>
    <v>       0.95545391       0.19170162       0.57811496 </v>
    <v>       0.99199815       0.68984338       0.58300479 </v>
    <v>       0.56562069       0.25276568       0.56707998 </v>
    <v>       0.43220347       0.69471355       0.57512791 </v>
    <v>       0.28005440       0.43663296       0.57210735 </v>
    <v>       0.19641063       0.92781491       0.57180938 </v>
    <v>       0.67968531       0.03322970       0.56973090 </v>
    <v>       0.37184170       0.29072192       0.55439110 </v>
    <v>       0.49692367       0.86940420       0.55255455 </v>
    <v>       0.01823580       0.36874921       0.55725428 </v>
    <v>       0.99483872       0.86495351       0.55430997 </v>
    <v>       0.18486875       0.44172551       0.56780290 </v>
    <v>       0.13911213       0.99068218       0.55851137 </v>
    <v>       0.67121280       0.93947580       0.56237225 </v>
    <v>       0.43298684       0.18110689       0.54736949 </v>
    <v>       0.54764271       0.75218638       0.54444361 </v>
    <v>       0.06176100       0.25191951       0.54537892 </v>
    <v>       0.08359927       0.76919870       0.55005216 </v>
    <v>       0.18769455       0.56183693       0.55603638 </v>
    <v>       0.24140041       0.06309477       0.54715497 </v>
    <v>       0.79465525       0.92632681       0.55509858 </v>
    <v>       0.48559714       0.33929530       0.66233896 </v>
    <v>       0.44972060       0.81152540       0.67348132 </v>
    <v>       0.96568246       0.28308330       0.67673844 </v>
    <v>       0.92890993       0.72498569       0.67307145 </v>
    <v>       0.30902833       0.05570533       0.67016578 </v>
    <v>       0.29802966       0.54841497       0.67516629 </v>
    <v>       0.80100966       0.05617354       0.67450503 </v>
    <v>       0.75828613       0.59798530       0.65775332 </v>
    <v>       0.08548740       0.16235716       0.64476824 </v>
    <v>       0.11480362       0.71874384       0.65046927 </v>
    <v>       0.57312991       0.16210382       0.65102890 </v>
    <v>       0.56342926       0.66254301       0.65071316 </v>
    <v>       0.17806554       0.41335900       0.64809117 </v>
    <v>       0.17427046       0.92053556       0.64998401 </v>
    <v>       0.70087895       0.40503124       0.66097858 </v>
    <v>       0.67382720       0.92220818       0.65017069 </v>
    <v>       0.06282645       0.18037134       0.67155485 </v>
    <v>       0.05843078       0.67496346       0.66915844 </v>
    <v>       0.59513392       0.25143061       0.65923366 </v>
    <v>       0.53171843       0.69461962       0.67557885 </v>
    <v>       0.19932144       0.44376760       0.67389199 </v>
    <v>       0.20768836       0.95463353       0.67415236 </v>
    <v>       0.66604490       0.49451115       0.66397442 </v>
    <v>       0.69762251       0.95894103       0.67517343 </v>
    <v>       0.39847568       0.29984230       0.65752434 </v>
    <v>       0.43613832       0.84470897       0.64770542 </v>
    <v>       0.93696984       0.32586359       0.65305225 </v>
    <v>       0.90404090       0.79563936       0.65568650 </v>
    <v>       0.33166928       0.07694608       0.64372726 </v>
    <v>       0.32998156       0.57662150       0.65015048 </v>
    <v>       0.83528880       0.07642667       0.64903301 </v>
    <v>       0.84585815       0.57038251       0.65034016 </v>
    <v>       0.00949536       0.25298025       0.63130675 </v>
    <v>       0.02183235       0.80000125       0.63953844 </v>
    <v>       0.44699878       0.18426353       0.64900249 </v>
    <v>       0.50646387       0.75374280       0.63148299 </v>
    <v>       0.24872247       0.99399250       0.62931313 </v>
    <v>       0.25876512       0.49331829       0.63152969 </v>
    <v>       0.75898736       0.99227540       0.63191637 </v>
    <v>       0.81843866       0.44464346       0.65120374 </v>
    <v>       0.44874502       0.30128397       0.76888902 </v>
    <v>       0.44874501       0.80128391       0.76888902 </v>
    <v>       0.94874497       0.30128397       0.76888902 </v>
    <v>       0.94874501       0.80128391       0.76888902 </v>
    <v>       0.30127600       0.05129450       0.76887296 </v>
    <v>       0.30127601       0.55129450       0.76887296 </v>
    <v>       0.80127594       0.05129450       0.76887296 </v>
    <v>       0.80127598       0.55129450       0.76887296 </v>
    <v>       0.07877100       0.17118050       0.74344197 </v>
    <v>       0.07877101       0.67118045       0.74344197 </v>
    <v>       0.57877100       0.17118050       0.74344197 </v>
    <v>       0.57877099       0.67118045       0.74344197 </v>
    <v>       0.17119950       0.42117448       0.74342103 </v>
    <v>       0.17119950       0.92117451       0.74342103 </v>
    <v>       0.67119951       0.42117448       0.74342103 </v>
    <v>       0.67119950       0.92117451       0.74342103 </v>
    <v>       0.05125600       0.19871499       0.76888902 </v>
    <v>       0.05125600       0.69871493       0.76888902 </v>
    <v>       0.55125603       0.19871499       0.76888902 </v>
    <v>       0.55125602       0.69871493       0.76888902 </v>
    <v>       0.19872349       0.44870397       0.76887205 </v>
    <v>       0.19872349       0.94870397       0.76887205 </v>
    <v>       0.69872352       0.44870397       0.76887205 </v>
    <v>       0.69872351       0.94870397       0.76887205 </v>
    <v>       0.42123152       0.32881747       0.74344197 </v>
    <v>       0.42123151       0.82881744       0.74344197 </v>
    <v>       0.92123147       0.32881747       0.74344197 </v>
    <v>       0.92123151       0.82881744       0.74344197 </v>
    <v>       0.32880050       0.07882500       0.74342103 </v>
    <v>       0.32880049       0.57882496       0.74342103 </v>
    <v>       0.82880048       0.07882500       0.74342103 </v>
    <v>       0.82880052       0.57882496       0.74342103 </v>
    <v>       0.00000350       0.25000148       0.72582199 </v>
    <v>       0.00000350       0.75000145       0.72582199 </v>
    <v>       0.50000351       0.25000148       0.72582199 </v>
    <v>       0.50000350       0.75000145       0.72582199 </v>
    <v>       0.25000050       0.00000000       0.72580398 </v>
    <v>       0.25000052       0.50000000       0.72580398 </v>
    <v>       0.75000050       0.00000000       0.72580398 </v>
    <v>       0.75000049       0.50000000       0.72580398 </v>
    <v>       0.77623918       0.55710726       0.51965954 </v>
    <v>       0.71990493       0.47840231       0.52490656 </v>
    <v>       0.86859411       0.50105722       0.53901339 </v>
    <v>       0.85848216       0.48120914       0.56656187 </v>
    <v>       0.74465895       0.64178390       0.56019945 </v>
    <v>       0.81102861       0.59598395       0.57628995 </v>
    <v>       0.66627546       0.54792162       0.56915614 </v>
    <v>       0.67973921       0.45430829       0.56047783 </v>
    <v>       0.61736479       0.55774696       0.53700920 </v>
    <v>       0.67307287       0.63811805       0.53513896 </v>
    <v>       0.60645134       0.64575091       0.50376919 </v>
    <v>       0.68689434       0.60236593       0.49443355 </v>
    <v>       0.78546166       0.39026510       0.53028343 </v>
    <v>       0.77918055       0.37154667       0.55790334 </v>
    <v>       0.86568806       0.36783383       0.54490244 </v>
    <v>       0.86315124       0.69575878       0.55352734 </v>
    <v>       0.84230192       0.64710807       0.52985891 </v>
    <v>       0.90726950       0.60967345       0.54864483 </v>
    <v>       0.76860882       0.52867037       0.59727577 </v>
    <v>       0.77262275       0.43389231       0.58921117 </v>
    <v>       0.69044943       0.47029216       0.60013835 </v>
    <v>       0.53644948       0.52946202       0.50418199 </v>
    <v>       0.57527478       0.54695484       0.47859826 </v>
    <v>       0.69963354       0.47972959       0.46961044 </v>
    <v>       0.55735251       0.41470959       0.52131087 </v>
    <v>       0.76412238       0.35887211       0.47154686 </v>
    <v>       0.62170910       0.29350898       0.52369343 </v>
    <v>       0.72681745       0.26555539       0.49906933 </v>
    <v>       0.01868335       0.25508798       0.55763625 </v>
    <v>       0.03611168       0.76186525       0.56083691 </v>
    <v>       0.46410791       0.22729707       0.55436949 </v>
    <v>       0.49931075       0.75653612       0.55491324 </v>
    <v>       0.24003258       0.53422199       0.55965875 </v>
    <v>       0.25019412       0.01321964       0.55673440 </v>
    <v>       0.77482939       0.98070205       0.56013559 </v>
    <v>       0.01114262       0.24405065       0.64864909 </v>
    <v>       0.00993852       0.75969332       0.65221724 </v>
    <v>       0.48428907       0.22946354       0.65369612 </v>
    <v>       0.50001069       0.75355527       0.64894791 </v>
    <v>       0.25444754       0.49489832       0.64896818 </v>
    <v>       0.25273075       0.99848601       0.64673220 </v>
    <v>       0.77525124       0.48522066       0.65524092 </v>
    <v>       0.75480665       0.99853866       0.64930333 </v>
    <v>       0.49998898       0.24999498       0.74327702 </v>
    <v>       0.49998903       0.74999496       0.74327702 </v>
    <v>       0.99998898       0.24999498       0.74327702 </v>
    <v>       0.99998903       0.74999496       0.74327702 </v>
    <v>       0.25000050       0.00000100       0.74325596 </v>
    <v>       0.25000052       0.50000100       0.74325596 </v>
    <v>       0.75000050       0.00000100       0.74325596 </v>
    <v>       0.75000049       0.50000100       0.74325596 </v>
    <v>       0.62460917       0.45617389       0.49542313 </v>
    <v>       0.68315483       0.43906601       0.48152264 </v>
    <v>       0.60313260       0.40208413       0.51043135 </v>
    <v>       0.71912633       0.37076244       0.48261322 </v>
    <v>       0.63945292       0.33376725       0.51170034 </v>
    <v>       0.69790815       0.31831054       0.49778658 </v>
    <v>       0.73171465       0.53537425       0.52983858 </v>
    <v>       0.83094681       0.47756525       0.55096933 </v>
    <v>       0.79279477       0.60512561       0.55975313 </v>
    <v>       0.70659871       0.50265958       0.56784142 </v>
    <v>       0.66314866       0.58327365       0.52806637 </v>
    <v>       0.63807572       0.59404337       0.50469531 </v>
    <v>       0.81302162       0.39798832       0.54570345 </v>
    <v>       0.85509892       0.63997273       0.54696114 </v>
    <v>       0.73741134       0.48313916       0.58968118 </v>
    <v>       0.58914056       0.53180417       0.49524862 </v>
    <v>       0.99427390       0.19320203       0.56596379 </v>
    <v>       0.03277472       0.70026570       0.57189765 </v>
    <v>       0.53434755       0.21541893       0.55872973 </v>
    <v>       0.47257254       0.69537225       0.56344381 </v>
    <v>       0.42804724       0.28994838       0.55739347 </v>
    <v>       0.47109254       0.82285024       0.55825253 </v>
    <v>       0.99522348       0.32102363       0.56329846 </v>
    <v>       0.98598710       0.81471333       0.56165970 </v>
    <v>       0.23610903       0.46408457       0.56536735 </v>
    <v>       0.19206527       0.97410592       0.56236437 </v>
    <v>       0.70331907       0.98648102       0.56356267 </v>
    <v>       0.31820688       0.99615642       0.56232365 </v>
    <v>       0.30169235       0.57198671       0.55761660 </v>
    <v>       0.82294710       0.03423596       0.56289860 </v>
    <v>       0.05519001       0.19219343       0.65557534 </v>
    <v>       0.06287580       0.71320441       0.65716135 </v>
    <v>       0.55530589       0.21378248       0.65495180 </v>
    <v>       0.53329187       0.70003798       0.65935765 </v>
    <v>       0.20772216       0.44839648       0.65792536 </v>
    <v>       0.20907150       0.95593747       0.65797065 </v>
    <v>       0.70894353       0.46089116       0.65975830 </v>
    <v>       0.70616098       0.95751241       0.65915320 </v>
    <v>       0.45500776       0.29460413       0.65799739 </v>
    <v>       0.46021701       0.80656580       0.65749058 </v>
    <v>       0.96872549       0.28653556       0.66041029 </v>
    <v>       0.94427362       0.76116368       0.66118852 </v>
    <v>       0.30119030       0.04637183       0.65435018 </v>
    <v>       0.29653483       0.54218051       0.65905198 </v>
    <v>       0.79956446       0.04698098       0.65848669 </v>
    <v>       0.79453007       0.55577000       0.65507835 </v>
    <v>       0.04586250       0.20411950       0.75272599 </v>
    <v>       0.04586250       0.70411946       0.75272599 </v>
    <v>       0.54586251       0.20411950       0.75272599 </v>
    <v>       0.54586250       0.70411946       0.75272599 </v>
    <v>       0.20411900       0.45410100       0.75270499 </v>
    <v>       0.20411899       0.95410095       0.75270499 </v>
    <v>       0.70411898       0.45410100       0.75270499 </v>
    <v>       0.70411896       0.95410095       0.75270499 </v>
    <v>       0.45414002       0.29588849       0.75272697 </v>
    <v>       0.45414001       0.79588852       0.75272697 </v>
    <v>       0.95414002       0.29588849       0.75272697 </v>
    <v>       0.95414006       0.79588852       0.75272697 </v>
    <v>       0.29588249       0.04590050       0.75270499 </v>
    <v>       0.29588248       0.54590053       0.75270499 </v>
    <v>       0.79588244       0.04590050       0.75270499 </v>
    <v>       0.79588248       0.54590053       0.75270499 </v>
    <v>       0.76524234       0.53043761       0.55203858 </v>
    <v>       0.51191690       0.01758268       0.55159952 </v>
    <v>       0.47970051       0.49652121       0.55494834 </v>
    <v>       0.00803953       0.00510354       0.54854496 </v>
    <v>       0.03866685       0.50563373       0.55331428 </v>
    <v>       0.23591485       0.24230986       0.55216043 </v>
    <v>       0.25657439       0.76569272       0.55350475 </v>
    <v>       0.73703366       0.20248848       0.55482099 </v>
    <v>       0.70195466       0.79222874       0.55415295 </v>
    <v>       0.00045263       0.98327027       0.65381021 </v>
    <v>       0.99576295       0.50487154       0.65496682 </v>
    <v>       0.49976528       0.01197632       0.65410526 </v>
    <v>       0.51116900       0.49031368       0.65529977 </v>
    <v>       0.26079626       0.24640638       0.65418706 </v>
    <v>       0.26065074       0.75364148       0.65458857 </v>
    <v>       0.74973372       0.26323630       0.65450041 </v>
    <v>       0.74418189       0.75141416       0.65468002 </v>
    <v>       0.13579629       0.11205303       0.60719512 </v>
    <v>       0.15196264       0.60347262       0.60838975 </v>
    <v>       0.64841489       0.10475894       0.61011593 </v>
    <v>       0.61619153       0.62884424       0.60981087 </v>
    <v>       0.36036110       0.38613148       0.60510461 </v>
    <v>       0.37398727       0.88028258       0.60647317 </v>
    <v>       0.89073023       0.36485871       0.60987943 </v>
    <v>       0.87119218       0.87632333       0.60495248 </v>
    <v>       0.12418411       0.36836733       0.60936950 </v>
    <v>       0.12281681       0.86506739       0.60733559 </v>
    <v>       0.59180241       0.33723139       0.60142803 </v>
    <v>       0.61746682       0.87151626       0.61242614 </v>
    <v>       0.38546834       0.13395816       0.60398897 </v>
    <v>       0.38598451       0.62892328       0.61101802 </v>
    <v>       0.88676221       0.13279512       0.61086834 </v>
    <v>       0.89722045       0.64340606       0.61092242 </v>
    <v>       0.00000000       0.00000000       0.75492797 </v>
    <v>       0.00000000       0.50000000       0.75492797 </v>
    <v>       0.50000000       0.00000000       0.75492797 </v>
    <v>       0.49999999       0.50000000       0.75492797 </v>
    <v>       0.25000050       0.25000000       0.75493902 </v>
    <v>       0.25000051       0.74999997       0.75493902 </v>
    <v>       0.75000047       0.25000000       0.75493902 </v>
    <v>       0.75000046       0.74999997       0.75493902 </v>
    <v>       0.13579050       0.11421000       0.70478299 </v>
    <v>       0.13579050       0.61420998       0.70478299 </v>
    <v>       0.63579045       0.11421000       0.70478299 </v>
    <v>       0.63579049       0.61420998       0.70478299 </v>
    <v>       0.36420952       0.38578999       0.70478299 </v>
    <v>       0.36420950       0.88578996       0.70478299 </v>
    <v>       0.86420954       0.38578999       0.70478299 </v>
    <v>       0.86420953       0.88578996       0.70478299 </v>
    <v>       0.11421799       0.36421899       0.70478098 </v>
    <v>       0.11421799       0.86421899       0.70478098 </v>
    <v>       0.61421800       0.36421899       0.70478098 </v>
    <v>       0.61421799       0.86421899       0.70478098 </v>
    <v>       0.38578201       0.13578149       0.70478202 </v>
    <v>       0.38578200       0.63578149       0.70478202 </v>
    <v>       0.88578199       0.13578149       0.70478202 </v>
    <v>       0.88578203       0.63578149       0.70478202 </v>
    <v>       0.13466700       0.11533200       0.80125603 </v>
    <v>       0.13466699       0.61533199       0.80125603 </v>
    <v>       0.63466699       0.11533200       0.80125603 </v>
    <v>       0.63466698       0.61533199       0.80125603 </v>
    <v>       0.36533300       0.38466799       0.80125603 </v>
    <v>       0.36533299       0.88466796       0.80125603 </v>
    <v>       0.86533295       0.38466799       0.80125603 </v>
    <v>       0.86533294       0.88466796       0.80125603 </v>
    <v>       0.11532850       0.36533700       0.80126500 </v>
    <v>       0.11532850       0.86533698       0.80126500 </v>
    <v>       0.61532850       0.36533700       0.80126500 </v>
    <v>       0.61532849       0.86533698       0.80126500 </v>
    <v>       0.38467151       0.13466300       0.80126500 </v>
    <v>       0.38467150       0.63466297       0.80126500 </v>
    <v>       0.88467149       0.13466300       0.80126500 </v>
    <v>       0.88467153       0.63466297       0.80126500 </v>
    <v>       0.00018934       0.99770995       0.60487294 </v>
    <v>       0.00679674       0.50273540       0.60505296 </v>
    <v>       0.50359552       0.00725845       0.60332465 </v>
    <v>       0.49777212       0.49230215       0.60481042 </v>
    <v>       0.24761095       0.24639225       0.60235614 </v>
    <v>       0.25222729       0.74477680       0.60376999 </v>
    <v>       0.74288494       0.24675384       0.60288310 </v>
    <v>       0.73844242       0.75494342       0.60331720 </v>
    <v>       0.00000050       0.00000050       0.70482896 </v>
    <v>       0.00000050       0.50000048       0.70482896 </v>
    <v>       0.50000048       0.00000050       0.70482896 </v>
    <v>       0.50000046       0.50000048       0.70482896 </v>
    <v>       0.24999999       0.24999947       0.70482499 </v>
    <v>       0.25000001       0.74999950       0.70482499 </v>
    <v>       0.74999999       0.24999947       0.70482499 </v>
    <v>       0.74999998       0.74999950       0.70482499 </v>
    <v>       0.00000000       0.00000000       0.80731797 </v>
    <v>       0.00000000       0.50000000       0.80731797 </v>
    <v>       0.50000000       0.00000000       0.80731797 </v>
    <v>       0.49999999       0.50000000       0.80731797 </v>
    <v>       0.24999999       0.25000000       0.80731797 </v>
    <v>       0.25000001       0.74999997       0.80731797 </v>
    <v>       0.74999999       0.25000000       0.80731797 </v>
    <v>       0.74999998       0.74999997       0.80731797 </v>
   </varray>
  </structure>
  <varray name="primitive_index" >
   <v type="int" >        1 </v>
   <v type="int" >        2 </v>
   <v type="int" >        3 </v>
   <v type="int" >        4 </v>
   <v type="int" >        5 </v>
   <v type="int" >        6 </v>
   <v type="int" >        7 </v>
   <v type="int" >        8 </v>
   <v type="int" >        9 </v>
   <v type="int" >       10 </v>
   <v type="int" >       11 </v>
   <v type="int" >       12 </v>
   <v type="int" >       13 </v>
   <v type="int" >       14 </v>
   <v type="int" >       15 </v>
   <v type="int" >       16 </v>
   <v type="int" >       17 </v>
   <v type="int" >       18 </v>
   <v type="int" >       19 </v>
   <v type="int" >       20 </v>
   <v type="int" >       21 </v>
   <v type="int" >       22 </v>
   <v type="int" >       23 </v>
   <v type="int" >       24 </v>
   <v type="int" >       25 </v>
   <v type="int" >       26 </v>
   <v type="int" >       27 </v>
   <v type="int" >       28 </v>
   <v type="int" >       29 </v>
   <v type="int" >       30 </v>
   <v type="int" >       31 </v>
   <v type="int" >       32 </v>
   <v type="int" >       33 </v>
   <v type="int" >       34 </v>
   <v type="int" >       35 </v>
   <v type="int" >       36 </v>
   <v type="int" >       37 </v>
   <v type="int" >       38 </v>
   <v type="int" >       39 </v>
   <v type="int" >       40 </v>
   <v type="int" >       41 </v>
   <v type="int" >       42 </v>
   <v type="int" >       43 </v>
   <v type="int" >       44 </v>
   <v type="int" >       45 </v>
   <v type="int" >       46 </v>
   <v type="int" >       47 </v>
   <v type="int" >       48 </v>
   <v type="int" >       49 </v>
   <v type="int" >       50 </v>
   <v type="int" >       51 </v>
   <v type="int" >       52 </v>
   <v type="int" >       53 </v>
   <v type="int" >       54 </v>
   <v type="int" >       55 </v>
   <v type="int" >       56 </v>
   <v type="int" >       57 </v>
   <v type="int" >       58 </v>
   <v type="int" >       59 </v>
   <v type="int" >       60 </v>
   <v type="int" >       61 </v>
   <v type="int" >       62 </v>
   <v type="int" >       63 </v>
   <v type="int" >       64 </v>
   <v type="int" >       65 </v>
   <v type="int" >       66 </v>
   <v type="int" >       67 </v>
   <v type="int" >       68 </v>
   <v type="int" >       69 </v>
   <v type="int" >       70 </v>
   <v type="int" >       71 </v>
   <v type="int" >       72 </v>
   <v type="int" >       73 </v>
   <v type="int" >       74 </v>
   <v type="int" >       75 </v>
   <v type="int" >       76 </v>
   <v type="int" >       77 </v>
   <v type="int" >       78 </v>
   <v type="int" >       79 </v>
   <v type="int" >       80 </v>
   <v type="int" >       81 </v>
   <v type="int" >       82 </v>
   <v type="int" >       83 </v>
   <v type="int" >       84 </v>
   <v type="int" >       85 </v>
   <v type="int" >       86 </v>
   <v type="int" >       87 </v>
   <v type="int" >       88 </v>
   <v type="int" >       89 </v>
   <v type="int" >       90 </v>
   <v type="int" >       91 </v>
   <v type="int" >       92 </v>
   <v type="int" >       93 </v>
   <v type="int" >       94 </v>
   <v type="int" >       95 </v>
   <v type="int" >       96 </v>
   <v type="int" >       97 </v>
   <v type="int" >       98 </v>
   <v type="int" >       99 </v>
   <v type="int" >      100 </v>
   <v type="int" >      101 </v>
   <v type="int" >      102 </v>
   <v type="int" >      103 </v>
   <v type="int" >      104 </v>
   <v type="int" >      105 </v>
   <v type="int" >      106 </v>
   <v type="int" >      107 </v>
   <v type="int" >      108 </v>
   <v type="int" >      109 </v>
   <v type="int" >      110 </v>
   <v type="int" >      111 </v>
   <v type="int" >      112 </v>
   <v type="int" >      113 </v>
   <v type="int" >      114 </v>
   <v type="int" >      115 </v>
   <v type="int" >      116 </v>
   <v type="int" >      117 </v>
   <v type="int" >      118 </v>
   <v type="int" >      119 </v>
   <v type="int" >      120 </v>
   <v type="int" >      121 </v>
   <v type="int" >      122 </v>
   <v type="int" >      123 </v>
   <v type="int" >      124 </v>
   <v type="int" >      125 </v>
   <v type="int" >      126 </v>
   <v type="int" >      127 </v>
   <v type="int" >      128 </v>
   <v type="int" >      129 </v>
   <v type="int" >      130 </v>
   <v type="int" >      131 </v>
   <v type="int" >      132 </v>
   <v type="int" >      133 </v>
   <v type="int" >      134 </v>
   <v type="int" >      135 </v>
   <v type="int" >      136 </v>
   <v type="int" >      137 </v>
   <v type="int" >      138 </v>
   <v type="int" >      139 </v>
   <v type="int" >      140 </v>
   <v type="int" >      141 </v>
   <v type="int" >      142 </v>
   <v type="int" >      143 </v>
   <v type="int" >      144 </v>
   <v type="int" >      145 </v>
   <v type="int" >      146 </v>
   <v type="int" >      147 </v>
   <v type="int" >      148 </v>
   <v type="int" >      149 </v>
   <v type="int" >      150 </v>
   <v type="int" >      151 </v>
   <v type="int" >      152 </v>
   <v type="int" >      153 </v>
   <v type="int" >      154 </v>
   <v type="int" >      155 </v>
   <v type="int" >      156 </v>
   <v type="int" >      157 </v>
   <v type="int" >      158 </v>
   <v type="int" >      159 </v>
   <v type="int" >      160 </v>
   <v type="int" >      161 </v>
   <v type="int" >      162 </v>
   <v type="int" >      163 </v>
   <v type="int" >      164 </v>
   <v type="int" >      165 </v>
   <v type="int" >      166 </v>
   <v type="int" >      167 </v>
   <v type="int" >      168 </v>
   <v type="int" >      169 </v>
   <v type="int" >      170 </v>
   <v type="int" >      171 </v>
   <v type="int" >      172 </v>
   <v type="int" >      173 </v>
   <v type="int" >      174 </v>
   <v type="int" >      175 </v>
   <v type="int" >      176 </v>
   <v type="int" >      177 </v>
   <v type="int" >      178 </v>
   <v type="int" >      179 </v>
   <v type="int" >      180 </v>
   <v type="int" >      181 </v>
   <v type="int" >      182 </v>
   <v type="int" >      183 </v>
   <v type="int" >      184 </v>
   <v type="int" >      185 </v>
   <v type="int" >      186 </v>
   <v type="int" >      187 </v>
   <v type="int" >      188 </v>
   <v type="int" >      189 </v>
   <v type="int" >      190 </v>
   <v type="int" >      191 </v>
   <v type="int" >      192 </v>
   <v type="int" >      193 </v>
   <v type="int" >      194 </v>
   <v type="int" >      195 </v>
   <v type="int" >      196 </v>
   <v type="int" >      197 </v>
   <v type="int" >      198 </v>
   <v type="int" >      199 </v>
   <v type="int" >      200 </v>
   <v type="int" >      201 </v>
   <v type="int" >      202 </v>
   <v type="int" >      203 </v>
   <v type="int" >      204 </v>
   <v type="int" >      205 </v>
   <v type="int" >      206 </v>
   <v type="int" >      207 </v>
   <v type="int" >      208 </v>
   <v type="int" >      209 </v>
   <v type="int" >      210 </v>
   <v type="int" >      211 </v>
   <v type="int" >      212 </v>
   <v type="int" >      213 </v>
   <v type="int" >      214 </v>
   <v type="int" >      215 </v>
   <v type="int" >      216 </v>
   <v type="int" >      217 </v>
   <v type="int" >      218 </v>
   <v type="int" >      219 </v>
   <v type="int" >      220 </v>
   <v type="int" >      221 </v>
   <v type="int" >      222 </v>
   <v type="int" >      223 </v>
   <v type="int" >      224 </v>
   <v type="int" >      225 </v>
   <v type="int" >      226 </v>
   <v type="int" >      227 </v>
   <v type="int" >      228 </v>
   <v type="int" >      229 </v>
   <v type="int" >      230 </v>
   <v type="int" >      231 </v>
   <v type="int" >      232 </v>
   <v type="int" >      233 </v>
   <v type="int" >      234 </v>
   <v type="int" >      235 </v>
   <v type="int" >      236 </v>
   <v type="int" >      237 </v>
   <v type="int" >      238 </v>
   <v type="int" >      239 </v>
   <v type="int" >      240 </v>
   <v type="int" >      241 </v>
   <v type="int" >      242 </v>
   <v type="int" >      243 </v>
   <v type="int" >      244 </v>
   <v type="int" >      245 </v>
   <v type="int" >      246 </v>
   <v type="int" >      247 </v>
   <v type="int" >      248 </v>
   <v type="int" >      249 </v>
   <v type="int" >      250 </v>
   <v type="int" >      251 </v>
   <v type="int" >      252 </v>
   <v type="int" >      253 </v>
   <v type="int" >      254 </v>
   <v type="int" >      255 </v>
   <v type="int" >      256 </v>
   <v type="int" >      257 </v>
   <v type="int" >      258 </v>
   <v type="int" >      259 </v>
   <v type="int" >      260 </v>
   <v type="int" >      261 </v>
   <v type="int" >      262 </v>
   <v type="int" >      263 </v>
   <v type="int" >      264 </v>
   <v type="int" >      265 </v>
   <v type="int" >      266 </v>
   <v type="int" >      267 </v>
   <v type="int" >      268 </v>
   <v type="int" >      269 </v>
   <v type="int" >      270 </v>
   <v type="int" >      271 </v>
   <v type="int" >      272 </v>
   <v type="int" >      273 </v>
   <v type="int" >      274 </v>
   <v type="int" >      275 </v>
   <v type="int" >      276 </v>
   <v type="int" >      277 </v>
   <v type="int" >      278 </v>
   <v type="int" >      279 </v>
   <v type="int" >      280 </v>
   <v type="int" >      281 </v>
   <v type="int" >      282 </v>
   <v type="int" >      283 </v>
   <v type="int" >      284 </v>
   <v type="int" >      285 </v>
   <v type="int" >      286 </v>
   <v type="int" >      287 </v>
   <v type="int" >      288 </v>
   <v type="int" >      289 </v>
   <v type="int" >      290 </v>
   <v type="int" >      291 </v>
   <v type="int" >      292 </v>
   <v type="int" >      293 </v>
   <v type="int" >      294 </v>
   <v type="int" >      295 </v>
   <v type="int" >      296 </v>
   <v type="int" >      297 </v>
   <v type="int" >      298 </v>
   <v type="int" >      299 </v>
   <v type="int" >      300 </v>
   <v type="int" >      301 </v>
   <v type="int" >      302 </v>
   <v type="int" >      303 </v>
   <v type="int" >      304 </v>
   <v type="int" >      305 </v>
   <v type="int" >      306 </v>
   <v type="int" >      307 </v>
   <v type="int" >      308 </v>
   <v type="int" >      309 </v>
   <v type="int" >      310 </v>
   <v type="int" >      311 </v>
   <v type="int" >      312 </v>
   <v type="int" >      313 </v>
   <v type="int" >      314 </v>
   <v type="int" >      315 </v>
   <v type="int" >      316 </v>
   <v type="int" >      317 </v>
   <v type="int" >      318 </v>
   <v type="int" >      319 </v>
   <v type="int" >      320 </v>
   <v type="int" >      321 </v>
   <v type="int" >      322 </v>
   <v type="int" >      323 </v>
   <v type="int" >      324 </v>
   <v type="int" >      325 </v>
  </varray>
 </primitive_cell>
 <kpoints>
  <generation param="Gamma">
   <v type="int" name="divisions">       3        3        1 </v>
   <v name="usershift">      0.00000000       0.00000000       0.00000000 </v>
   <v name="genvec1">      0.33333333       0.00000000       0.00000000 </v>
   <v name="genvec2">      0.00000000       0.33333333       0.00000000 </v>
   <v name="genvec3">      0.00000000       0.00000000       1.00000000 </v>
   <v name="shift">      0.00000000       0.00000000       0.00000000 </v>
  </generation>
  <varray name="kpointlist" >
   <v>       0.00000000       0.00000000       0.00000000 </v>
   <v>       0.33333333       0.00000000       0.00000000 </v>
   <v>       0.00000000       0.33333333       0.00000000 </v>
   <v>       0.33333333       0.33333333       0.00000000 </v>
   <v>      -0.33333333       0.33333333       0.00000000 </v>
  </varray>
  <varray name="weights" >
   <v>       0.11111111 </v>
   <v>       0.22222222 </v>
   <v>       0.22222222 </v>
   <v>       0.22222222 </v>
   <v>       0.22222222 </v>
  </varray>
 </kpoints>
 <parameters>
  <separator name="general" >
   <i type="string" name="SYSTEM">PSC</i>
   <i type="logical" name="LCOMPAT"> F  </i>
  </separator>
  <separator name="electronic" >
   <i type="string" name="PREC">normal</i>
   <i name="ENMAX">    500.00000000</i>
   <i name="ENAUG">    644.87300000</i>
   <i name="EDIFF">      0.00010000</i>
   <i type="int" name="IALGO">    38</i>
   <i type="int" name="IWAVPR">    10</i>
   <i type="int" name="NBANDS">   732</i>
   <i type="int" name="NBANDSLOW">    -1</i>
   <i type="int" name="NBANDSHIGH">    -1</i>
   <i name="NELECT">   1134.00000000</i>
   <i type="int" name="TURBO">     0</i>
   <i type="int" name="IRESTART">     0</i>
   <i type="int" name="NREBOOT">     0</i>
   <i type="int" name="NMIN">     0</i>
   <i name="EREF">      0.00000000</i>
   <separator name="electronic smearing" >
    <i type="int" name="ISMEAR">     0</i>
    <i name="SIGMA">      0.05000000</i>
    <i name="KSPACING">      0.50000000</i>
    <i type="logical" name="KGAMMA"> T  </i>
    <i type="logical" name="KBLOWUP"> T  </i>
   </separator>
   <separator name="electronic projectors" >
    <i type="logical" name="LREAL"> T  </i>
    <v name="ROPT">     -0.00050000     -0.00050000     -0.00050000     -0.00050000     -0.00050000</v>
    <i type="int" name="LMAXPAW">  -100</i>
    <i type="int" name="LMAXMIX">     2</i>
    <i type="logical" name="NLSPLINE"> F  </i>
   </separator>
   <separator name="electronic startup" >
    <i type="int" name="ISTART">     0</i>
    <i type="int" name="ICHARG">     1</i>
    <i type="int" name="INIWAV">     1</i>
   </separator>
   <separator name="electronic spin" >
    <i type="int" name="ISPIN">     1</i>
    <i type="logical" name="LNONCOLLINEAR"> F  </i>
    <v name="MAGMOM">      1.00000000      1.00000000      1.00000000      1.00000000      1.00000000      1.00000000      1.00000000      1.00000000      1.00000000      1.00000000      1.00000000      1.00000000      1.00000000      1.00000000      1.00000000      1.00000000      1.00000000      1.00000000      1.00000000      1.00000000
      1.00000000      1.00000000      1.00000000      1.00000000      1.00000000      1.00000000      1.00000000      1.00000000      1.00000000      1.00000000      1.00000000      1.00000000      1.00000000      1.00000000      1.00000000      1.00000000      1.00000000      1.00000000      1.00000000      1.00000000
      1.00000000      1.00000000      1.00000000      1.00000000      1.00000000      1.00000000      1.00000000      1.00000000      1.00000000      1.00000000      1.00000000      1.00000000      1.00000000      1.00000000      1.00000000      1.00000000      1.00000000      1.00000000      1.00000000      1.00000000
      1.00000000      1.00000000      1.00000000      1.00000000      1.00000000      1.00000000      1.00000000      1.00000000      1.00000000      1.00000000      1.00000000      1.00000000      1.00000000      1.00000000      1.00000000      1.00000000      1.00000000      1.00000000      1.00000000      1.00000000
      1.00000000      1.00000000      1.00000000      1.00000000      1.00000000      1.00000000      1.00000000      1.00000000      1.00000000      1.00000000      1.00000000      1.00000000      1.00000000      1.00000000      1.00000000      1.00000000      1.00000000      1.00000000      1.00000000      1.00000000
      1.00000000      1.00000000      1.00000000      1.00000000      1.00000000      1.00000000      1.00000000      1.00000000      1.00000000      1.00000000      1.00000000      1.00000000      1.00000000      1.00000000      1.00000000      1.00000000      1.00000000      1.00000000      1.00000000      1.00000000
      1.00000000      1.00000000      1.00000000      1.00000000      1.00000000      1.00000000      1.00000000      1.00000000      1.00000000      1.00000000      1.00000000      1.00000000      1.00000000      1.00000000      1.00000000      1.00000000      1.00000000      1.00000000      1.00000000      1.00000000
      1.00000000      1.00000000      1.00000000      1.00000000      1.00000000      1.00000000      1.00000000      1.00000000      1.00000000      1.00000000      1.00000000      1.00000000      1.00000000      1.00000000      1.00000000      1.00000000      1.00000000      1.00000000      1.00000000      1.00000000
      1.00000000      1.00000000      1.00000000      1.00000000      1.00000000      1.00000000      1.00000000      1.00000000      1.00000000      1.00000000      1.00000000      1.00000000      1.00000000      1.00000000      1.00000000      1.00000000      1.00000000      1.00000000      1.00000000      1.00000000
      1.00000000      1.00000000      1.00000000      1.00000000      1.00000000      1.00000000      1.00000000      1.00000000      1.00000000      1.00000000      1.00000000      1.00000000      1.00000000      1.00000000      1.00000000      1.00000000      1.00000000      1.00000000      1.00000000      1.00000000
      1.00000000      1.00000000      1.00000000      1.00000000      1.00000000      1.00000000      1.00000000      1.00000000      1.00000000      1.00000000      1.00000000      1.00000000      1.00000000      1.00000000      1.00000000      1.00000000      1.00000000      1.00000000      1.00000000      1.00000000
      1.00000000      1.00000000      1.00000000      1.00000000      1.00000000      1.00000000      1.00000000      1.00000000      1.00000000      1.00000000      1.00000000      1.00000000      1.00000000      1.00000000      1.00000000      1.00000000      1.00000000      1.00000000      1.00000000      1.00000000
      1.00000000      1.00000000      1.00000000      1.00000000      1.00000000      1.00000000      1.00000000      1.00000000      1.00000000      1.00000000      1.00000000      1.00000000      1.00000000      1.00000000      1.00000000      1.00000000      1.00000000      1.00000000      1.00000000      1.00000000
      1.00000000      1.00000000      1.00000000      1.00000000      1.00000000      1.00000000      1.00000000      1.00000000      1.00000000      1.00000000      1.00000000      1.00000000      1.00000000      1.00000000      1.00000000      1.00000000      1.00000000      1.00000000      1.00000000      1.00000000
      1.00000000      1.00000000      1.00000000      1.00000000      1.00000000      1.00000000      1.00000000      1.00000000      1.00000000      1.00000000      1.00000000      1.00000000      1.00000000      1.00000000      1.00000000      1.00000000      1.00000000      1.00000000      1.00000000      1.00000000
      1.00000000      1.00000000      1.00000000      1.00000000      1.00000000      1.00000000      1.00000000      1.00000000      1.00000000      1.00000000      1.00000000      1.00000000      1.00000000      1.00000000      1.00000000      1.00000000      1.00000000      1.00000000      1.00000000      1.00000000
      1.00000000      1.00000000      1.00000000      1.00000000      1.00000000</v>
    <i name="NUPDOWN">     -1.00000000</i>
    <i type="logical" name="LSORBIT"> F  </i>
    <v name="SAXIS">      0.00000000      0.00000000      1.00000000</v>
    <i type="logical" name="LSPIRAL"> F  </i>
    <v name="QSPIRAL">      0.00000000      0.00000000      0.00000000</v>
    <i type="logical" name="LZEROZ"> F  </i>
   </separator>
   <separator name="electronic exchange-correlation" >
    <i type="logical" name="LASPH"> F  </i>
    <i type="logical" name="LMETAGGA"> F  </i>
   </separator>
   <separator name="electronic convergence" >
    <i type="int" name="NELM">   600</i>
    <i type="int" name="NELMDL">     0</i>
    <i type="int" name="NELMIN">     2</i>
    <i name="ENINI">    500.00000000</i>
    <separator name="electronic convergence detail" >
     <i type="logical" name="LDIAG"> T  </i>
     <i type="logical" name="LSUBROT"> F  </i>
     <i name="WEIMIN">      0.00000000</i>
     <i name="EBREAK">      0.00000003</i>
     <i name="DEPER">      0.30000000</i>
     <i type="int" name="NRMM">     4</i>
     <i name="TIME">      0.40000000</i>
    </separator>
   </separator>
   <separator name="electronic mixer" >
    <i name="AMIX">      0.40000000</i>
    <i name="BMIX">      0.01000000</i>
    <i name="AMIN">      0.01000000</i>
    <i name="AMIX_MAG">      1.60000000</i>
    <i name="BMIX_MAG">      0.01000000</i>
    <separator name="electronic mixer details" >
     <i type="int" name="IMIX">     4</i>
     <i type="logical" name="MIXFIRST"> F  </i>
     <i type="int" name="MAXMIX">   -45</i>
     <i name="WC">    100.00000000</i>
     <i type="int" name="INIMIX">     1</i>
     <i type="int" name="MIXPRE">     1</i>
     <i type="int" name="MREMOVE">     5</i>
    </separator>
   </separator>
   <separator name="electronic dipolcorrection" >
    <i type="logical" name="LDIPOL"> T  </i>
    <i type="logical" name="LMONO"> F  </i>
    <i type="int" name="IDIPOL">     3</i>
    <i name="EPSILON">      1.00000000</i>
    <v name="DIPOL">   -100.00000000   -100.00000000   -100.00000000</v>
    <i name="EFIELD">      0.00000000</i>
   </separator>
  </separator>
  <separator name="grids" >
   <i type="int" name="NGX">   100</i>
   <i type="int" name="NGY">   100</i>
   <i type="int" name="NGZ">   350</i>
   <i type="int" name="NGXF">   200</i>
   <i type="int" name="NGYF">   200</i>
   <i type="int" name="NGZF">   700</i>
   <i type="logical" name="ADDGRID"> F  </i>
  </separator>
  <separator name="ionic" >
   <i type="int" name="NSW">     0</i>
   <i type="int" name="IBRION">    -1</i>
   <i type="int" name="MDALGO">     0</i>
   <i type="int" name="ISIF">     2</i>
   <i name="PSTRESS">      0.00000000</i>
   <i name="EDIFFG">      0.00100000</i>
   <i type="int" name="NFREE">     0</i>
   <i name="POTIM">      0.50000000</i>
   <i name="SMASS">     -3.00000000</i>
   <i name="SCALEE">      1.00000000</i>
  </separator>
  <separator name="ionic md" >
   <i name="TEBEG">      0.00010000</i>
   <i name="TEEND">      0.00010000</i>
   <i type="int" name="NBLOCK">     1</i>
   <i type="int" name="KBLOCK">     1</i>
   <i type="int" name="NPACO">   256</i>
   <i name="APACO">     16.00000000</i>
  </separator>
  <separator name="symmetry" >
   <i type="int" name="ISYM">     0</i>
   <i name="SYMPREC">      0.00001000</i>
  </separator>
  <separator name="dos" >
   <i type="int" name="LORBIT">     0</i>
   <v name="RWIGS">     -1.00000000     -1.00000000     -1.00000000     -1.00000000     -1.00000000</v>
   <i type="int" name="NEDOS">   301</i>
   <i name="EMIN">     10.00000000</i>
   <i name="EMAX">    -10.00000000</i>
   <i name="EFERMI">      0.00000000</i>
  </separator>
  <separator name="writing" >
   <i type="int" name="NWRITE">     2</i>
   <i type="logical" name="LWAVE"> F  </i>
   <i type="logical" name="LDOWNSAMPLE"> F  </i>
   <i type="logical" name="LCHARG"> T  </i>
   <i type="logical" name="LPARD"> F  </i>
   <i type="logical" name="LVTOT"> T  </i>
   <i type="logical" name="LVHAR"> F  </i>
   <i type="logical" name="LELF"> F  </i>
   <i type="logical" name="LOPTICS"> F  </i>
   <v name="STM">      0.00000000      0.00000000      0.00000000      0.00000000      0.00000000      0.00000000      0.00000000</v>
  </separator>
  <separator name="performance" >
   <i type="int" name="NPAR">     4</i>
   <i type="int" name="NSIM">     4</i>
   <i type="int" name="NBLK">    -1</i>
   <i type="logical" name="LPLANE"> T  </i>
   <i type="logical" name="LSCALAPACK"> T  </i>
   <i type="logical" name="LSCAAWARE"> F  </i>
   <i type="logical" name="LSCALU"> F  </i>
   <i type="logical" name="LASYNC"> F  </i>
   <i type="logical" name="LORBITALREAL"> F  </i>
  </separator>
  <separator name="miscellaneous" >
   <i type="int" name="IDIOT">     3</i>
   <i type="int" name="PHON_NSTRUCT">    -1</i>
   <i type="logical" name="LMUSIC"> F  </i>
   <v name="POMASS">      1.00000000     12.01100000     14.00100000    126.90400000    207.20000000</v>
   <v name="DARWINR">      0.00000000      0.00000000      0.00000000      0.00000000      0.00000000</v>
   <v name="DARWINV">      1.00000000      1.00000000      1.00000000      1.00000000      1.00000000</v>
   <i type="logical" name="LCORR"> T  </i>
  </separator>
  <i type="logical" name="GGA_COMPAT"> F  </i>
  <i type="logical" name="LBERRY"> F  </i>
  <i type="int" name="ICORELEVEL">     0</i>
  <i type="logical" name="LDAU"> F  </i>
  <i type="int" name="I_CONSTRAINED_M">     0</i>
  <separator name="electronic exchange-correlation" >
   <i type="string" name="GGA">--</i>
   <i type="int" name="VOSKOWN">     0</i>
   <i type="logical" name="LHFCALC"> F  </i>
   <i type="string" name="PRECFOCK"></i>
   <i type="logical" name="LSYMGRAD"> F  </i>
   <i type="logical" name="LHFONE"> F  </i>
   <i type="logical" name="LRHFCALC"> F  </i>
   <i type="logical" name="LTHOMAS"> F  </i>
   <i type="logical" name="LMODELHF"> F  </i>
   <i type="logical" name="LFOCKACE"> F  </i>
   <i name="ENCUT4O">     -1.00000000</i>
   <i type="int" name="EXXOEP">     0</i>
   <i type="int" name="FOURORBIT">     0</i>
   <i name="AEXX">      0.00000000</i>
   <i name="HFALPHA">      0.00000000</i>
   <i name="MCALPHA">      0.00000000</i>
   <i name="ALDAX">      1.00000000</i>
   <i name="AGGAX">      1.00000000</i>
   <i name="ALDAC">      1.00000000</i>
   <i name="AGGAC">      1.00000000</i>
   <i type="int" name="NKREDX">     1</i>
   <i type="int" name="NKREDY">     1</i>
   <i type="int" name="NKREDZ">     1</i>
   <i type="logical" name="SHIFTRED"> F  </i>
   <i type="logical" name="ODDONLY"> F  </i>
   <i type="logical" name="EVENONLY"> F  </i>
   <i type="int" name="LMAXFOCK">     0</i>
   <i type="int" name="NMAXFOCKAE">     0</i>
   <i type="logical" name="LFOCKAEDFT"> F  </i>
   <i name="HFSCREEN">      0.00000000</i>
   <i name="HFSCREENC">      0.00000000</i>
   <i type="int" name="NBANDSGWLOW">     0</i>
  </separator>
  <separator name="vdW DFT" >
   <i type="logical" name="LUSE_VDW"> F  </i>
   <i name="Zab_VDW">     -0.84910000</i>
   <i name="PARAM1">      0.12340000</i>
   <i name="PARAM2">      1.00000000</i>
   <i name="PARAM3">      0.00000000</i>
  </separator>
  <separator name="model GW" >
   <i type="int" name="MODEL_GW">     0</i>
   <i name="MODEL_EPS0">     37.63423484</i>
   <i name="MODEL_ALPHA">      1.00000000</i>
  </separator>
  <separator name="linear response parameters" >
   <i type="logical" name="LEPSILON"> F  </i>
   <i type="logical" name="LRPA"> F  </i>
   <i type="logical" name="LNABLA"> F  </i>
   <i type="logical" name="LVEL"> F  </i>
   <i type="int" name="KINTER">     0</i>
   <i name="CSHIFT">      0.10000000</i>
   <i name="OMEGAMAX">     -1.00000000</i>
   <i name="DEG_THRESHOLD">      0.00200000</i>
   <i name="RTIME">     -0.10000000</i>
   <i name="WPLASMAI">      0.00000000</i>
   <v name="DFIELD">      0.00000000      0.00000000      0.00000000</v>
   <v name="WPLASMA">      0.00000000      0.00000000      0.00000000      0.00000000      0.00000000      0.00000000      0.00000000      0.00000000      0.00000000</v>
  </separator>
  <separator name="orbital magnetization" >
   <i type="logical" name="NUCIND"> F  </i>
   <v name="MAGPOS">      0.00000000      0.00000000      0.00000000</v>
   <i type="logical" name="LNICSALL"> T  </i>
   <i type="logical" name="ORBITALMAG"> F  </i>
   <i type="logical" name="LMAGBLOCH"> F  </i>
   <i type="logical" name="LCHIMAG"> F  </i>
   <i type="logical" name="LGAUGE"> T  </i>
   <i type="int" name="MAGATOM">     0</i>
   <v name="MAGDIPOL">      0.00000000      0.00000000      0.00000000</v>
   <v name="AVECCONST">      0.00000000      0.00000000      0.00000000</v>
  </separator>
  <separator name="response functions" >
   <i type="logical" name="LFINITE_TEMPERATURE"> F  </i>
   <i type="logical" name="LADDER"> F  </i>
   <i type="logical" name="LRPAFORCE"> F  </i>
   <i type="logical" name="LFXC"> F  </i>
   <i type="logical" name="LHARTREE"> T  </i>
   <i type="int" name="IBSE">     0</i>
   <v type="int" name="KPOINT">    -1     0     0     0</v>
   <i type="logical" name="LTCTC"> F  </i>
   <i type="logical" name="LTCTE"> F  </i>
   <i type="logical" name="LTETE"> F  </i>
   <i type="logical" name="LTRIPLET"> F  </i>
   <i type="logical" name="LFXCEPS"> F  </i>
   <i type="logical" name="LFXHEG"> F  </i>
   <i type="int" name="NATURALO">     2</i>
   <i type="logical" name="LHOLEGF"> F  </i>
   <i type="logical" name="L2ORDER"> F  </i>
   <i type="logical" name="LDMP1"> F  </i>
   <i type="logical" name="LMP2LT"> F  </i>
   <i type="logical" name="LSMP2LT"> F  </i>
   <i type="logical" name="LGWLF"> F  </i>
   <i name="ENCUTGW">     -2.00000000</i>
   <i name="ENCUTGWSOFT">     -2.00000000</i>
   <i name="ENCUTLF">     -1.00000000</i>
   <i type="logical" name="LESF_SPLINES"> F  </i>
   <i type="int" name="LMAXMP2">    -1</i>
   <i name="SCISSOR">      0.00000000</i>
   <i type="int" name="NOMEGA">     0</i>
   <i type="int" name="NOMEGAR">     0</i>
   <i type="int" name="NBANDSGW">    -1</i>
   <i type="int" name="NBANDSO">    -1</i>
   <i type="int" name="NBANDSV">    -1</i>
   <i type="int" name="NELM">   600</i>
   <i type="int" name="NELMHF">     1</i>
   <i type="int" name="DIM">     3</i>
   <i type="int" name="IESPILON">     4</i>
   <i type="int" name="ANTIRES">     0</i>
   <i name="OMEGAMAX">    -30.00000000</i>
   <i name="OMEGAMIN">    -30.00000000</i>
   <i name="OMEGATL">   -200.00000000</i>
   <i type="int" name="OMEGAGRID">     0</i>
   <i name="CSHIFT">     -0.10000000</i>
   <i type="logical" name="LSELFENERGY"> F  </i>
   <i type="logical" name="LSPECTRAL"> F  </i>
   <i type="logical" name="LSPECTRALGW"> F  </i>
   <i type="logical" name="LSINGLES"> F  </i>
   <i type="logical" name="LFERMIGW"> F  </i>
   <i type="logical" name="ODDONLYGW"> F  </i>
   <i type="logical" name="EVENONLYGW"> F  </i>
   <i type="int" name="NKREDLFX">     1</i>
   <i type="int" name="NKREDLFY">     1</i>
   <i type="int" name="NKREDLFZ">     1</i>
   <i type="int" name="MAXMEM">  2800</i>
   <i type="int" name="TELESCOPE">     0</i>
   <i type="int" name="NTAUPAR">    -1</i>
   <i type="int" name="NOMEGAPAR">    -1</i>
   <i name="DAMP_NEWTON">      0.80000001</i>
   <i name="LAMBDA">      1.00000000</i>
  </separator>
  <separator name="External order field" >
   <i name="OFIELD_KAPPA">      0.00000000</i>
   <v name="OFIELD_K">      0.00000000      0.00000000      0.00000000</v>
   <i name="OFIELD_Q6_NEAR">      0.00000000</i>
   <i name="OFIELD_Q6_FAR">      0.00000000</i>
   <i name="OFIELD_A">      0.00000000</i>
  </separator>
 </parameters>
 <atominfo>
  <atoms>     325 </atoms>
  <types>       5 </types>
  <array name="atoms" >
   <dimension dim="1">ion</dimension>
   <field type="string">element</field>
   <field type="int">atomtype</field>
   <set>
    <rc><c>H </c><c>   1</c></rc>
    <rc><c>H </c><c>   1</c></rc>
    <rc><c>H </c><c>   1</c></rc>
    <rc><c>H </c><c>   1</c></rc>
    <rc><c>H </c><c>   1</c></rc>
    <rc><c>H </c><c>   1</c></rc>
    <rc><c>H </c><c>   1</c></rc>
    <rc><c>H </c><c>   1</c></rc>
    <rc><c>H </c><c>   1</c></rc>
    <rc><c>H </c><c>   1</c></rc>
    <rc><c>H </c><c>   1</c></rc>
    <rc><c>H </c><c>   1</c></rc>
    <rc><c>H </c><c>   1</c></rc>
    <rc><c>H </c><c>   1</c></rc>
    <rc><c>H </c><c>   1</c></rc>
    <rc><c>H </c><c>   1</c></rc>
    <rc><c>H </c><c>   1</c></rc>
    <rc><c>H </c><c>   1</c></rc>
    <rc><c>H </c><c>   1</c></rc>
    <rc><c>H </c><c>   1</c></rc>
    <rc><c>H </c><c>   1</c></rc>
    <rc><c>H </c><c>   1</c></rc>
    <rc><c>H </c><c>   1</c></rc>
    <rc><c>H </c><c>   1</c></rc>
    <rc><c>H </c><c>   1</c></rc>
    <rc><c>H </c><c>   1</c></rc>
    <rc><c>H </c><c>   1</c></rc>
    <rc><c>H </c><c>   1</c></rc>
    <rc><c>H </c><c>   1</c></rc>
    <rc><c>H </c><c>   1</c></rc>
    <rc><c>H </c><c>   1</c></rc>
    <rc><c>H </c><c>   1</c></rc>
    <rc><c>H </c><c>   1</c></rc>
    <rc><c>H </c><c>   1</c></rc>
    <rc><c>H </c><c>   1</c></rc>
    <rc><c>H </c><c>   1</c></rc>
    <rc><c>H </c><c>   1</c></rc>
    <rc><c>H </c><c>   1</c></rc>
    <rc><c>H </c><c>   1</c></rc>
    <rc><c>H </c><c>   1</c></rc>
    <rc><c>H </c><c>   1</c></rc>
    <rc><c>H </c><c>   1</c></rc>
    <rc><c>H </c><c>   1</c></rc>
    <rc><c>H </c><c>   1</c></rc>
    <rc><c>H </c><c>   1</c></rc>
    <rc><c>H </c><c>   1</c></rc>
    <rc><c>H </c><c>   1</c></rc>
    <rc><c>H </c><c>   1</c></rc>
    <rc><c>H </c><c>   1</c></rc>
    <rc><c>H </c><c>   1</c></rc>
    <rc><c>H </c><c>   1</c></rc>
    <rc><c>H </c><c>   1</c></rc>
    <rc><c>H </c><c>   1</c></rc>
    <rc><c>H </c><c>   1</c></rc>
    <rc><c>H </c><c>   1</c></rc>
    <rc><c>H </c><c>   1</c></rc>
    <rc><c>H </c><c>   1</c></rc>
    <rc><c>H </c><c>   1</c></rc>
    <rc><c>H </c><c>   1</c></rc>
    <rc><c>H </c><c>   1</c></rc>
    <rc><c>H </c><c>   1</c></rc>
    <rc><c>H </c><c>   1</c></rc>
    <rc><c>H </c><c>   1</c></rc>
    <rc><c>H </c><c>   1</c></rc>
    <rc><c>H </c><c>   1</c></rc>
    <rc><c>H </c><c>   1</c></rc>
    <rc><c>H </c><c>   1</c></rc>
    <rc><c>H </c><c>   1</c></rc>
    <rc><c>H </c><c>   1</c></rc>
    <rc><c>H </c><c>   1</c></rc>
    <rc><c>H </c><c>   1</c></rc>
    <rc><c>H </c><c>   1</c></rc>
    <rc><c>H </c><c>   1</c></rc>
    <rc><c>H </c><c>   1</c></rc>
    <rc><c>H </c><c>   1</c></rc>
    <rc><c>H </c><c>   1</c></rc>
    <rc><c>H </c><c>   1</c></rc>
    <rc><c>H </c><c>   1</c></rc>
    <rc><c>H </c><c>   1</c></rc>
    <rc><c>H </c><c>   1</c></rc>
    <rc><c>H </c><c>   1</c></rc>
    <rc><c>H </c><c>   1</c></rc>
    <rc><c>H </c><c>   1</c></rc>
    <rc><c>H </c><c>   1</c></rc>
    <rc><c>H </c><c>   1</c></rc>
    <rc><c>H </c><c>   1</c></rc>
    <rc><c>H </c><c>   1</c></rc>
    <rc><c>H </c><c>   1</c></rc>
    <rc><c>H </c><c>   1</c></rc>
    <rc><c>H </c><c>   1</c></rc>
    <rc><c>H </c><c>   1</c></rc>
    <rc><c>H </c><c>   1</c></rc>
    <rc><c>H </c><c>   1</c></rc>
    <rc><c>H </c><c>   1</c></rc>
    <rc><c>H </c><c>   1</c></rc>
    <rc><c>H </c><c>   1</c></rc>
    <rc><c>H </c><c>   1</c></rc>
    <rc><c>H </c><c>   1</c></rc>
    <rc><c>H </c><c>   1</c></rc>
    <rc><c>H </c><c>   1</c></rc>
    <rc><c>H </c><c>   1</c></rc>
    <rc><c>H </c><c>   1</c></rc>
    <rc><c>H </c><c>   1</c></rc>
    <rc><c>H </c><c>   1</c></rc>
    <rc><c>H </c><c>   1</c></rc>
    <rc><c>H </c><c>   1</c></rc>
    <rc><c>H </c><c>   1</c></rc>
    <rc><c>H </c><c>   1</c></rc>
    <rc><c>H </c><c>   1</c></rc>
    <rc><c>H </c><c>   1</c></rc>
    <rc><c>H </c><c>   1</c></rc>
    <rc><c>H </c><c>   1</c></rc>
    <rc><c>H </c><c>   1</c></rc>
    <rc><c>H </c><c>   1</c></rc>
    <rc><c>H </c><c>   1</c></rc>
    <rc><c>H </c><c>   1</c></rc>
    <rc><c>H </c><c>   1</c></rc>
    <rc><c>H </c><c>   1</c></rc>
    <rc><c>H </c><c>   1</c></rc>
    <rc><c>H </c><c>   1</c></rc>
    <rc><c>H </c><c>   1</c></rc>
    <rc><c>H </c><c>   1</c></rc>
    <rc><c>H </c><c>   1</c></rc>
    <rc><c>H </c><c>   1</c></rc>
    <rc><c>H </c><c>   1</c></rc>
    <rc><c>H </c><c>   1</c></rc>
    <rc><c>H </c><c>   1</c></rc>
    <rc><c>H </c><c>   1</c></rc>
    <rc><c>H </c><c>   1</c></rc>
    <rc><c>H </c><c>   1</c></rc>
    <rc><c>H </c><c>   1</c></rc>
    <rc><c>H </c><c>   1</c></rc>
    <rc><c>H </c><c>   1</c></rc>
    <rc><c>H </c><c>   1</c></rc>
    <rc><c>H </c><c>   1</c></rc>
    <rc><c>H </c><c>   1</c></rc>
    <rc><c>H </c><c>   1</c></rc>
    <rc><c>H </c><c>   1</c></rc>
    <rc><c>H </c><c>   1</c></rc>
    <rc><c>H </c><c>   1</c></rc>
    <rc><c>H </c><c>   1</c></rc>
    <rc><c>H </c><c>   1</c></rc>
    <rc><c>H </c><c>   1</c></rc>
    <rc><c>C </c><c>   2</c></rc>
    <rc><c>C </c><c>   2</c></rc>
    <rc><c>C </c><c>   2</c></rc>
    <rc><c>C </c><c>   2</c></rc>
    <rc><c>C </c><c>   2</c></rc>
    <rc><c>C </c><c>   2</c></rc>
    <rc><c>C </c><c>   2</c></rc>
    <rc><c>C </c><c>   2</c></rc>
    <rc><c>C </c><c>   2</c></rc>
    <rc><c>C </c><c>   2</c></rc>
    <rc><c>C </c><c>   2</c></rc>
    <rc><c>C </c><c>   2</c></rc>
    <rc><c>C </c><c>   2</c></rc>
    <rc><c>C </c><c>   2</c></rc>
    <rc><c>C </c><c>   2</c></rc>
    <rc><c>C </c><c>   2</c></rc>
    <rc><c>C </c><c>   2</c></rc>
    <rc><c>C </c><c>   2</c></rc>
    <rc><c>C </c><c>   2</c></rc>
    <rc><c>C </c><c>   2</c></rc>
    <rc><c>C </c><c>   2</c></rc>
    <rc><c>C </c><c>   2</c></rc>
    <rc><c>C </c><c>   2</c></rc>
    <rc><c>C </c><c>   2</c></rc>
    <rc><c>C </c><c>   2</c></rc>
    <rc><c>C </c><c>   2</c></rc>
    <rc><c>C </c><c>   2</c></rc>
    <rc><c>C </c><c>   2</c></rc>
    <rc><c>C </c><c>   2</c></rc>
    <rc><c>C </c><c>   2</c></rc>
    <rc><c>C </c><c>   2</c></rc>
    <rc><c>C </c><c>   2</c></rc>
    <rc><c>C </c><c>   2</c></rc>
    <rc><c>C </c><c>   2</c></rc>
    <rc><c>C </c><c>   2</c></rc>
    <rc><c>C </c><c>   2</c></rc>
    <rc><c>C </c><c>   2</c></rc>
    <rc><c>C </c><c>   2</c></rc>
    <rc><c>C </c><c>   2</c></rc>
    <rc><c>N </c><c>   3</c></rc>
    <rc><c>N </c><c>   3</c></rc>
    <rc><c>N </c><c>   3</c></rc>
    <rc><c>N </c><c>   3</c></rc>
    <rc><c>N </c><c>   3</c></rc>
    <rc><c>N </c><c>   3</c></rc>
    <rc><c>N </c><c>   3</c></rc>
    <rc><c>N </c><c>   3</c></rc>
    <rc><c>N </c><c>   3</c></rc>
    <rc><c>N </c><c>   3</c></rc>
    <rc><c>N </c><c>   3</c></rc>
    <rc><c>N </c><c>   3</c></rc>
    <rc><c>N </c><c>   3</c></rc>
    <rc><c>N </c><c>   3</c></rc>
    <rc><c>N </c><c>   3</c></rc>
    <rc><c>N </c><c>   3</c></rc>
    <rc><c>N </c><c>   3</c></rc>
    <rc><c>N </c><c>   3</c></rc>
    <rc><c>N </c><c>   3</c></rc>
    <rc><c>N </c><c>   3</c></rc>
    <rc><c>N </c><c>   3</c></rc>
    <rc><c>N </c><c>   3</c></rc>
    <rc><c>N </c><c>   3</c></rc>
    <rc><c>N </c><c>   3</c></rc>
    <rc><c>N </c><c>   3</c></rc>
    <rc><c>N </c><c>   3</c></rc>
    <rc><c>N </c><c>   3</c></rc>
    <rc><c>N </c><c>   3</c></rc>
    <rc><c>N </c><c>   3</c></rc>
    <rc><c>N </c><c>   3</c></rc>
    <rc><c>N </c><c>   3</c></rc>
    <rc><c>N </c><c>   3</c></rc>
    <rc><c>N </c><c>   3</c></rc>
    <rc><c>N </c><c>   3</c></rc>
    <rc><c>N </c><c>   3</c></rc>
    <rc><c>N </c><c>   3</c></rc>
    <rc><c>N </c><c>   3</c></rc>
    <rc><c>N </c><c>   3</c></rc>
    <rc><c>N </c><c>   3</c></rc>
    <rc><c>N </c><c>   3</c></rc>
    <rc><c>N </c><c>   3</c></rc>
    <rc><c>N </c><c>   3</c></rc>
    <rc><c>N </c><c>   3</c></rc>
    <rc><c>N </c><c>   3</c></rc>
    <rc><c>N </c><c>   3</c></rc>
    <rc><c>N </c><c>   3</c></rc>
    <rc><c>N </c><c>   3</c></rc>
    <rc><c>I </c><c>   4</c></rc>
    <rc><c>I </c><c>   4</c></rc>
    <rc><c>I </c><c>   4</c></rc>
    <rc><c>I </c><c>   4</c></rc>
    <rc><c>I </c><c>   4</c></rc>
    <rc><c>I </c><c>   4</c></rc>
    <rc><c>I </c><c>   4</c></rc>
    <rc><c>I </c><c>   4</c></rc>
    <rc><c>I </c><c>   4</c></rc>
    <rc><c>I </c><c>   4</c></rc>
    <rc><c>I </c><c>   4</c></rc>
    <rc><c>I </c><c>   4</c></rc>
    <rc><c>I </c><c>   4</c></rc>
    <rc><c>I </c><c>   4</c></rc>
    <rc><c>I </c><c>   4</c></rc>
    <rc><c>I </c><c>   4</c></rc>
    <rc><c>I </c><c>   4</c></rc>
    <rc><c>I </c><c>   4</c></rc>
    <rc><c>I </c><c>   4</c></rc>
    <rc><c>I </c><c>   4</c></rc>
    <rc><c>I </c><c>   4</c></rc>
    <rc><c>I </c><c>   4</c></rc>
    <rc><c>I </c><c>   4</c></rc>
    <rc><c>I </c><c>   4</c></rc>
    <rc><c>I </c><c>   4</c></rc>
    <rc><c>I </c><c>   4</c></rc>
    <rc><c>I </c><c>   4</c></rc>
    <rc><c>I </c><c>   4</c></rc>
    <rc><c>I </c><c>   4</c></rc>
    <rc><c>I </c><c>   4</c></rc>
    <rc><c>I </c><c>   4</c></rc>
    <rc><c>I </c><c>   4</c></rc>
    <rc><c>I </c><c>   4</c></rc>
    <rc><c>I </c><c>   4</c></rc>
    <rc><c>I </c><c>   4</c></rc>
    <rc><c>I </c><c>   4</c></rc>
    <rc><c>I </c><c>   4</c></rc>
    <rc><c>I </c><c>   4</c></rc>
    <rc><c>I </c><c>   4</c></rc>
    <rc><c>I </c><c>   4</c></rc>
    <rc><c>I </c><c>   4</c></rc>
    <rc><c>I </c><c>   4</c></rc>
    <rc><c>I </c><c>   4</c></rc>
    <rc><c>I </c><c>   4</c></rc>
    <rc><c>I </c><c>   4</c></rc>
    <rc><c>I </c><c>   4</c></rc>
    <rc><c>I </c><c>   4</c></rc>
    <rc><c>I </c><c>   4</c></rc>
    <rc><c>I </c><c>   4</c></rc>
    <rc><c>I </c><c>   4</c></rc>
    <rc><c>I </c><c>   4</c></rc>
    <rc><c>I </c><c>   4</c></rc>
    <rc><c>I </c><c>   4</c></rc>
    <rc><c>I </c><c>   4</c></rc>
    <rc><c>I </c><c>   4</c></rc>
    <rc><c>I </c><c>   4</c></rc>
    <rc><c>I </c><c>   4</c></rc>
    <rc><c>I </c><c>   4</c></rc>
    <rc><c>I </c><c>   4</c></rc>
    <rc><c>I </c><c>   4</c></rc>
    <rc><c>I </c><c>   4</c></rc>
    <rc><c>I </c><c>   4</c></rc>
    <rc><c>I </c><c>   4</c></rc>
    <rc><c>I </c><c>   4</c></rc>
    <rc><c>I </c><c>   4</c></rc>
    <rc><c>I </c><c>   4</c></rc>
    <rc><c>I </c><c>   4</c></rc>
    <rc><c>I </c><c>   4</c></rc>
    <rc><c>I </c><c>   4</c></rc>
    <rc><c>I </c><c>   4</c></rc>
    <rc><c>I </c><c>   4</c></rc>
    <rc><c>I </c><c>   4</c></rc>
    <rc><c>Pb</c><c>   5</c></rc>
    <rc><c>Pb</c><c>   5</c></rc>
    <rc><c>Pb</c><c>   5</c></rc>
    <rc><c>Pb</c><c>   5</c></rc>
    <rc><c>Pb</c><c>   5</c></rc>
    <rc><c>Pb</c><c>   5</c></rc>
    <rc><c>Pb</c><c>   5</c></rc>
    <rc><c>Pb</c><c>   5</c></rc>
    <rc><c>Pb</c><c>   5</c></rc>
    <rc><c>Pb</c><c>   5</c></rc>
    <rc><c>Pb</c><c>   5</c></rc>
    <rc><c>Pb</c><c>   5</c></rc>
    <rc><c>Pb</c><c>   5</c></rc>
    <rc><c>Pb</c><c>   5</c></rc>
    <rc><c>Pb</c><c>   5</c></rc>
    <rc><c>Pb</c><c>   5</c></rc>
    <rc><c>Pb</c><c>   5</c></rc>
    <rc><c>Pb</c><c>   5</c></rc>
    <rc><c>Pb</c><c>   5</c></rc>
    <rc><c>Pb</c><c>   5</c></rc>
    <rc><c>Pb</c><c>   5</c></rc>
    <rc><c>Pb</c><c>   5</c></rc>
    <rc><c>Pb</c><c>   5</c></rc>
    <rc><c>Pb</c><c>   5</c></rc>
   </set>
  </array>
  <array name="atomtypes" >
   <dimension dim="1">type</dimension>
   <field type="int">atomspertype</field>
   <field type="string">element</field>
   <field>mass</field>
   <field>valence</field>
   <field type="string">pseudopotential</field>
   <set>
    <rc><c> 143</c><c>H </c><c>      1.00000000</c><c>      1.00000000</c><c>  PAW_PBE H 15Jun2001                   </c></rc>
    <rc><c>  39</c><c>C </c><c>     12.01100000</c><c>      4.00000000</c><c>  PAW_PBE C 08Apr2002                   </c></rc>
    <rc><c>  47</c><c>N </c><c>     14.00100000</c><c>      5.00000000</c><c>  PAW_PBE N 08Apr2002                   </c></rc>
    <rc><c>  72</c><c>I </c><c>    126.90400000</c><c>      7.00000000</c><c>  PAW_PBE I 08Apr2002                   </c></rc>
    <rc><c>  24</c><c>Pb</c><c>    207.20000000</c><c>      4.00000000</c><c>  PAW_PBE Pb 08Apr2002                  </c></rc>
   </set>
  </array>
 </atominfo>
 <structure name="initialpos" >
  <crystal>
   <varray name="basis" >
    <v>      18.06080055       0.00000000       0.00000000 </v>
    <v>      -0.00491865      18.06279945       0.00000000 </v>
    <v>       0.00000000       0.00000000      62.48749924 </v>
   </varray>
   <i name="volume">  20385.21054034 </i>
   <varray name="rec_basis" >
    <v>       0.05536853       0.00001508      -0.00000000 </v>
    <v>       0.00000000       0.05536240       0.00000000 </v>
    <v>       0.00000000      -0.00000000       0.01600320 </v>
   </varray>
  </crystal>
  <varray name="positions" >
   <v>       0.45146650       0.33438031       0.56482128 </v>
   <v>       0.42871923       0.83064556       0.56896683 </v>
   <v>       0.96065020       0.32819525       0.57642547 </v>
   <v>       0.94567468       0.81482029       0.57330137 </v>
   <v>       0.32965690       0.95427705       0.57304919 </v>
   <v>       0.35337618       0.54779248       0.55924271 </v>
   <v>       0.80616925       0.08776253       0.56637231 </v>
   <v>       0.01065135       0.14280044       0.55997547 </v>
   <v>       0.07061743       0.65950513       0.56934941 </v>
   <v>       0.55422249       0.16288794       0.55698085 </v>
   <v>       0.49602400       0.64507420       0.56010116 </v>
   <v>       0.36317676       0.02594996       0.55714910 </v>
   <v>       0.29862849       0.62758010       0.55391835 </v>
   <v>       0.87736176       0.02482212       0.55886117 </v>
   <v>       0.95545391       0.19170162       0.57811496 </v>
   <v>       0.99199815       0.68984338       0.58300479 </v>
   <v>       0.56562069       0.25276568       0.56707998 </v>
   <v>       0.43220347       0.69471355       0.57512791 </v>
   <v>       0.28005440       0.43663296       0.57210735 </v>
   <v>       0.19641063       0.92781491       0.57180938 </v>
   <v>       0.67968531       0.03322970       0.56973090 </v>
   <v>       0.37184170       0.29072192       0.55439110 </v>
   <v>       0.49692367       0.86940420       0.55255455 </v>
   <v>       0.01823580       0.36874921       0.55725428 </v>
   <v>       0.99483872       0.86495351       0.55430997 </v>
   <v>       0.18486875       0.44172551       0.56780290 </v>
   <v>       0.13911213       0.99068218       0.55851137 </v>
   <v>       0.67121280       0.93947580       0.56237225 </v>
   <v>       0.43298684       0.18110689       0.54736949 </v>
   <v>       0.54764271       0.75218638       0.54444361 </v>
   <v>       0.06176100       0.25191951       0.54537892 </v>
   <v>       0.08359927       0.76919870       0.55005216 </v>
   <v>       0.18769455       0.56183693       0.55603638 </v>
   <v>       0.24140041       0.06309477       0.54715497 </v>
   <v>       0.79465525       0.92632681       0.55509858 </v>
   <v>       0.48559714       0.33929530       0.66233896 </v>
   <v>       0.44972060       0.81152540       0.67348132 </v>
   <v>       0.96568246       0.28308330       0.67673844 </v>
   <v>       0.92890993       0.72498569       0.67307145 </v>
   <v>       0.30902833       0.05570533       0.67016578 </v>
   <v>       0.29802966       0.54841497       0.67516629 </v>
   <v>       0.80100966       0.05617354       0.67450503 </v>
   <v>       0.75828613       0.59798530       0.65775332 </v>
   <v>       0.08548740       0.16235716       0.64476824 </v>
   <v>       0.11480362       0.71874384       0.65046927 </v>
   <v>       0.57312991       0.16210382       0.65102890 </v>
   <v>       0.56342926       0.66254301       0.65071316 </v>
   <v>       0.17806554       0.41335900       0.64809117 </v>
   <v>       0.17427046       0.92053556       0.64998401 </v>
   <v>       0.70087895       0.40503124       0.66097858 </v>
   <v>       0.67382720       0.92220818       0.65017069 </v>
   <v>       0.06282645       0.18037134       0.67155485 </v>
   <v>       0.05843078       0.67496346       0.66915844 </v>
   <v>       0.59513392       0.25143061       0.65923366 </v>
   <v>       0.53171843       0.69461962       0.67557885 </v>
   <v>       0.19932144       0.44376760       0.67389199 </v>
   <v>       0.20768836       0.95463353       0.67415236 </v>
   <v>       0.66604490       0.49451115       0.66397442 </v>
   <v>       0.69762251       0.95894103       0.67517343 </v>
   <v>       0.39847568       0.29984230       0.65752434 </v>
   <v>       0.43613832       0.84470897       0.64770542 </v>
   <v>       0.93696984       0.32586359       0.65305225 </v>
   <v>       0.90404090       0.79563936       0.65568650 </v>
   <v>       0.33166928       0.07694608       0.64372726 </v>
   <v>       0.32998156       0.57662150       0.65015048 </v>
   <v>       0.83528880       0.07642667       0.64903301 </v>
   <v>       0.84585815       0.57038251       0.65034016 </v>
   <v>       0.00949536       0.25298025       0.63130675 </v>
   <v>       0.02183235       0.80000125       0.63953844 </v>
   <v>       0.44699878       0.18426353       0.64900249 </v>
   <v>       0.50646387       0.75374280       0.63148299 </v>
   <v>       0.24872247       0.99399250       0.62931313 </v>
   <v>       0.25876512       0.49331829       0.63152969 </v>
   <v>       0.75898736       0.99227540       0.63191637 </v>
   <v>       0.81843866       0.44464346       0.65120374 </v>
   <v>       0.44874502       0.30128397       0.76888902 </v>
   <v>       0.44874501       0.80128391       0.76888902 </v>
   <v>       0.94874497       0.30128397       0.76888902 </v>
   <v>       0.94874501       0.80128391       0.76888902 </v>
   <v>       0.30127600       0.05129450       0.76887296 </v>
   <v>       0.30127601       0.55129450       0.76887296 </v>
   <v>       0.80127594       0.05129450       0.76887296 </v>
   <v>       0.80127598       0.55129450       0.76887296 </v>
   <v>       0.07877100       0.17118050       0.74344197 </v>
   <v>       0.07877101       0.67118045       0.74344197 </v>
   <v>       0.57877100       0.17118050       0.74344197 </v>
   <v>       0.57877099       0.67118045       0.74344197 </v>
   <v>       0.17119950       0.42117448       0.74342103 </v>
   <v>       0.17119950       0.92117451       0.74342103 </v>
   <v>       0.67119951       0.42117448       0.74342103 </v>
   <v>       0.67119950       0.92117451       0.74342103 </v>
   <v>       0.05125600       0.19871499       0.76888902 </v>
   <v>       0.05125600       0.69871493       0.76888902 </v>
   <v>       0.55125603       0.19871499       0.76888902 </v>
   <v>       0.55125602       0.69871493       0.76888902 </v>
   <v>       0.19872349       0.44870397       0.76887205 </v>
   <v>       0.19872349       0.94870397       0.76887205 </v>
   <v>       0.69872352       0.44870397       0.76887205 </v>
   <v>       0.69872351       0.94870397       0.76887205 </v>
   <v>       0.42123152       0.32881747       0.74344197 </v>
   <v>       0.42123151       0.82881744       0.74344197 </v>
   <v>       0.92123147       0.32881747       0.74344197 </v>
   <v>       0.92123151       0.82881744       0.74344197 </v>
   <v>       0.32880050       0.07882500       0.74342103 </v>
   <v>       0.32880049       0.57882496       0.74342103 </v>
   <v>       0.82880048       0.07882500       0.74342103 </v>
   <v>       0.82880052       0.57882496       0.74342103 </v>
   <v>       0.00000350       0.25000148       0.72582199 </v>
   <v>       0.00000350       0.75000145       0.72582199 </v>
   <v>       0.50000351       0.25000148       0.72582199 </v>
   <v>       0.50000350       0.75000145       0.72582199 </v>
   <v>       0.25000050       0.00000000       0.72580398 </v>
   <v>       0.25000052       0.50000000       0.72580398 </v>
   <v>       0.75000050       0.00000000       0.72580398 </v>
   <v>       0.75000049       0.50000000       0.72580398 </v>
   <v>       0.77623918       0.55710726       0.51965954 </v>
   <v>       0.71990493       0.47840231       0.52490656 </v>
   <v>       0.86859411       0.50105722       0.53901339 </v>
   <v>       0.85848216       0.48120914       0.56656187 </v>
   <v>       0.74465895       0.64178390       0.56019945 </v>
   <v>       0.81102861       0.59598395       0.57628995 </v>
   <v>       0.66627546       0.54792162       0.56915614 </v>
   <v>       0.67973921       0.45430829       0.56047783 </v>
   <v>       0.61736479       0.55774696       0.53700920 </v>
   <v>       0.67307287       0.63811805       0.53513896 </v>
   <v>       0.60645134       0.64575091       0.50376919 </v>
   <v>       0.68689434       0.60236593       0.49443355 </v>
   <v>       0.78546166       0.39026510       0.53028343 </v>
   <v>       0.77918055       0.37154667       0.55790334 </v>
   <v>       0.86568806       0.36783383       0.54490244 </v>
   <v>       0.86315124       0.69575878       0.55352734 </v>
   <v>       0.84230192       0.64710807       0.52985891 </v>
   <v>       0.90726950       0.60967345       0.54864483 </v>
   <v>       0.76860882       0.52867037       0.59727577 </v>
   <v>       0.77262275       0.43389231       0.58921117 </v>
   <v>       0.69044943       0.47029216       0.60013835 </v>
   <v>       0.53644948       0.52946202       0.50418199 </v>
   <v>       0.57527478       0.54695484       0.47859826 </v>
   <v>       0.69963354       0.47972959       0.46961044 </v>
   <v>       0.55735251       0.41470959       0.52131087 </v>
   <v>       0.76412238       0.35887211       0.47154686 </v>
   <v>       0.62170910       0.29350898       0.52369343 </v>
   <v>       0.72681745       0.26555539       0.49906933 </v>
   <v>       0.01868335       0.25508798       0.55763625 </v>
   <v>       0.03611168       0.76186525       0.56083691 </v>
   <v>       0.46410791       0.22729707       0.55436949 </v>
   <v>       0.49931075       0.75653612       0.55491324 </v>
   <v>       0.24003258       0.53422199       0.55965875 </v>
   <v>       0.25019412       0.01321964       0.55673440 </v>
   <v>       0.77482939       0.98070205       0.56013559 </v>
   <v>       0.01114262       0.24405065       0.64864909 </v>
   <v>       0.00993852       0.75969332       0.65221724 </v>
   <v>       0.48428907       0.22946354       0.65369612 </v>
   <v>       0.50001069       0.75355527       0.64894791 </v>
   <v>       0.25444754       0.49489832       0.64896818 </v>
   <v>       0.25273075       0.99848601       0.64673220 </v>
   <v>       0.77525124       0.48522066       0.65524092 </v>
   <v>       0.75480665       0.99853866       0.64930333 </v>
   <v>       0.49998898       0.24999498       0.74327702 </v>
   <v>       0.49998903       0.74999496       0.74327702 </v>
   <v>       0.99998898       0.24999498       0.74327702 </v>
   <v>       0.99998903       0.74999496       0.74327702 </v>
   <v>       0.25000050       0.00000100       0.74325596 </v>
   <v>       0.25000052       0.50000100       0.74325596 </v>
   <v>       0.75000050       0.00000100       0.74325596 </v>
   <v>       0.75000049       0.50000100       0.74325596 </v>
   <v>       0.62460917       0.45617389       0.49542313 </v>
   <v>       0.68315483       0.43906601       0.48152264 </v>
   <v>       0.60313260       0.40208413       0.51043135 </v>
   <v>       0.71912633       0.37076244       0.48261322 </v>
   <v>       0.63945292       0.33376725       0.51170034 </v>
   <v>       0.69790815       0.31831054       0.49778658 </v>
   <v>       0.73171465       0.53537425       0.52983858 </v>
   <v>       0.83094681       0.47756525       0.55096933 </v>
   <v>       0.79279477       0.60512561       0.55975313 </v>
   <v>       0.70659871       0.50265958       0.56784142 </v>
   <v>       0.66314866       0.58327365       0.52806637 </v>
   <v>       0.63807572       0.59404337       0.50469531 </v>
   <v>       0.81302162       0.39798832       0.54570345 </v>
   <v>       0.85509892       0.63997273       0.54696114 </v>
   <v>       0.73741134       0.48313916       0.58968118 </v>
   <v>       0.58914056       0.53180417       0.49524862 </v>
   <v>       0.99427390       0.19320203       0.56596379 </v>
   <v>       0.03277472       0.70026570       0.57189765 </v>
   <v>       0.53434755       0.21541893       0.55872973 </v>
   <v>       0.47257254       0.69537225       0.56344381 </v>
   <v>       0.42804724       0.28994838       0.55739347 </v>
   <v>       0.47109254       0.82285024       0.55825253 </v>
   <v>       0.99522348       0.32102363       0.56329846 </v>
   <v>       0.98598710       0.81471333       0.56165970 </v>
   <v>       0.23610903       0.46408457       0.56536735 </v>
   <v>       0.19206527       0.97410592       0.56236437 </v>
   <v>       0.70331907       0.98648102       0.56356267 </v>
   <v>       0.31820688       0.99615642       0.56232365 </v>
   <v>       0.30169235       0.57198671       0.55761660 </v>
   <v>       0.82294710       0.03423596       0.56289860 </v>
   <v>       0.05519001       0.19219343       0.65557534 </v>
   <v>       0.06287580       0.71320441       0.65716135 </v>
   <v>       0.55530589       0.21378248       0.65495180 </v>
   <v>       0.53329187       0.70003798       0.65935765 </v>
   <v>       0.20772216       0.44839648       0.65792536 </v>
   <v>       0.20907150       0.95593747       0.65797065 </v>
   <v>       0.70894353       0.46089116       0.65975830 </v>
   <v>       0.70616098       0.95751241       0.65915320 </v>
   <v>       0.45500776       0.29460413       0.65799739 </v>
   <v>       0.46021701       0.80656580       0.65749058 </v>
   <v>       0.96872549       0.28653556       0.66041029 </v>
   <v>       0.94427362       0.76116368       0.66118852 </v>
   <v>       0.30119030       0.04637183       0.65435018 </v>
   <v>       0.29653483       0.54218051       0.65905198 </v>
   <v>       0.79956446       0.04698098       0.65848669 </v>
   <v>       0.79453007       0.55577000       0.65507835 </v>
   <v>       0.04586250       0.20411950       0.75272599 </v>
   <v>       0.04586250       0.70411946       0.75272599 </v>
   <v>       0.54586251       0.20411950       0.75272599 </v>
   <v>       0.54586250       0.70411946       0.75272599 </v>
   <v>       0.20411900       0.45410100       0.75270499 </v>
   <v>       0.20411899       0.95410095       0.75270499 </v>
   <v>       0.70411898       0.45410100       0.75270499 </v>
   <v>       0.70411896       0.95410095       0.75270499 </v>
   <v>       0.45414002       0.29588849       0.75272697 </v>
   <v>       0.45414001       0.79588852       0.75272697 </v>
   <v>       0.95414002       0.29588849       0.75272697 </v>
[...]
   <v>       0.55422249       0.16288794       0.55698085 </v>
   <v>       0.49602400       0.64507420       0.56010116 </v>
   <v>       0.36317676       0.02594996       0.55714910 </v>
   <v>       0.29862849       0.62758010       0.55391835 </v>
   <v>       0.87736176       0.02482212       0.55886117 </v>
   <v>       0.95545391       0.19170162       0.57811496 </v>
   <v>       0.99199815       0.68984338       0.58300479 </v>
   <v>       0.56562069       0.25276568       0.56707998 </v>
   <v>       0.43220347       0.69471355       0.57512791 </v>
   <v>       0.28005440       0.43663296       0.57210735 </v>
   <v>       0.19641063       0.92781491       0.57180938 </v>
   <v>       0.67968531       0.03322970       0.56973090 </v>
   <v>       0.37184170       0.29072192       0.55439110 </v>
   <v>       0.49692367       0.86940420       0.55255455 </v>
   <v>       0.01823580       0.36874921       0.55725428 </v>
   <v>       0.99483872       0.86495351       0.55430997 </v>
   <v>       0.18486875       0.44172551       0.56780290 </v>
   <v>       0.13911213       0.99068218       0.55851137 </v>
   <v>       0.67121280       0.93947580       0.56237225 </v>
   <v>       0.43298684       0.18110689       0.54736949 </v>
   <v>       0.54764271       0.75218638       0.54444361 </v>
   <v>       0.06176100       0.25191951       0.54537892 </v>
   <v>       0.08359927       0.76919870       0.55005216 </v>
   <v>       0.18769455       0.56183693       0.55603638 </v>
   <v>       0.24140041       0.06309477       0.54715497 </v>
   <v>       0.79465525       0.92632681       0.55509858 </v>
   <v>       0.48559714       0.33929530       0.66233896 </v>
   <v>       0.44972060       0.81152540       0.67348132 </v>
   <v>       0.96568246       0.28308330       0.67673844 </v>
   <v>       0.92890993       0.72498569       0.67307145 </v>
   <v>       0.30902833       0.05570533       0.67016578 </v>
   <v>       0.29802966       0.54841497       0.67516629 </v>
   <v>       0.80100966       0.05617354       0.67450503 </v>
   <v>       0.75828613       0.59798530       0.65775332 </v>
   <v>       0.08548740       0.16235716       0.64476824 </v>
   <v>       0.11480362       0.71874384       0.65046927 </v>
   <v>       0.57312991       0.16210382       0.65102890 </v>
   <v>       0.56342926       0.66254301       0.65071316 </v>
   <v>       0.17806554       0.41335900       0.64809117 </v>
   <v>       0.17427046       0.92053556       0.64998401 </v>
   <v>       0.70087895       0.40503124       0.66097858 </v>
   <v>       0.67382720       0.92220818       0.65017069 </v>
   <v>       0.06282645       0.18037134       0.67155485 </v>
   <v>       0.05843078       0.67496346       0.66915844 </v>
   <v>       0.59513392       0.25143061       0.65923366 </v>
   <v>       0.53171843       0.69461962       0.67557885 </v>
   <v>       0.19932144       0.44376760       0.67389199 </v>
   <v>       0.20768836       0.95463353       0.67415236 </v>
   <v>       0.66604490       0.49451115       0.66397442 </v>
   <v>       0.69762251       0.95894103       0.67517343 </v>
   <v>       0.39847568       0.29984230       0.65752434 </v>
   <v>       0.43613832       0.84470897       0.64770542 </v>
   <v>       0.93696984       0.32586359       0.65305225 </v>
   <v>       0.90404090       0.79563936       0.65568650 </v>
   <v>       0.33166928       0.07694608       0.64372726 </v>
   <v>       0.32998156       0.57662150       0.65015048 </v>
   <v>       0.83528880       0.07642667       0.64903301 </v>
   <v>       0.84585815       0.57038251       0.65034016 </v>
   <v>       0.00949536       0.25298025       0.63130675 </v>
   <v>       0.02183235       0.80000125       0.63953844 </v>
   <v>       0.44699878       0.18426353       0.64900249 </v>
   <v>       0.50646387       0.75374280       0.63148299 </v>
   <v>       0.24872247       0.99399250       0.62931313 </v>
   <v>       0.25876512       0.49331829       0.63152969 </v>
   <v>       0.75898736       0.99227540       0.63191637 </v>
   <v>       0.81843866       0.44464346       0.65120374 </v>
   <v>       0.44874502       0.30128397       0.76888902 </v>
   <v>       0.44874501       0.80128391       0.76888902 </v>
   <v>       0.94874497       0.30128397       0.76888902 </v>
   <v>       0.94874501       0.80128391       0.76888902 </v>
   <v>       0.30127600       0.05129450       0.76887296 </v>
   <v>       0.30127601       0.55129450       0.76887296 </v>
   <v>       0.80127594       0.05129450       0.76887296 </v>
   <v>       0.80127598       0.55129450       0.76887296 </v>
   <v>       0.07877100       0.17118050       0.74344197 </v>
   <v>       0.07877101       0.67118045       0.74344197 </v>
   <v>       0.57877100       0.17118050       0.74344197 </v>
   <v>       0.57877099       0.67118045       0.74344197 </v>
   <v>       0.17119950       0.42117448       0.74342103 </v>
   <v>       0.17119950       0.92117451       0.74342103 </v>
   <v>       0.67119951       0.42117448       0.74342103 </v>
   <v>       0.67119950       0.92117451       0.74342103 </v>
   <v>       0.05125600       0.19871499       0.76888902 </v>
   <v>       0.05125600       0.69871493       0.76888902 </v>
   <v>       0.55125603       0.19871499       0.76888902 </v>
   <v>       0.55125602       0.69871493       0.76888902 </v>
   <v>       0.19872349       0.44870397       0.76887205 </v>
   <v>       0.19872349       0.94870397       0.76887205 </v>
   <v>       0.69872352       0.44870397       0.76887205 </v>
   <v>       0.69872351       0.94870397       0.76887205 </v>
   <v>       0.42123152       0.32881747       0.74344197 </v>
   <v>       0.42123151       0.82881744       0.74344197 </v>
   <v>       0.92123147       0.32881747       0.74344197 </v>
   <v>       0.92123151       0.82881744       0.74344197 </v>
   <v>       0.32880050       0.07882500       0.74342103 </v>
   <v>       0.32880049       0.57882496       0.74342103 </v>
   <v>       0.82880048       0.07882500       0.74342103 </v>
   <v>       0.82880052       0.57882496       0.74342103 </v>
   <v>       0.00000350       0.25000148       0.72582199 </v>
   <v>       0.00000350       0.75000145       0.72582199 </v>
   <v>       0.50000351       0.25000148       0.72582199 </v>
   <v>       0.50000350       0.75000145       0.72582199 </v>
   <v>       0.25000050       0.00000000       0.72580398 </v>
   <v>       0.25000052       0.50000000       0.72580398 </v>
   <v>       0.75000050       0.00000000       0.72580398 </v>
   <v>       0.75000049       0.50000000       0.72580398 </v>
   <v>       0.77623918       0.55710726       0.51965954 </v>
   <v>       0.71990493       0.47840231       0.52490656 </v>
   <v>       0.86859411       0.50105722       0.53901339 </v>
   <v>       0.85848216       0.48120914       0.56656187 </v>
   <v>       0.74465895       0.64178390       0.56019945 </v>
   <v>       0.81102861       0.59598395       0.57628995 </v>
   <v>       0.66627546       0.54792162       0.56915614 </v>
   <v>       0.67973921       0.45430829       0.56047783 </v>
   <v>       0.61736479       0.55774696       0.53700920 </v>
   <v>       0.67307287       0.63811805       0.53513896 </v>
   <v>       0.60645134       0.64575091       0.50376919 </v>
   <v>       0.68689434       0.60236593       0.49443355 </v>
   <v>       0.78546166       0.39026510       0.53028343 </v>
   <v>       0.77918055       0.37154667       0.55790334 </v>
   <v>       0.86568806       0.36783383       0.54490244 </v>
   <v>       0.86315124       0.69575878       0.55352734 </v>
   <v>       0.84230192       0.64710807       0.52985891 </v>
   <v>       0.90726950       0.60967345       0.54864483 </v>
   <v>       0.76860882       0.52867037       0.59727577 </v>
   <v>       0.77262275       0.43389231       0.58921117 </v>
   <v>       0.69044943       0.47029216       0.60013835 </v>
   <v>       0.53644948       0.52946202       0.50418199 </v>
   <v>       0.57527478       0.54695484       0.47859826 </v>
   <v>       0.69963354       0.47972959       0.46961044 </v>
   <v>       0.55735251       0.41470959       0.52131087 </v>
   <v>       0.76412238       0.35887211       0.47154686 </v>
   <v>       0.62170910       0.29350898       0.52369343 </v>
   <v>       0.72681745       0.26555539       0.49906933 </v>
   <v>       0.01868335       0.25508798       0.55763625 </v>
   <v>       0.03611168       0.76186525       0.56083691 </v>
   <v>       0.46410791       0.22729707       0.55436949 </v>
   <v>       0.49931075       0.75653612       0.55491324 </v>
   <v>       0.24003258       0.53422199       0.55965875 </v>
   <v>       0.25019412       0.01321964       0.55673440 </v>
   <v>       0.77482939       0.98070205       0.56013559 </v>
   <v>       0.01114262       0.24405065       0.64864909 </v>
   <v>       0.00993852       0.75969332       0.65221724 </v>
   <v>       0.48428907       0.22946354       0.65369612 </v>
   <v>       0.50001069       0.75355527       0.64894791 </v>
   <v>       0.25444754       0.49489832       0.64896818 </v>
   <v>       0.25273075       0.99848601       0.64673220 </v>
   <v>       0.77525124       0.48522066       0.65524092 </v>
   <v>       0.75480665       0.99853866       0.64930333 </v>
   <v>       0.49998898       0.24999498       0.74327702 </v>
   <v>       0.49998903       0.74999496       0.74327702 </v>
   <v>       0.99998898       0.24999498       0.74327702 </v>
   <v>       0.99998903       0.74999496       0.74327702 </v>
   <v>       0.25000050       0.00000100       0.74325596 </v>
   <v>       0.25000052       0.50000100       0.74325596 </v>
   <v>       0.75000050       0.00000100       0.74325596 </v>
   <v>       0.75000049       0.50000100       0.74325596 </v>
   <v>       0.62460917       0.45617389       0.49542313 </v>
   <v>       0.68315483       0.43906601       0.48152264 </v>
   <v>       0.60313260       0.40208413       0.51043135 </v>
   <v>       0.71912633       0.37076244       0.48261322 </v>
   <v>       0.63945292       0.33376725       0.51170034 </v>
   <v>       0.69790815       0.31831054       0.49778658 </v>
   <v>       0.73171465       0.53537425       0.52983858 </v>
   <v>       0.83094681       0.47756525       0.55096933 </v>
   <v>       0.79279477       0.60512561       0.55975313 </v>
   <v>       0.70659871       0.50265958       0.56784142 </v>
   <v>       0.66314866       0.58327365       0.52806637 </v>
   <v>       0.63807572       0.59404337       0.50469531 </v>
   <v>       0.81302162       0.39798832       0.54570345 </v>
   <v>       0.85509892       0.63997273       0.54696114 </v>
   <v>       0.73741134       0.48313916       0.58968118 </v>
   <v>       0.58914056       0.53180417       0.49524862 </v>
   <v>       0.99427390       0.19320203       0.56596379 </v>
   <v>       0.03277472       0.70026570       0.57189765 </v>
   <v>       0.53434755       0.21541893       0.55872973 </v>
   <v>       0.47257254       0.69537225       0.56344381 </v>
   <v>       0.42804724       0.28994838       0.55739347 </v>
   <v>       0.47109254       0.82285024       0.55825253 </v>
   <v>       0.99522348       0.32102363       0.56329846 </v>
   <v>       0.98598710       0.81471333       0.56165970 </v>
   <v>       0.23610903       0.46408457       0.56536735 </v>
   <v>       0.19206527       0.97410592       0.56236437 </v>
   <v>       0.70331907       0.98648102       0.56356267 </v>
   <v>       0.31820688       0.99615642       0.56232365 </v>
   <v>       0.30169235       0.57198671       0.55761660 </v>
   <v>       0.82294710       0.03423596       0.56289860 </v>
   <v>       0.05519001       0.19219343       0.65557534 </v>
   <v>       0.06287580       0.71320441       0.65716135 </v>
   <v>       0.55530589       0.21378248       0.65495180 </v>
   <v>       0.53329187       0.70003798       0.65935765 </v>
   <v>       0.20772216       0.44839648       0.65792536 </v>
   <v>       0.20907150       0.95593747       0.65797065 </v>
   <v>       0.70894353       0.46089116       0.65975830 </v>
   <v>       0.70616098       0.95751241       0.65915320 </v>
   <v>       0.45500776       0.29460413       0.65799739 </v>
   <v>       0.46021701       0.80656580       0.65749058 </v>
   <v>       0.96872549       0.28653556       0.66041029 </v>
   <v>       0.94427362       0.76116368       0.66118852 </v>
   <v>       0.30119030       0.04637183       0.65435018 </v>
   <v>       0.29653483       0.54218051       0.65905198 </v>
   <v>       0.79956446       0.04698098       0.65848669 </v>
   <v>       0.79453007       0.55577000       0.65507835 </v>
   <v>       0.04586250       0.20411950       0.75272599 </v>
   <v>       0.04586250       0.70411946       0.75272599 </v>
   <v>       0.54586251       0.20411950       0.75272599 </v>
   <v>       0.54586250       0.70411946       0.75272599 </v>
   <v>       0.20411900       0.45410100       0.75270499 </v>
   <v>       0.20411899       0.95410095       0.75270499 </v>
   <v>       0.70411898       0.45410100       0.75270499 </v>
   <v>       0.70411896       0.95410095       0.75270499 </v>
   <v>       0.45414002       0.29588849       0.75272697 </v>
   <v>       0.45414001       0.79588852       0.75272697 </v>
   <v>       0.95414002       0.29588849       0.75272697 </v>
   <v>       0.95414006       0.79588852       0.75272697 </v>
   <v>       0.29588249       0.04590050       0.75270499 </v>
   <v>       0.29588248       0.54590053       0.75270499 </v>
   <v>       0.79588244       0.04590050       0.75270499 </v>
   <v>       0.79588248       0.54590053       0.75270499 </v>
   <v>       0.76524234       0.53043761       0.55203858 </v>
   <v>       0.51191690       0.01758268       0.55159952 </v>
   <v>       0.47970051       0.49652121       0.55494834 </v>
   <v>       0.00803953       0.00510354       0.54854496 </v>
   <v>       0.03866685       0.50563373       0.55331428 </v>
   <v>       0.23591485       0.24230986       0.55216043 </v>
   <v>       0.25657439       0.76569272       0.55350475 </v>
   <v>       0.73703366       0.20248848       0.55482099 </v>
   <v>       0.70195466       0.79222874       0.55415295 </v>
   <v>       0.00045263       0.98327027       0.65381021 </v>
   <v>       0.99576295       0.50487154       0.65496682 </v>
   <v>       0.49976528       0.01197632       0.65410526 </v>
   <v>       0.51116900       0.49031368       0.65529977 </v>
   <v>       0.26079626       0.24640638       0.65418706 </v>
   <v>       0.26065074       0.75364148       0.65458857 </v>
   <v>       0.74973372       0.26323630       0.65450041 </v>
   <v>       0.74418189       0.75141416       0.65468002 </v>
   <v>       0.13579629       0.11205303       0.60719512 </v>
   <v>       0.15196264       0.60347262       0.60838975 </v>
   <v>       0.64841489       0.10475894       0.61011593 </v>
   <v>       0.61619153       0.62884424       0.60981087 </v>
   <v>       0.36036110       0.38613148       0.60510461 </v>
   <v>       0.37398727       0.88028258       0.60647317 </v>
   <v>       0.89073023       0.36485871       0.60987943 </v>
   <v>       0.87119218       0.87632333       0.60495248 </v>
   <v>       0.12418411       0.36836733       0.60936950 </v>
   <v>       0.12281681       0.86506739       0.60733559 </v>
   <v>       0.59180241       0.33723139       0.60142803 </v>
   <v>       0.61746682       0.87151626       0.61242614 </v>
   <v>       0.38546834       0.13395816       0.60398897 </v>
   <v>       0.38598451       0.62892328       0.61101802 </v>
   <v>       0.88676221       0.13279512       0.61086834 </v>
   <v>       0.89722045       0.64340606       0.61092242 </v>
   <v>       0.00000000       0.00000000       0.75492797 </v>
   <v>       0.00000000       0.50000000       0.75492797 </v>
   <v>       0.50000000       0.00000000       0.75492797 </v>
   <v>       0.49999999       0.50000000       0.75492797 </v>
   <v>       0.25000050       0.25000000       0.75493902 </v>
   <v>       0.25000051       0.74999997       0.75493902 </v>
   <v>       0.75000047       0.25000000       0.75493902 </v>
   <v>       0.75000046       0.74999997       0.75493902 </v>
   <v>       0.13579050       0.11421000       0.70478299 </v>
   <v>       0.13579050       0.61420998       0.70478299 </v>
   <v>       0.63579045       0.11421000       0.70478299 </v>
   <v>       0.63579049       0.61420998       0.70478299 </v>
   <v>       0.36420952       0.38578999       0.70478299 </v>
   <v>       0.36420950       0.88578996       0.70478299 </v>
   <v>       0.86420954       0.38578999       0.70478299 </v>
   <v>       0.86420953       0.88578996       0.70478299 </v>
   <v>       0.11421799       0.36421899       0.70478098 </v>
   <v>       0.11421799       0.86421899       0.70478098 </v>
   <v>       0.61421800       0.36421899       0.70478098 </v>
   <v>       0.61421799       0.86421899       0.70478098 </v>
   <v>       0.38578201       0.13578149       0.70478202 </v>
   <v>       0.38578200       0.63578149       0.70478202 </v>
   <v>       0.88578199       0.13578149       0.70478202 </v>
   <v>       0.88578203       0.63578149       0.70478202 </v>
   <v>       0.13466700       0.11533200       0.80125603 </v>
   <v>       0.13466699       0.61533199       0.80125603 </v>
   <v>       0.63466699       0.11533200       0.80125603 </v>
   <v>       0.63466698       0.61533199       0.80125603 </v>
   <v>       0.36533300       0.38466799       0.80125603 </v>
   <v>       0.36533299       0.88466796       0.80125603 </v>
   <v>       0.86533295       0.38466799       0.80125603 </v>
   <v>       0.86533294       0.88466796       0.80125603 </v>
   <v>       0.11532850       0.36533700       0.80126500 </v>
   <v>       0.11532850       0.86533698       0.80126500 </v>
   <v>       0.61532850       0.36533700       0.80126500 </v>
   <v>       0.61532849       0.86533698       0.80126500 </v>
   <v>       0.38467151       0.13466300       0.80126500 </v>
   <v>       0.38467150       0.63466297       0.80126500 </v>
   <v>       0.88467149       0.13466300       0.80126500 </v>
   <v>       0.88467153       0.63466297       0.80126500 </v>
   <v>       0.00018934       0.99770995       0.60487294 </v>
   <v>       0.00679674       0.50273540       0.60505296 </v>
   <v>       0.50359552       0.00725845       0.60332465 </v>
   <v>       0.49777212       0.49230215       0.60481042 </v>
   <v>       0.24761095       0.24639225       0.60235614 </v>
   <v>       0.25222729       0.74477680       0.60376999 </v>
   <v>       0.74288494       0.24675384       0.60288310 </v>
   <v>       0.73844242       0.75494342       0.60331720 </v>
   <v>       0.00000050       0.00000050       0.70482896 </v>
   <v>       0.00000050       0.50000048       0.70482896 </v>
   <v>       0.50000048       0.00000050       0.70482896 </v>
   <v>       0.50000046       0.50000048       0.70482896 </v>
   <v>       0.24999999       0.24999947       0.70482499 </v>
   <v>       0.25000001       0.74999950       0.70482499 </v>
   <v>       0.74999999       0.24999947       0.70482499 </v>
   <v>       0.74999998       0.74999950       0.70482499 </v>
   <v>       0.00000000       0.00000000       0.80731797 </v>
   <v>       0.00000000       0.50000000       0.80731797 </v>
   <v>       0.50000000       0.00000000       0.80731797 </v>
   <v>       0.49999999       0.50000000       0.80731797 </v>
   <v>       0.24999999       0.25000000       0.80731797 </v>
   <v>       0.25000001       0.74999997       0.80731797 </v>
   <v>       0.74999999       0.25000000       0.80731797 </v>
   <v>       0.74999998       0.74999997       0.80731797 </v>
  </varray>
 </structure>
</modeling>
