 vasp.6.2.1 16May21 (build Nov 15 2021 14:57:28) complex                         
 executed on             LinuxPGI date 2023.07.24  20:36:09
 running on    4 total cores
 distrk:  each k-point on    4 cores,    1 groups
 distr:  one band on NCORE=   1 cores,    4 groups


--------------------------------------------------------------------------------------------------------


 INCAR:
   SYSTEM = PSC
   ISTART = 1
   ICHARG = 1
   PREC = Normal
   ENCUT = 500
   GGA_COMPAT = F
   NELM = 600
   ISYM = 0
   LREAL = Auto
   ISMEAR = 0
   SIGMA = 0.05
   AMIN = 0.01
   BMIX = 0.01
   LVTOT = T
   LWAVE = F
   LDIPOL = T
   IDIPOL = 3
   LVDW = T
   IVDW = 12

 POTCAR:    PAW_PBE H 15Jun2001                   
 POTCAR:    PAW_PBE C 08Apr2002                   
 POTCAR:    PAW_PBE N 08Apr2002                   
 POTCAR:    PAW_PBE I 08Apr2002                   
 POTCAR:    PAW_PBE Pb 08Apr2002                  
 WARNING: For LVTOT=.TRUE., VASP.5.x writes the TOTAL local potential to the
     file LOCPOT. If you want only the Hartree contributions, use LVHAR=.TRUE.
     instead. 

 POTCAR:    PAW_PBE H 15Jun2001                   
   SHA256 =  030f79b5d3ab3cf0e668861823c8fb652ff669f3e15e46930bd03bfd63a607b6 H/POTCAR              
   COPYR  = (c) Copyright 15Jun2001 Georg Kresse                                                    
   COPYR  = This file is part of the software VASP. Any use, copying, and all other rights are regul
   COPYR  = If you do not have a valid VASP license, you may not use, copy or distribute this file. 
   VRHFIN =H: ultrasoft test                                                                        
   LEXCH  = PE                                                                                      
   EATOM  =    12.4884 eV,    0.9179 Ry                                                             
                                                                                                    
   TITEL  = PAW_PBE H 15Jun2001                                                                     
   LULTRA =        F    use ultrasoft PP ?                                                          
   IUNSCR =        0    unscreen: 0-lin 1-nonlin 2-no                                               
   RPACOR =    0.000    partial core radius                                                         
   POMASS =    1.000; ZVAL   =    1.000    mass and valenz                                          
   RCORE  =    1.100    outmost cutoff radius                                                       
   RWIGS  =    0.700; RWIGS  =    0.370    wigner-seitz radius (au A)                               
   ENMAX  =  250.000; ENMIN  =  200.000 eV                                                          
   RCLOC  =    0.701    cutoff for local pot                                                        
   LCOR   =        T    correct aug charges                                                         
   LPAW   =        T    paw PP                                                                      
   EAUG   =  400.000                                                                                
   RMAX   =    1.123    core radius for proj-oper                                                   
   RAUG   =    1.200    factor for augmentation sphere                                              
   RDEP   =    1.112    radius for radial grids                                                     
   RDEPT  =    0.926    core radius for aug-charge                                                  
                                                                                                    
   Atomic configuration                                                                             
    2 entries                                                                                       
     n  l   j            E        occ.                                                              
     1  0  0.50        -6.4927   1.0000                                                             
     2  1  0.50        -3.4015   0.0000                                                             
   Description                                                                                      
     l       E           TYP  RCUT    TYP  RCUT                                                     
     0     -6.4927494     23  1.100                                                                 
     0      6.8029130     23  1.100                                                                 
     1     -4.0817478     23  1.100                                                                 
  local pseudopotential read in
  atomic valenz-charges read in
  non local Contribution for L=            0  read in
    real space projection operators read in
  non local Contribution for L=            0  read in
    real space projection operators read in
  non local Contribution for L=            1  read in
    real space projection operators read in
    PAW grid and wavefunctions read in
 
   number of l-projection  operators is LMAX  =            3
   number of lm-projection operators is LMMAX =            5
 
 POTCAR:    PAW_PBE C 08Apr2002                   
   SHA256 =  253f7b50bb8d59471dbedb8285d89021f4a42ed1a2c5d38a03a736e69125dd95 C/POTCAR              
   COPYR  = (c) Copyright 08Apr2002 Georg Kresse                                                    
   COPYR  = This file is part of the software VASP. Any use, copying, and all other rights are regul
   COPYR  = If you do not have a valid VASP license, you may not use, copy or distribute this file. 
   VRHFIN =C: s2p2                                                                                  
   LEXCH  = PE                                                                                      
   EATOM  =   147.1560 eV,   10.8157 Ry                                                             
                                                                                                    
   TITEL  = PAW_PBE C 08Apr2002                                                                     
   LULTRA =        F    use ultrasoft PP ?                                                          
   IUNSCR =        1    unscreen: 0-lin 1-nonlin 2-no                                               
   RPACOR =    1.200    partial core radius                                                         
   POMASS =   12.011; ZVAL   =    4.000    mass and valenz                                          
   RCORE  =    1.500    outmost cutoff radius                                                       
   RWIGS  =    1.630; RWIGS  =    0.863    wigner-seitz radius (au A)                               
   ENMAX  =  400.000; ENMIN  =  300.000 eV                                                          
   ICORE  =        2    local potential                                                             
   LCOR   =        T    correct aug charges                                                         
   LPAW   =        T    paw PP                                                                      
   EAUG   =  644.873                                                                                
   DEXC   =    0.000                                                                                
   RMAX   =    1.529    core radius for proj-oper                                                   
   RAUG   =    1.300    factor for augmentation sphere                                              
   RDEP   =    1.501    radius for radial grids                                                     
   RDEPT  =    1.300    core radius for aug-charge                                                  
                                                                                                    
   Atomic configuration                                                                             
    4 entries                                                                                       
     n  l   j            E        occ.                                                              
     1  0  0.50      -273.3789   2.0000                                                             
     2  0  0.50       -13.7508   2.0000                                                             
     2  1  0.50        -5.2854   2.0000                                                             
     3  2  1.50        -5.4423   0.0000                                                             
   Description                                                                                      
     l       E           TYP  RCUT    TYP  RCUT                                                     
     0    -13.7508458     23  1.200                                                                 
     0     -8.2022199     23  1.200                                                                 
     1     -5.2854383     23  1.500                                                                 
     1     34.0145650     23  1.500                                                                 
     2     -5.4423304      7  1.500                                                                 
  local pseudopotential read in
  partial core-charges read in
  partial kinetic energy density read in
  atomic valenz-charges read in
  non local Contribution for L=            0  read in
    real space projection operators read in
  non local Contribution for L=            0  read in
    real space projection operators read in
  non local Contribution for L=            1  read in
    real space projection operators read in
  non local Contribution for L=            1  read in
    real space projection operators read in
    PAW grid and wavefunctions read in
 
   number of l-projection  operators is LMAX  =            4
   number of lm-projection operators is LMMAX =            8
 
 POTCAR:    PAW_PBE N 08Apr2002                   
   SHA256 =  e053789ff3a61a86a1b75d8a110fcc91f86041011e7b0817c7c99e4e8a6349d7 N/POTCAR              
   COPYR  = (c) Copyright 08Apr2002 Georg Kresse                                                    
   COPYR  = This file is part of the software VASP. Any use, copying, and all other rights are regul
   COPYR  = If you do not have a valid VASP license, you may not use, copy or distribute this file. 
   VRHFIN =N: s2p3                                                                                  
   LEXCH  = PE                                                                                      
   EATOM  =   264.5486 eV,   19.4438 Ry                                                             
                                                                                                    
   TITEL  = PAW_PBE N 08Apr2002                                                                     
   LULTRA =        F    use ultrasoft PP ?                                                          
   IUNSCR =        1    unscreen: 0-lin 1-nonlin 2-no                                               
   RPACOR =    1.200    partial core radius                                                         
   POMASS =   14.001; ZVAL   =    5.000    mass and valenz                                          
   RCORE  =    1.500    outmost cutoff radius                                                       
   RWIGS  =    1.400; RWIGS  =    0.741    wigner-seitz radius (au A)                               
   ENMAX  =  400.000; ENMIN  =  300.000 eV                                                          
   ICORE  =        2    local potential                                                             
   LCOR   =        T    correct aug charges                                                         
   LPAW   =        T    paw PP                                                                      
   EAUG   =  627.112                                                                                
   DEXC   =    0.000                                                                                
   RMAX   =    1.529    core radius for proj-oper                                                   
   RAUG   =    1.300    factor for augmentation sphere                                              
   RDEP   =    1.514    radius for radial grids                                                     
   RDEPT  =    1.338    core radius for aug-charge                                                  
                                                                                                    
   Atomic configuration                                                                             
    4 entries                                                                                       
     n  l   j            E        occ.                                                              
     1  0  0.50      -384.7179   2.0000                                                             
     2  0  0.50       -18.5828   2.0000                                                             
     2  1  0.50        -7.0898   3.0000                                                             
     3  2  1.50        -6.8029   0.0000                                                             
   Description                                                                                      
     l       E           TYP  RCUT    TYP  RCUT                                                     
     0    -18.5828119     23  1.200                                                                 
     0    -13.5018863     23  1.200                                                                 
     1     -7.0897853     23  1.500                                                                 
     1      9.5240782     23  1.500                                                                 
     2     -6.8029130      7  1.500                                                                 
  local pseudopotential read in
  partial core-charges read in
  partial kinetic energy density read in
  atomic valenz-charges read in
  non local Contribution for L=            0  read in
    real space projection operators read in
  non local Contribution for L=            0  read in
    real space projection operators read in
  non local Contribution for L=            1  read in
    real space projection operators read in
  non local Contribution for L=            1  read in
    real space projection operators read in
    PAW grid and wavefunctions read in
 
   number of l-projection  operators is LMAX  =            4
   number of lm-projection operators is LMMAX =            8
 
 POTCAR:    PAW_PBE I 08Apr2002                   
   SHA256 =  e40f3f59b681c1fc3e3091736183c4589116986673d2b852a5012aec72758799 I/POTCAR              
   COPYR  = (c) Copyright 08Apr2002 Georg Kresse                                                    
   COPYR  = This file is part of the software VASP. Any use, copying, and all other rights are regul
   COPYR  = If you do not have a valid VASP license, you may not use, copy or distribute this file. 
   VRHFIN =I : s2p5                                                                                 
   LEXCH  = PE                                                                                      
   EATOM  =   315.8678 eV,   23.2156 Ry                                                             
                                                                                                    
   TITEL  = PAW_PBE I 08Apr2002                                                                     
   LULTRA =        F    use ultrasoft PP ?                                                          
   IUNSCR =        1    unscreen: 0-lin 1-nonlin 2-no                                               
   RPACOR =    2.200    partial core radius                                                         
   POMASS =  126.904; ZVAL   =    7.000    mass and valenz                                          
   RCORE  =    2.300    outmost cutoff radius                                                       
   RWIGS  =    2.810; RWIGS  =    1.487    wigner-seitz radius (au A)                               
   ENMAX  =  175.647; ENMIN  =  131.735 eV                                                          
   ICORE  =        3    local potential                                                             
   LCOR   =        T    correct aug charges                                                         
   LPAW   =        T    paw PP                                                                      
   EAUG   =  370.139                                                                                
   DEXC   =    0.000                                                                                
   RMAX   =    2.359    core radius for proj-oper                                                   
   RAUG   =    1.300    factor for augmentation sphere                                              
   RDEP   =    2.392    radius for radial grids                                                     
   RDEPT  =    2.170    core radius for aug-charge                                                  
                                                                                                    
   Atomic configuration                                                                             
   13 entries                                                                                       
     n  l   j            E        occ.                                                              
     1  0  0.50    -32976.3739   2.0000                                                             
     2  0  0.50     -5094.5933   2.0000                                                             
     2  1  1.50     -4572.0131   6.0000                                                             
     3  0  0.50     -1028.2813   2.0000                                                             
     3  1  1.50      -859.0250   6.0000                                                             
     3  2  2.50      -605.7620  10.0000                                                             
     4  0  0.50      -180.5540   2.0000                                                             
     4  1  1.50      -127.5306   6.0000                                                             
     4  2  2.50       -50.2720  10.0000                                                             
     5  0  0.50       -17.4058   2.0000                                                             
     5  1  0.50        -7.0851   5.0000                                                             
     5  2  1.50        -7.0750   0.0000                                                             
     4  3  2.50        -7.0750   0.0000                                                             
   Description                                                                                      
     l       E           TYP  RCUT    TYP  RCUT                                                     
     0    -17.4058016     23  2.300                                                                 
     0    -18.7663842     23  2.300                                                                 
     1     -7.0850686     23  2.300                                                                 
     1     -4.2150896     23  2.300                                                                 
     2     -7.0750295     23  2.300                                                                 
     3     -1.3605826     23  2.300                                                                 
  local pseudopotential read in
  partial core-charges read in
  partial kinetic energy density read in
  atomic valenz-charges read in
  non local Contribution for L=            0  read in
    real space projection operators read in
  non local Contribution for L=            0  read in
    real space projection operators read in
  non local Contribution for L=            1  read in
    real space projection operators read in
  non local Contribution for L=            1  read in
    real space projection operators read in
  non local Contribution for L=            2  read in
    real space projection operators read in
    PAW grid and wavefunctions read in
 
   number of l-projection  operators is LMAX  =            5
   number of lm-projection operators is LMMAX =           13
 
 POTCAR:    PAW_PBE Pb 08Apr2002                  
   SHA256 =  797118a27cf1bcd06b9881c67a26cdde129e3cd1a551dd4a281f9681ce847303 Pb/POTCAR             
   COPYR  = (c) Copyright 08Apr2002 Georg Kresse                                                    
   COPYR  = This file is part of the software VASP. Any use, copying, and all other rights are regul
   COPYR  = If you do not have a valid VASP license, you may not use, copy or distribute this file. 
   VRHFIN =Pb:                                                                                      
   LEXCH  = PE                                                                                      
   EATOM  =    96.9868 eV,    7.1283 Ry                                                             
                                                                                                    
   TITEL  = PAW_PBE Pb 08Apr2002                                                                    
   LULTRA =        F    use ultrasoft PP ?                                                          
   IUNSCR =        1    unscreen: 0-lin 1-nonlin 2-no                                               
   RPACOR =    2.200    partial core radius                                                         
   POMASS =  207.200; ZVAL   =    4.000    mass and valenz                                          
   RCORE  =    3.100    outmost cutoff radius                                                       
   RWIGS  =    3.260; RWIGS  =    1.725    wigner-seitz radius (au A)                               
   ENMAX  =   97.973; ENMIN  =   73.480 eV                                                          
   ICORE  =        3    local potential                                                             
   LCOR   =        T    correct aug charges                                                         
   LPAW   =        T    paw PP                                                                      
   EAUG   =  234.873                                                                                
   DEXC   =    0.000                                                                                
   RMAX   =    3.158    core radius for proj-oper                                                   
   RAUG   =    1.300    factor for augmentation sphere                                              
   RDEP   =    3.202    radius for radial grids                                                     
   RDEPT  =    2.659    core radius for aug-charge                                                  
                                                                                                    
   Atomic configuration                                                                             
   17 entries                                                                                       
     n  l   j            E        occ.                                                              
     1  0  0.50    -88091.8466   2.0000                                                             
     2  0  0.50    -15753.4197   2.0000                                                             
     2  1  1.50    -13508.1797   6.0000                                                             
     3  0  0.50     -3781.7194   2.0000                                                             
     3  1  1.50     -3138.2529   6.0000                                                             
     3  2  2.50     -2483.2977  10.0000                                                             
     4  0  0.50      -856.2895   2.0000                                                             
     4  1  1.50      -645.4943   6.0000                                                             
     4  2  2.50      -401.8768  10.0000                                                             
     4  3  3.50      -132.9059  14.0000                                                             
     5  0  0.50      -144.0950   2.0000                                                             
     5  1  1.50       -85.7879   6.0000                                                             
     5  2  2.50       -21.1769  10.0000                                                             
     6  0  0.50       -12.0372   2.0000                                                             
     6  1  1.50        -3.4971   2.0000                                                             
     6  2  2.50        -1.3606   0.0000                                                             
     5  3  2.50        -2.7212   0.0000                                                             
   Description                                                                                      
     l       E           TYP  RCUT    TYP  RCUT                                                     
     0    -12.0371566     23  3.100                                                                 
     0    -13.3977392     23  3.100                                                                 
     1     -3.4971341     23  3.100                                                                 
     1     -5.4423304     23  3.100                                                                 
     2     -1.3605826     23  3.100                                                                 
     3     -1.3605826     23  3.100                                                                 
  local pseudopotential read in
  partial core-charges read in
  partial kinetic energy density read in
  atomic valenz-charges read in
  non local Contribution for L=            0  read in
    real space projection operators read in
  non local Contribution for L=            0  read in
    real space projection operators read in
  non local Contribution for L=            1  read in
    real space projection operators read in
  non local Contribution for L=            1  read in
    real space projection operators read in
  non local Contribution for L=            2  read in
    real space projection operators read in
    PAW grid and wavefunctions read in
 
   number of l-projection  operators is LMAX  =            5
   number of lm-projection operators is LMMAX =           13
 
 Optimization of the real space projectors (new method)

 maximal supplied QI-value         = 34.20
 optimisation between [QCUT,QGAM] = [ 11.29, 22.57] = [ 35.68,142.71] Ry 
 Optimized for a Real-space Cutoff    1.16 Angstroem

   l    n(q)    QCUT    max X(q) W(low)/X(q) W(high)/X(q)  e(spline) 
   0      8    11.287    19.460    0.40E-03    0.73E-03    0.16E-06
   0      8    11.287    12.209    0.38E-03    0.70E-03    0.15E-06
   1      7    11.287     4.655    0.22E-03    0.25E-04    0.22E-06
 Optimization of the real space projectors (new method)

 maximal supplied QI-value         = 25.13
 optimisation between [QCUT,QGAM] = [ 11.31, 22.87] = [ 35.82,146.48] Ry 
 Optimized for a Real-space Cutoff    1.00 Angstroem

   l    n(q)    QCUT    max X(q) W(low)/X(q) W(high)/X(q)  e(spline) 
   0      7    11.310   115.676    0.43E-03    0.13E-02    0.19E-06
   0      7    11.310    87.132    0.43E-03    0.13E-02    0.18E-06
   1      6    11.310     4.429    0.42E-03    0.74E-03    0.11E-06
   1      6    11.310     2.733    0.34E-03    0.55E-03    0.92E-07
 Optimization of the real space projectors (new method)

 maximal supplied QI-value         = 25.13
 optimisation between [QCUT,QGAM] = [ 11.31, 22.87] = [ 35.82,146.48] Ry 
 Optimized for a Real-space Cutoff    1.27 Angstroem

   l    n(q)    QCUT    max X(q) W(low)/X(q) W(high)/X(q)  e(spline) 
   0      9    11.310    79.467    0.75E-04    0.16E-03    0.36E-06
   0      9    11.310    66.151    0.74E-04    0.16E-03    0.36E-06
   1      8    11.310    17.416    0.35E-03    0.12E-03    0.95E-06
   1      8    11.310    12.382    0.37E-03    0.13E-03    0.98E-06
 Optimization of the real space projectors (new method)

 maximal supplied QI-value         = 16.25
 optimisation between [QCUT,QGAM] = [ 11.38, 22.75] = [ 36.24,144.96] Ry 
 Optimized for a Real-space Cutoff    1.31 Angstroem

   l    n(q)    QCUT    max X(q) W(low)/X(q) W(high)/X(q)  e(spline) 
   0      9    11.376   194.483    0.24E-03    0.23E-03    0.67E-07
   0      9    11.376   190.334    0.23E-03    0.22E-03    0.65E-07
   1      8    11.376   116.687    0.25E-03    0.63E-04    0.16E-06
   1      8    11.376    88.696    0.25E-03    0.61E-04    0.16E-06
   2      8    11.376     4.877    0.17E-03    0.14E-03    0.29E-07
 Optimization of the real space projectors (new method)

 maximal supplied QI-value         = 12.09
 optimisation between [QCUT,QGAM] = [ 11.37, 22.86] = [ 36.19,146.31] Ry 
 Optimized for a Real-space Cutoff    1.66 Angstroem

   l    n(q)    QCUT    max X(q) W(low)/X(q) W(high)/X(q)  e(spline) 
   0     11    11.369   135.111    0.12E-03    0.69E-04    0.19E-05
   0     11    11.369   146.850    0.11E-03    0.65E-04    0.18E-05
   1     11    11.369   148.016    0.17E-03    0.32E-03    0.89E-06
   1     11    11.369   122.989    0.17E-03    0.32E-03    0.91E-06
   2     10    11.369     8.916    0.12E-03    0.45E-04    0.33E-06
  PAW_PBE H 15Jun2001                   :
 energy of atom  1       EATOM=  -12.4884
 kinetic energy error for atom=    0.0020 (will be added to EATOM!!)
  PAW_PBE C 08Apr2002                   :
 energy of atom  2       EATOM= -147.1560
 kinetic energy error for atom=    0.0076 (will be added to EATOM!!)
  PAW_PBE N 08Apr2002                   :
 energy of atom  3       EATOM= -264.5486
 kinetic energy error for atom=    0.0138 (will be added to EATOM!!)
  PAW_PBE I 08Apr2002                   :
 energy of atom  4       EATOM= -315.8678
 kinetic energy error for atom=    0.0009 (will be added to EATOM!!)
  PAW_PBE Pb 08Apr2002                  :
 energy of atom  5       EATOM=  -96.9868
 kinetic energy error for atom=    0.0000 (will be added to EATOM!!)
 
 
 POSCAR:  H  C  N  I Pb
  positions in cartesian coordinates
  No initial velocities read in
 exchange correlation table for  LEXCH =        8
   RHO(1)=    0.500       N(1)  =     2000
   RHO(2)=  100.500       N(2)  =     4000
 


--------------------------------------------------------------------------------------------------------


 ion  position               nearest neighbor table
   1  0.454  0.304  0.582- 187 1.09
   2  0.446  0.807  0.582- 188 1.09
   3  0.953  0.300  0.581- 189 1.08
   4  0.957  0.807  0.583- 190 1.08
   5  0.305  0.052  0.580- 194 0.97
   6  0.302  0.548  0.582- 195 0.97
   7  0.794  0.051  0.581- 196 0.97
   8  0.081  0.165  0.558- 183 1.06
   9  0.080  0.668  0.558- 184 1.06
  10  0.585  0.173  0.557- 185 1.02
  11  0.575  0.672  0.558- 186 1.02
  12  0.334  0.079  0.555- 194 1.11
  13  0.329  0.582  0.557- 195 1.11
  14  0.827  0.081  0.556- 196 1.11
  15  0.047  0.197  0.582- 183 1.03
  16  0.054  0.704  0.583- 184 1.09
  17  0.557  0.207  0.582- 185 1.08
  18  0.547  0.701  0.584- 186 1.03
  19  0.206  0.445  0.582- 191 0.97
  20  0.203  0.955  0.582- 192 0.97
  21  0.698  0.949  0.581- 193 0.97
  22  0.421  0.326  0.557- 187 0.98
  23  0.423  0.834  0.557- 188 1.02
  24  0.927  0.327  0.555- 189 1.02
  25  0.922  0.834  0.557- 190 1.05
  26  0.173  0.416  0.557- 191 1.11
  27  0.168  0.923  0.557- 192 1.11
  28  0.671  0.915  0.556- 193 1.11
  29  0.501  0.251  0.539- 146 1.03
  30  0.502  0.751  0.539- 147 1.09
  31  0.006  0.244  0.539- 144 1.09
  32  0.001  0.751  0.539- 145 1.03
  33  0.247  0.499  0.539- 148 1.09
  34  0.251  0.001  0.538- 149 1.09
  35  0.749  0.994  0.539- 150 1.09
  36  0.445  0.301  0.675- 205 1.09
  37  0.449  0.798  0.675- 206 1.09
  38  0.945  0.302  0.673- 207 1.08
  39  0.949  0.801  0.675- 208 1.03
  40  0.305  0.052  0.674- 209 1.09
  41  0.301  0.552  0.675- 210 1.08
  42  0.802  0.054  0.675- 211 1.09
  43  0.801  0.555  0.675- 212 1.04
  44  0.078  0.176  0.650- 197 0.95
  45  0.073  0.668  0.650- 198 0.95
  46  0.582  0.177  0.650- 199 0.95
  47  0.584  0.671  0.647- 200 1.12
  48  0.169  0.423  0.650- 201 0.95
  49  0.168  0.923  0.651- 202 0.91
  50  0.674  0.415  0.650- 203 0.99
  51  0.673  0.923  0.650- 204 0.91
  52  0.051  0.202  0.675- 197 1.02
  53  0.048  0.696  0.674- 198 0.96
  54  0.554  0.202  0.675- 199 1.02
  55  0.555  0.698  0.673- 200 1.02
  56  0.192  0.449  0.675- 201 1.09
  57  0.196  0.949  0.676- 202 1.08
  58  0.698  0.446  0.675- 203 1.08
  59  0.699  0.945  0.675- 204 1.08
  60  0.423  0.327  0.650- 205 0.99
  61  0.422  0.824  0.650- 206 0.99
  62  0.916  0.329  0.647- 207 1.09
  63  0.923  0.827  0.650- 208 1.02
  64  0.327  0.073  0.648- 209 0.99
  65  0.328  0.573  0.650- 210 0.91
  66  0.823  0.082  0.650- 211 0.99
  67  0.831  0.581  0.649- 212 1.12
  68  0.999  0.251  0.631- 151 1.03
  69  0.994  0.744  0.632- 152 1.03
  70  0.506  0.256  0.631- 153 1.09
  71  0.501  0.749  0.631- 154 1.03
  72  0.248  0.998  0.632- 156 1.03
  73  0.252  0.494  0.632- 155 1.03
  74  0.744  0.006  0.632- 158 1.03
  75  0.756  0.494  0.632- 157 1.09
  76  0.449  0.301  0.769- 221 1.02
  77  0.449  0.801  0.769- 222 1.02
  78  0.949  0.301  0.769- 223 1.02
  79  0.949  0.801  0.769- 224 1.02
  80  0.301  0.051  0.769- 225 1.02
  81  0.301  0.551  0.769- 226 1.02
  82  0.801  0.051  0.769- 227 1.02
  83  0.801  0.551  0.769- 228 1.02
  84  0.079  0.171  0.743- 213 1.02
  85  0.079  0.671  0.743- 214 1.02
  86  0.579  0.171  0.743- 215 1.02
  87  0.579  0.671  0.743- 216 1.02
  88  0.171  0.421  0.743- 217 1.02
  89  0.171  0.921  0.743- 218 1.02
  90  0.671  0.421  0.743- 219 1.02
  91  0.671  0.921  0.743- 220 1.02
  92  0.051  0.199  0.769- 213 1.02
  93  0.051  0.699  0.769- 214 1.02
  94  0.551  0.199  0.769- 215 1.02
  95  0.551  0.699  0.769- 216 1.02
  96  0.199  0.449  0.769- 217 1.02
  97  0.199  0.949  0.769- 218 1.02
  98  0.699  0.449  0.769- 219 1.02
  99  0.699  0.949  0.769- 220 1.02
 100  0.421  0.329  0.743- 221 1.02
 101  0.421  0.829  0.743- 222 1.02
 102  0.921  0.329  0.743- 223 1.02
 103  0.921  0.829  0.743- 224 1.02
 104  0.329  0.079  0.743- 225 1.02
 105  0.329  0.579  0.743- 226 1.02
 106  0.829  0.079  0.743- 227 1.02
 107  0.829  0.579  0.743- 228 1.02
 108  0.000  0.250  0.726- 161 1.09
 109  0.000  0.750  0.726- 162 1.09
 110  0.500  0.250  0.726- 159 1.09
 111  0.500  0.750  0.726- 160 1.09
 112  0.250  0.000  0.726- 163 1.09
 113  0.250  0.500  0.726- 164 1.09
 114  0.750  0.000  0.726- 165 1.09
 115  0.750  0.500  0.726- 166 1.09
 116  0.795  0.576  0.534- 173 1.16
 117  0.743  0.489  0.532- 173 1.11
 118  0.875  0.509  0.558- 174 1.08
 119  0.844  0.485  0.583- 174 1.10
 120  0.744  0.641  0.573- 175 1.09
 121  0.796  0.590  0.591- 175 1.08
 122  0.665  0.546  0.575- 176 1.09
 123  0.679  0.456  0.565- 176 1.09
 124  0.629  0.558  0.544- 177 1.14
 125  0.685  0.642  0.548- 177 1.17
 126  0.639  0.667  0.513- 178 1.08
 127  0.713  0.610  0.505- 178 1.18
 128  0.810  0.406  0.541- 179 1.10
 129  0.764  0.384  0.565- 179 1.12
 130  0.857  0.375  0.564- 179 1.05
 131  0.869  0.690  0.572- 180 1.09
 132  0.859  0.647  0.547- 180 1.09
 133  0.908  0.603  0.567- 180 1.04
 134  0.767  0.505  0.605- 181 1.13
 135  0.738  0.416  0.596- 181 1.01
 136  0.675  0.474  0.607- 181 1.09
 137  0.554  0.556  0.515- 182 1.18
 138  0.590  0.575  0.488- 182 1.12
 139  0.718  0.499  0.477- 168 1.17
 140  0.585  0.441  0.532- 169 1.09
 141  0.777  0.372  0.479- 170 1.18
 142  0.645  0.322  0.534- 171 1.08
 143  0.742  0.284  0.508- 172 1.17
 144  0.004  0.246  0.556-  31 1.09 183 1.21 189 1.29
 145  0.003  0.753  0.556-  32 1.03 184 1.27 190 1.31
 146  0.499  0.252  0.555-  29 1.03 187 1.24 185 1.35
 147  0.497  0.753  0.557-  30 1.09 188 1.21 186 1.35
 148  0.253  0.501  0.557-  33 1.09 195 1.24 191 1.32
 149  0.253  0.003  0.556-  34 1.09 194 1.24 192 1.32
 150  0.747  0.996  0.556-  35 1.09 193 1.24 196 1.32
 151  0.997  0.253  0.648-  68 1.03 207 1.24 197 1.41
 152  0.996  0.749  0.649-  69 1.03 208 1.27 198 1.41
 153  0.501  0.254  0.649-  70 1.09 205 1.24 199 1.41
 154  0.503  0.747  0.648-  71 1.03 200 1.27 206 1.31
 155  0.247  0.496  0.649-  73 1.03 201 1.28 210 1.39
 156  0.249  0.999  0.648-  72 1.03 209 1.24 202 1.39
 157  0.754  0.499  0.649-  75 1.09 212 1.24 203 1.36
 158  0.749  0.004  0.649-  74 1.03 211 1.24 204 1.39
 159  0.500  0.250  0.743- 110 1.09 221 1.31 215 1.31
 160  0.500  0.750  0.743- 111 1.09 222 1.31 216 1.31
 161  1.000  0.250  0.743- 108 1.09 223 1.31 213 1.31
 162  1.000  0.750  0.743- 109 1.09 224 1.31 214 1.31
 163  0.250  0.000  0.743- 112 1.09 225 1.31 218 1.31
 164  0.250  0.500  0.743- 113 1.09 226 1.31 217 1.31
 165  0.750  0.000  0.743- 114 1.09 227 1.31 220 1.31
 166  0.750  0.500  0.743- 115 1.09 228 1.31 219 1.31
 167  0.642  0.475  0.504- 169 1.39 168 1.40 182 1.53
 168  0.700  0.455  0.490- 139 1.17 170 1.32 167 1.40
 169  0.625  0.424  0.520- 140 1.09 171 1.31 167 1.39
 170  0.730  0.389  0.491- 141 1.18 168 1.32 172 1.35
 171  0.656  0.359  0.521- 142 1.08 169 1.31 172 1.39
 172  0.711  0.340  0.506- 143 1.17 170 1.35 171 1.39
 173  0.745  0.543  0.541- 117 1.11 116 1.16 177 1.43 229 1.55
 174  0.830  0.481  0.566- 118 1.08 119 1.10 179 1.39 229 1.56
 175  0.791  0.603  0.574- 121 1.08 120 1.09 229 1.38 180 1.53
 176  0.704  0.500  0.575- 122 1.09 123 1.09 229 1.40 181 1.53
 177  0.681  0.587  0.538- 124 1.14 125 1.17 173 1.43 178 1.51
 178  0.659  0.612  0.516- 126 1.08 127 1.18 177 1.51 182 1.59
 179  0.815  0.410  0.559- 130 1.05 128 1.10 129 1.12 174 1.39
 180  0.861  0.636  0.564- 133 1.04 132 1.09 131 1.09 175 1.53
 181  0.723  0.470  0.597- 135 1.01 136 1.09 134 1.13 176 1.53
 182  0.608  0.552  0.504- 138 1.12 137 1.18 167 1.53 178 1.59
 183  0.044  0.204  0.565-  15 1.03   8 1.06 144 1.21
 184  0.045  0.707  0.566-   9 1.06  16 1.09 145 1.27
 185  0.551  0.210  0.565-  10 1.02  17 1.08 146 1.35
 186  0.541  0.704  0.567-  11 1.02  18 1.03 147 1.35
 187  0.456  0.294  0.565-  22 0.98   1 1.09 146 1.24
 188  0.455  0.797  0.565-  23 1.02   2 1.09 147 1.21
 189  0.959  0.294  0.564-  24 1.02   3 1.08 144 1.29
 190  0.959  0.800  0.566-  25 1.05   4 1.08 145 1.31
 191  0.209  0.453  0.567-  19 0.97  26 1.11 148 1.32
 192  0.207  0.959  0.566-  20 0.97  27 1.11 149 1.32
 193  0.705  0.953  0.566-  21 0.97  28 1.11 150 1.24
 194  0.297  0.045  0.565-   5 0.97  12 1.11 149 1.24
 195  0.295  0.544  0.567-   6 0.97  13 1.11 148 1.24
 196  0.791  0.044  0.566-   7 0.97  14 1.11 150 1.32
 197  0.047  0.206  0.659-  44 0.95  52 1.02 151 1.41
 198  0.045  0.700  0.659-  45 0.95  53 0.96 152 1.41
 199  0.550  0.205  0.659-  46 0.95  54 1.02 153 1.41
 200  0.547  0.705  0.657-  55 1.02  47 1.12 154 1.27
 201  0.203  0.452  0.658-  48 0.95  56 1.09 155 1.28
 202  0.200  0.953  0.659-  49 0.91  57 1.08 156 1.39
 203  0.705  0.450  0.658-  50 0.99  58 1.08 157 1.36
 204  0.702  0.953  0.658-  51 0.91  59 1.08 158 1.39
 205  0.456  0.294  0.658-  60 0.99  36 1.09 153 1.24
 206  0.456  0.791  0.658-  61 0.99  37 1.09 154 1.31
 207  0.953  0.295  0.656-  38 1.08  62 1.09 151 1.24
 208  0.956  0.794  0.659-  63 1.02  39 1.03 152 1.27
 209  0.294  0.041  0.657-  64 0.99  40 1.09 156 1.24
 210  0.297  0.545  0.658-  65 0.91  41 1.08 155 1.39
 211  0.791  0.047  0.658-  66 0.99  42 1.09 158 1.24
 212  0.794  0.544  0.659-  43 1.04  67 1.12 157 1.24
 213  0.046  0.204  0.753-  92 1.02  84 1.02 161 1.31
 214  0.046  0.704  0.753-  93 1.02  85 1.02 162 1.31
 215  0.546  0.204  0.753-  94 1.02  86 1.02 159 1.31
 216  0.546  0.704  0.753-  95 1.02  87 1.02 160 1.31
 217  0.204  0.454  0.753-  96 1.02  88 1.02 164 1.31
 218  0.204  0.954  0.753-  97 1.02  89 1.02 163 1.31
 219  0.704  0.454  0.753-  98 1.02  90 1.02 166 1.31
 220  0.704  0.954  0.753-  99 1.02  91 1.02 165 1.31
 221  0.454  0.296  0.753-  76 1.02 100 1.02 159 1.31
 222  0.454  0.796  0.753-  77 1.02 101 1.02 160 1.31
 223  0.954  0.296  0.753-  78 1.02 102 1.02 161 1.31
 224  0.954  0.796  0.753-  79 1.02 103 1.02 162 1.31
 225  0.296  0.046  0.753-  80 1.02 104 1.02 163 1.31
 226  0.296  0.546  0.753-  81 1.02 105 1.02 164 1.31
 227  0.796  0.046  0.753-  82 1.02 106 1.02 165 1.31
 228  0.796  0.546  0.753-  83 1.02 107 1.02 166 1.31
 229  0.764  0.537  0.565- 175 1.38 176 1.40 173 1.55 174 1.56
 230  0.497  0.997  0.553- 304 3.15
 231  0.497  0.503  0.553- 305 3.15
 232  0.003  0.997  0.553- 302 3.15
 233  0.003  0.497  0.551- 303 3.26
 234  0.247  0.253  0.553- 306 3.15
 235  0.247  0.747  0.553- 307 3.15
 236  0.753  0.247  0.553- 308 3.14
 237  0.747  0.753  0.551- 309 3.26
 238  0.997  0.997  0.655- 310 3.12 302 3.23
 239  0.003  0.497  0.655- 311 3.12 303 3.23
 240  0.497  0.997  0.655- 312 3.12 304 3.23
 241  0.503  0.497  0.653- 305 3.11 313 3.24
 242  0.247  0.253  0.655- 314 3.12 306 3.23
 243  0.247  0.747  0.655- 315 3.12 307 3.23
 244  0.747  0.253  0.655- 316 3.12 308 3.23
 245  0.753  0.753  0.653- 309 3.11 317 3.24
 246  0.140  0.104  0.606- 302 3.07 306 3.31
 247  0.140  0.604  0.606- 303 3.14 307 3.40
 248  0.640  0.104  0.606- 304 3.07 308 3.23
 249  0.640  0.610  0.608- 309 3.24 305 3.32
 250  0.360  0.396  0.606- 305 3.07 306 3.33
 251  0.354  0.890  0.606- 307 3.06 304 3.40
 252  0.860  0.390  0.608- 303 3.24 308 3.31
 253  0.854  0.890  0.606- 309 3.14 302 3.40
 254  0.104  0.360  0.606- 303 3.07 306 3.40
 255  0.104  0.854  0.606- 302 3.26 307 3.26
 256  0.604  0.354  0.608- 308 3.24 305 3.24
 257  0.610  0.854  0.606- 309 3.07 304 3.33
 258  0.390  0.140  0.606- 306 3.14 304 3.21
 259  0.390  0.640  0.606- 307 3.21 305 3.23
 260  0.896  0.140  0.606- 302 3.14 308 3.33
 261  0.896  0.646  0.608- 309 3.34 303 3.34
 262  0.000  0.000  0.755- 310 3.13 318 3.27
 263  0.000  0.500  0.755- 311 3.13 319 3.27
 264  0.500  0.000  0.755- 312 3.13 320 3.27
 265  0.500  0.500  0.755- 313 3.13 321 3.27
 266  0.250  0.250  0.755- 314 3.13 322 3.27
 267  0.250  0.750  0.755- 315 3.13 323 3.27
 268  0.750  0.250  0.755- 316 3.13 324 3.27
 269  0.750  0.750  0.755- 317 3.13 325 3.27
 270  0.136  0.114  0.705- 310 3.20 314 3.20
 271  0.136  0.614  0.705- 311 3.20 315 3.20
 272  0.636  0.114  0.705- 312 3.20 316 3.20
 273  0.636  0.614  0.705- 313 3.20 317 3.20
 274  0.364  0.386  0.705- 313 3.20 314 3.20
 275  0.364  0.886  0.705- 312 3.20 315 3.20
 276  0.864  0.386  0.705- 311 3.20 316 3.20
 277  0.864  0.886  0.705- 310 3.20 317 3.20
 278  0.114  0.364  0.705- 314 3.21 311 3.21
 279  0.114  0.864  0.705- 315 3.21 310 3.21
 280  0.614  0.364  0.705- 316 3.21 313 3.21
 281  0.614  0.864  0.705- 317 3.21 312 3.21
 282  0.386  0.136  0.705- 314 3.21 312 3.21
 283  0.386  0.636  0.705- 315 3.21 313 3.21
 284  0.886  0.136  0.705- 316 3.21 310 3.21
 285  0.886  0.636  0.705- 317 3.21 311 3.21
 286  0.135  0.115  0.801- 318 3.22 322 3.22
 287  0.135  0.615  0.801- 319 3.22 323 3.22
 288  0.635  0.115  0.801- 320 3.22 324 3.22
 289  0.635  0.615  0.801- 321 3.22 325 3.22
 290  0.365  0.385  0.801- 321 3.22 322 3.22
 291  0.365  0.885  0.801- 320 3.22 323 3.22
 292  0.865  0.385  0.801- 319 3.22 324 3.22
 293  0.865  0.885  0.801- 318 3.22 325 3.22
 294  0.115  0.365  0.801- 319 3.23 322 3.23
 295  0.115  0.865  0.801- 318 3.23 323 3.23
 296  0.615  0.365  0.801- 321 3.23 324 3.23
 297  0.615  0.865  0.801- 320 3.23 325 3.23
 298  0.385  0.135  0.801- 320 3.23 322 3.23
 299  0.385  0.635  0.801- 321 3.23 323 3.23
 300  0.885  0.135  0.801- 318 3.23 324 3.23
 301  0.885  0.635  0.801- 319 3.23 325 3.23
 302  0.003  0.003  0.603- 246 3.07 260 3.14 232 3.15 238 3.23 255 3.26 253 3.40
 303  0.003  0.497  0.603- 254 3.07 247 3.14 239 3.23 252 3.24 233 3.26 261 3.34
 304  0.503  0.003  0.603- 248 3.07 230 3.15 258 3.21 240 3.23 257 3.33 251 3.40
 305  0.497  0.497  0.603- 250 3.07 241 3.11 231 3.15 259 3.23 256 3.24 249 3.32
 306  0.253  0.247  0.603- 258 3.14 234 3.15 242 3.23 246 3.31 250 3.33 254 3.40
 307  0.253  0.753  0.603- 251 3.06 235 3.15 259 3.21 243 3.23 255 3.26 247 3.40
 308  0.747  0.247  0.603- 236 3.14 248 3.23 244 3.23 256 3.24 252 3.31 260 3.33
 309  0.747  0.753  0.603- 257 3.07 245 3.11 253 3.14 249 3.24 237 3.26 261 3.34
 310  0.000  0.000  0.705- 238 3.12 262 3.13 270 3.20 277 3.20 279 3.21 284 3.21
 311  0.000  0.500  0.705- 239 3.12 263 3.13 271 3.20 276 3.20 278 3.21 285 3.21
 312  0.500  0.000  0.705- 240 3.12 264 3.13 272 3.20 275 3.20 281 3.21 282 3.21
 313  0.500  0.500  0.705- 265 3.13 273 3.20 274 3.20 280 3.21 283 3.21 241 3.24
 314  0.250  0.250  0.705- 242 3.12 266 3.13 270 3.20 274 3.20 282 3.21 278 3.21
 315  0.250  0.750  0.705- 243 3.12 267 3.13 271 3.20 275 3.20 283 3.21 279 3.21
 316  0.750  0.250  0.705- 244 3.12 268 3.13 272 3.20 276 3.20 284 3.21 280 3.21
 317  0.750  0.750  0.705- 269 3.13 273 3.20 277 3.20 285 3.21 281 3.21 245 3.24
 318  0.000  0.000  0.807- 286 3.22 293 3.22 300 3.23 295 3.23 262 3.27
 319  0.000  0.500  0.807- 287 3.22 292 3.22 301 3.23 294 3.23 263 3.27
 320  0.500  0.000  0.807- 288 3.22 291 3.22 298 3.23 297 3.23 264 3.27
 321  0.500  0.500  0.807- 289 3.22 290 3.22 299 3.23 296 3.23 265 3.27
 322  0.250  0.250  0.807- 290 3.22 286 3.22 294 3.23 298 3.23 266 3.27
 323  0.250  0.750  0.807- 291 3.22 287 3.22 299 3.23 295 3.23 267 3.27
 324  0.750  0.250  0.807- 292 3.22 288 3.22 296 3.23 300 3.23 268 3.27
 325  0.750  0.750  0.807- 293 3.22 289 3.22 297 3.23 301 3.23 269 3.27
 

IMPORTANT INFORMATION: All symmetrisations will be switched off!
NOSYMM: (Re-)initialisation of all symmetry stuff for point group C_1.


----------------------------------------------------------------------------------------

                                     Primitive cell                                     

  volume of cell :   20385.2105

  direct lattice vectors                    reciprocal lattice vectors
    18.060800552  0.000000000  0.000000000     0.055368531  0.000015077 -0.000000000
    -0.004918649 18.062799454  0.000000000     0.000000000  0.055362404  0.000000000
     0.000000000  0.000000000 62.487499237     0.000000000 -0.000000000  0.016003201

  length of vectors
    18.060800552 18.062800123 62.487499237     0.055368533  0.055362404  0.016003201

  position of ions in fractional coordinates (direct lattice)
     0.453591391  0.303649330  0.581840435
     0.446229965  0.806681000  0.581920224
     0.952794750  0.299989974  0.580995845
     0.956762221  0.806514476  0.582804068
     0.304582318  0.051592935  0.580040087
     0.301708207  0.547511544  0.581852584
     0.794428417  0.051241250  0.580892003
     0.080991384  0.164943125  0.558342388
     0.079925918  0.668296849  0.557928487
     0.584824441  0.173067200  0.556964854
     0.574523201  0.671531500  0.558307469
     0.333760892  0.079103736  0.554609708
     0.329086915  0.581892194  0.556959055
     0.827127724  0.080608266  0.555998414
     0.046693038  0.197467289  0.581738669
     0.054061796  0.703989363  0.582795643
     0.556866006  0.207144197  0.581831950
     0.546566451  0.700742990  0.583708729
     0.205557113  0.445447249  0.581850142
     0.202663341  0.955469886  0.581756800
     0.698277732  0.949176605  0.580890416
     0.420810109  0.325770986  0.556979017
     0.423470703  0.833791353  0.556547107
     0.926812966  0.327097370  0.554634615
     0.922042894  0.833884013  0.556983413
     0.172858810  0.416082143  0.556957529
     0.168162548  0.922947561  0.557400977
     0.670899869  0.914798110  0.555997864
     0.500861402  0.250765963  0.538504253
     0.502466282  0.750690884  0.539482476
     0.005712022  0.244099566  0.538529282
     0.000774880  0.750891146  0.539467886
     0.247493116  0.499038237  0.539478691
     0.250801083  0.000875029  0.538496927
     0.749270084  0.994233724  0.538518538
     0.445275232  0.300853322  0.675120567
     0.449354005  0.797654019  0.675091753
     0.945330691  0.301659701  0.673308193
     0.949036417  0.801383807  0.675145780
     0.304779505  0.051564174  0.674192830
     0.300878297  0.551693650  0.675102375
     0.801701902  0.054177663  0.675106343
     0.800895306  0.554721651  0.675106099
     0.078322365  0.176196348  0.650199017
     0.072557090  0.668221506  0.649810146
     0.581759592  0.177432250  0.649813076
     0.583663758  0.670945656  0.646512123
     0.169433203  0.422855877  0.649793602
     0.168315395  0.922877049  0.651139086
     0.674187623  0.414818272  0.649797265
     0.672808148  0.922790091  0.649796654
     0.050633699  0.202333310  0.675085587
     0.048273612  0.695818654  0.674187641
     0.554081705  0.201631813  0.675150297
     0.554657198  0.698327337  0.673316434
     0.191936057  0.449137861  0.675101825
     0.196027409  0.949002729  0.676025716
     0.698297664  0.445820212  0.675105488
     0.699104101  0.945276452  0.675105000
     0.422798247  0.327145047  0.649813625
     0.421668012  0.823789409  0.650206160
     0.916326526  0.329040167  0.646504919
     0.922862697  0.827198240  0.649809596
     0.327080474  0.072594723  0.648462952
     0.328475947  0.572565321  0.649794090
     0.822589468  0.081763169  0.649798180
     0.830517996  0.580531914  0.648838516
     0.999169261  0.250880639  0.631079593
     0.994102542  0.744314347  0.632086630
     0.505770706  0.256000301  0.631130812
     0.500818961  0.749108590  0.631086796
     0.247508328  0.997559473  0.632021737
     0.252348696  0.494104925  0.632072162
     0.744094386  0.005675222  0.632075764
     0.755905920  0.494327784  0.632075886
     0.448745018  0.301283966  0.768889017
     0.448745007  0.801283913  0.768889017
     0.948744965  0.301283966  0.768889017
     0.948745007  0.801283913  0.768889017
     0.301275995  0.051294496  0.768872961
     0.301276011  0.551294499  0.768872961
     0.801275943  0.051294496  0.768872961
     0.801275984  0.551294499  0.768872961
     0.078771004  0.171180501  0.743441971
     0.078771006  0.671180448  0.743441971
     0.578771004  0.171180501  0.743441971
     0.578770992  0.671180448  0.743441971
     0.171199499  0.421174482  0.743421032
     0.171199501  0.921174508  0.743421032
     0.671199512  0.421174482  0.743421032
     0.671199501  0.921174508  0.743421032
     0.051256000  0.198714991  0.768889017
     0.051256002  0.698714925  0.768889017
     0.551256027  0.198714991  0.768889017
     0.551256016  0.698714925  0.768889017
     0.198723491  0.448703970  0.768872046
     0.198723493  0.948703970  0.768872046
     0.698723518  0.448703970  0.768872046
     0.698723507  0.948703970  0.768872046
     0.421231519  0.328817467  0.743441971
     0.421231508  0.828817440  0.743441971
     0.921231466  0.328817467  0.743441971
     0.921231508  0.828817440  0.743441971
     0.328800503  0.078824997  0.743421032
     0.328800492  0.578824964  0.743421032
     0.828800477  0.078824997  0.743421032
     0.828800519  0.578824964  0.743421032
     0.000003500  0.250001478  0.725821992
     0.000003500  0.750001452  0.725821992
     0.500003506  0.250001478  0.725821992
     0.500003495  0.750001452  0.725821992
     0.250000502  0.000000000  0.725803983
     0.250000517  0.500000000  0.725803983
     0.750000502  0.000000000  0.725803983
     0.750000490  0.500000000  0.725803983
     0.795089691  0.575961164  0.534439475
     0.742753842  0.489160262  0.532457450
     0.874636192  0.508749846  0.557778921
     0.844428695  0.485429312  0.583008027
     0.743840625  0.640902232  0.573309249
     0.796207849  0.589691259  0.590591880
     0.664970968  0.545861774  0.575334312
     0.678949729  0.456182078  0.565317721
     0.628770121  0.558259467  0.543737050
     0.684878541  0.641846150  0.547762330
     0.639114578  0.667339943  0.513221181
     0.713172852  0.610262089  0.505119890
     0.810159590  0.405648129  0.541249736
     0.763861561  0.383599096  0.565047220
     0.857326017  0.374923193  0.564229918
     0.869307311  0.689649295  0.571943070
     0.858578051  0.646598946  0.546969325
     0.907528509  0.603310532  0.567339671
     0.766535177  0.505022804  0.604639795
     0.737623331  0.415628743  0.596042800
     0.674699699  0.473520527  0.607313365
     0.554022228  0.555986948  0.514586627
     0.590389958  0.575088101  0.488130561
     0.717902991  0.498765748  0.477271577
     0.585199843  0.440906963  0.531956740
     0.777286559  0.371818107  0.478846355
     0.645138949  0.322461970  0.534487824
     0.742300157  0.283842060  0.508405734
     0.003971061  0.245936979  0.555970026
     0.002551319  0.752523387  0.555949026
     0.499217651  0.252402137  0.555014208
     0.497406276  0.752627926  0.556894406
     0.252580346  0.500700362  0.556919008
     0.252665844  0.002631290  0.555937305
     0.747406280  0.995989984  0.555958855
     0.997418953  0.252528957  0.647544800
     0.995969256  0.749280974  0.648522901
     0.500706362  0.254027805  0.648526381
     0.502587848  0.747440869  0.647551698
     0.247372309  0.495962929  0.648506357
     0.249268088  0.999215364  0.648484807
     0.753947867  0.499399057  0.649469379
     0.749172448  0.004114983  0.648509959
     0.499988984  0.249994984  0.743277021
     0.499989025  0.749994958  0.743277021
     0.999988984  0.249994984  0.743277021
     0.999989025  0.749994958  0.743277021
     0.250000502  0.000001000  0.743255960
     0.250000517  0.500001003  0.743255960
     0.750000502  0.000001000  0.743255960
     0.750000491  0.500001003  0.743255960
     0.642483145  0.475065387  0.504010720
     0.699940311  0.455059704  0.490030171
     0.624741388  0.424157235  0.519785482
     0.730438739  0.388932139  0.491052776
     0.656114587  0.358908145  0.521066866
     0.710542650  0.339575104  0.506274784
     0.745099748  0.542684092  0.541240396
     0.829899590  0.480976935  0.566017690
     0.790514881  0.602851403  0.573785663
     0.704429760  0.500377081  0.574727929
     0.680756090  0.587267633  0.537727669
     0.659064885  0.611759696  0.515570283
     0.815278462  0.409877463  0.558705986
     0.861249364  0.636059310  0.564133158
     0.722848366  0.469512442  0.596878782
     0.607950108  0.552258638  0.504068135
     0.044206602  0.203587163  0.565388475
     0.044670314  0.706894979  0.565619417
     0.550636274  0.209581035  0.564626970
     0.540657416  0.703643802  0.567358535
     0.456445919  0.294228398  0.564667933
     0.455389825  0.796899434  0.564852052
     0.958739119  0.293626663  0.563870105
     0.959144069  0.800258054  0.565602813
     0.209126912  0.452534654  0.566564309
     0.206545881  0.959157083  0.566377504
     0.705114718  0.953185386  0.565604156
     0.297432302  0.044829886  0.564850221
     0.294872462  0.543505043  0.566569314
     0.790859186  0.044156669  0.565609161
     0.046820456  0.205911490  0.658815853
     0.044736338  0.699717131  0.658941855
     0.550260611  0.205249750  0.658944907
     0.547386480  0.705163478  0.657233322
     0.202506059  0.452432438  0.657996598
     0.199712386  0.952503860  0.658798760
     0.705332085  0.449642924  0.657971507
     0.702476427  0.952549936  0.657971446
     0.455959928  0.294272959  0.657988112
     0.456466986  0.790966450  0.657808389
     0.952690664  0.294740879  0.656268591
     0.955843508  0.794139434  0.658943442
     0.294014871  0.041395405  0.657208903
     0.297077055  0.544637765  0.657967844
     0.791444848  0.046939151  0.657971446
     0.794197988  0.544128848  0.658930866
     0.045862501  0.204119496  0.752725994
     0.045862500  0.704119456  0.752725994
     0.545862507  0.204119496  0.752725994
     0.545862496  0.704119456  0.752725994
     0.204119002  0.454101003  0.752704994
     0.204118991  0.954100951  0.752704994
     0.704118976  0.454101003  0.752704994
     0.704118964  0.954100951  0.752704994
     0.454140018  0.295888490  0.752726971
     0.454140007  0.795888516  0.752726971
     0.954140018  0.295888490  0.752726971
     0.954140060  0.795888516  0.752726971
     0.295882492  0.045900498  0.752704994
     0.295882481  0.545900528  0.752704994
     0.795882439  0.045900498  0.752704994
     0.795882481  0.545900528  0.752704994
     0.764442335  0.537306434  0.565427851
     0.496677013  0.996678256  0.552864181
     0.496678811  0.503321715  0.552864181
     0.003321207  0.996678256  0.552864181
     0.003321207  0.496678285  0.550943875
     0.246679794  0.253321767  0.552882190
     0.246677973  0.746678259  0.552882190
     0.753322175  0.246678233  0.552882190
     0.746679862  0.753321688  0.550961884
     0.996676986  0.996678257  0.654856138
     0.003321207  0.496678285  0.654856138
     0.496677013  0.996678256  0.654856138
     0.503321167  0.496678285  0.652935832
     0.246678764  0.253321715  0.654869202
     0.246677023  0.746678259  0.654869202
     0.746678817  0.253321767  0.654869202
     0.753322970  0.753321688  0.652948896
     0.139835988  0.103537754  0.606457847
     0.139835990  0.603537773  0.606457847
     0.639836041  0.103537754  0.606457847
     0.639837839  0.610181203  0.608378153
     0.360163526  0.396463256  0.606457847
     0.353517461  0.889819642  0.606457847
     0.860161664  0.389819721  0.608378153
     0.853517488  0.889819642  0.606457847
     0.103573793  0.360221751  0.606492827
     0.103571985  0.853578243  0.606492827
     0.603571970  0.353578216  0.608413133
     0.610216124  0.853578243  0.606492827
     0.389781966  0.139779265  0.606492827
     0.389781955  0.639779225  0.606492827
     0.896426315  0.139779265  0.606492827
     0.896428166  0.646422655  0.608413133
     0.000000000  0.000000000  0.754927972
     0.000000000  0.500000000  0.754927972
     0.500000000  0.000000000  0.754927972
     0.499999989  0.500000000  0.754927972
     0.250000496  0.250000000  0.754939022
     0.250000511  0.749999974  0.754939022
     0.750000470  0.250000000  0.754939022
     0.750000458  0.749999974  0.754939022
     0.135790500  0.114209997  0.704782994
     0.135790502  0.614209984  0.704782994
     0.635790447  0.114209997  0.704782994
     0.635790488  0.614209984  0.704782994
     0.364209516  0.385789989  0.704782994
     0.364209505  0.885789963  0.704782994
     0.864209542  0.385789989  0.704782994
     0.864209531  0.885789963  0.704782994
     0.114217990  0.364218986  0.704780979
     0.114217992  0.864218986  0.704780979
     0.614218004  0.364218986  0.704780979
     0.614217992  0.864218986  0.704780979
     0.385782012  0.135781489  0.704782017
     0.385782001  0.635781489  0.704782017
     0.885781985  0.135781489  0.704782017
     0.885782027  0.635781489  0.704782017
     0.134667000  0.115332001  0.801256025
     0.134666989  0.615331988  0.801256025
     0.634666987  0.115332001  0.801256025
     0.634666976  0.615331988  0.801256025
     0.365333002  0.384667985  0.801256025
     0.365332990  0.884667959  0.801256025
     0.865332949  0.384667985  0.801256025
     0.865332938  0.884667959  0.801256025
     0.115328503  0.365337004  0.801264999
     0.115328505  0.865336978  0.801264999
     0.615328503  0.365337004  0.801264999
     0.615328492  0.865336978  0.801264999
     0.384671513  0.134662996  0.801264999
     0.384671501  0.634662970  0.801264999
     0.884671486  0.134662996  0.801264999
     0.884671528  0.634662970  0.801264999
     0.003323516  0.003322744  0.603167150
     0.003321707  0.496679288  0.603167150
     0.503323462  0.003322744  0.603167150
     0.496677477  0.496679288  0.603167150
     0.253321225  0.246677705  0.603175147
     0.253323049  0.753321213  0.603175147
     0.746677007  0.246677705  0.603175147
     0.746678805  0.753321213  0.603175147
     0.000000500  0.000000500  0.704828963
     0.000000500  0.500000475  0.704828963
     0.500000475  0.000000500  0.704828963
     0.500000464  0.500000475  0.704828963
     0.249999994  0.249999472  0.704824995
     0.250000010  0.749999498  0.704824995
     0.749999994  0.249999472  0.704824995
     0.749999983  0.749999498  0.704824995
     0.000000000  0.000000000  0.807317968
     0.000000000  0.500000000  0.807317968
     0.500000000  0.000000000  0.807317968
     0.499999989  0.500000000  0.807317968
     0.249999994  0.250000000  0.807317968
     0.250000010  0.749999974  0.807317968
     0.749999994  0.250000000  0.807317968
     0.749999983  0.749999974  0.807317968

  ion indices of the primitive-cell ions
   primitive index   ion index
                 1           1
                 2           2
                 3           3
                 4           4
                 5           5
                 6           6
                 7           7
                 8           8
                 9           9
                10          10
                11          11
                12          12
                13          13
                14          14
                15          15
                16          16
                17          17
                18          18
                19          19
                20          20
                21          21
                22          22
                23          23
                24          24
                25          25
                26          26
                27          27
                28          28
                29          29
                30          30
                31          31
                32          32
                33          33
                34          34
                35          35
                36          36
                37          37
                38          38
                39          39
                40          40
                41          41
                42          42
                43          43
                44          44
                45          45
                46          46
                47          47
                48          48
                49          49
                50          50
                51          51
                52          52
                53          53
                54          54
                55          55
                56          56
                57          57
                58          58
                59          59
                60          60
                61          61
                62          62
                63          63
                64          64
                65          65
                66          66
                67          67
                68          68
                69          69
                70          70
                71          71
                72          72
                73          73
                74          74
                75          75
                76          76
                77          77
                78          78
                79          79
                80          80
                81          81
                82          82
                83          83
                84          84
                85          85
                86          86
                87          87
                88          88
                89          89
                90          90
                91          91
                92          92
                93          93
                94          94
                95          95
                96          96
                97          97
                98          98
                99          99
               100         100
               101         101
               102         102
               103         103
               104         104
               105         105
               106         106
               107         107
               108         108
               109         109
               110         110
               111         111
               112         112
               113         113
               114         114
               115         115
               116         116
               117         117
               118         118
               119         119
               120         120
               121         121
               122         122
               123         123
               124         124
               125         125
               126         126
               127         127
               128         128
               129         129
               130         130
               131         131
               132         132
               133         133
               134         134
               135         135
               136         136
               137         137
               138         138
               139         139
               140         140
               141         141
               142         142
               143         143
               144         144
               145         145
               146         146
               147         147
               148         148
               149         149
               150         150
               151         151
               152         152
               153         153
               154         154
               155         155
               156         156
               157         157
               158         158
               159         159
               160         160
               161         161
               162         162
               163         163
               164         164
               165         165
               166         166
               167         167
               168         168
               169         169
               170         170
               171         171
               172         172
               173         173
               174         174
               175         175
               176         176
               177         177
               178         178
               179         179
               180         180
               181         181
               182         182
               183         183
               184         184
               185         185
               186         186
               187         187
               188         188
               189         189
               190         190
               191         191
               192         192
               193         193
               194         194
               195         195
               196         196
               197         197
               198         198
               199         199
               200         200
               201         201
               202         202
               203         203
               204         204
               205         205
               206         206
               207         207
               208         208
               209         209
               210         210
               211         211
               212         212
               213         213
               214         214
               215         215
               216         216
               217         217
               218         218
               219         219
               220         220
               221         221
               222         222
               223         223
               224         224
               225         225
               226         226
               227         227
               228         228
               229         229
               230         230
               231         231
               232         232
               233         233
               234         234
               235         235
               236         236
               237         237
               238         238
               239         239
               240         240
               241         241
               242         242
               243         243
               244         244
               245         245
               246         246
               247         247
               248         248
               249         249
               250         250
               251         251
               252         252
               253         253
               254         254
               255         255
               256         256
               257         257
               258         258
               259         259
               260         260
               261         261
               262         262
               263         263
               264         264
               265         265
               266         266
               267         267
               268         268
               269         269
               270         270
               271         271
               272         272
               273         273
               274         274
               275         275
               276         276
               277         277
               278         278
               279         279
               280         280
               281         281
               282         282
               283         283
               284         284
               285         285
               286         286
               287         287
               288         288
               289         289
               290         290
               291         291
               292         292
               293         293
               294         294
               295         295
               296         296
               297         297
               298         298
               299         299
               300         300
               301         301
               302         302
               303         303
               304         304
               305         305
               306         306
               307         307
               308         308
               309         309
               310         310
               311         311
               312         312
               313         313
               314         314
               315         315
               316         316
               317         317
               318         318
               319         319
               320         320
               321         321
               322         322
               323         323
               324         324
               325         325

----------------------------------------------------------------------------------------

 
 
 KPOINTS: Automatic Mesh                          

Automatic generation of k-mesh.
 Grid dimensions read from file:
 generate k-points for:    3    3    1

 Generating k-lattice:

  Cartesian coordinates                     Fractional coordinates (reciprocal lattice)
     0.018456177  0.000005026 -0.000000000     0.333333333  0.000000000  0.000000000
     0.000000000  0.018454135  0.000000000     0.000000000  0.333333333  0.000000000
     0.000000000 -0.000000000  0.016003201     0.000000000  0.000000000  1.000000000

  Length of vectors
     0.018456178  0.018454135  0.016003201

  Shift w.r.t. Gamma in fractional coordinates (k-lattice)
     0.000000000  0.000000000  0.000000000

 
 Subroutine IBZKPT returns following result:
 ===========================================
 
 Found      5 irreducible k-points:
 
 Following reciprocal coordinates:
            Coordinates               Weight
  0.000000  0.000000  0.000000      1.000000
  0.333333  0.000000  0.000000      2.000000
  0.000000  0.333333  0.000000      2.000000
  0.333333  0.333333  0.000000      2.000000
 -0.333333  0.333333  0.000000      2.000000
 
 Following cartesian coordinates:
            Coordinates               Weight
  0.000000  0.000000  0.000000      1.000000
  0.018456  0.000005  0.000000      2.000000
  0.000000  0.018454  0.000000      2.000000
  0.018456  0.018459  0.000000      2.000000
 -0.018456  0.018449  0.000000      2.000000
 


--------------------------------------------------------------------------------------------------------




 Dimension of arrays:
   k-points           NKPTS =      5   k-points in BZ     NKDIM =      5   number of bands    NBANDS=    732
   number of dos      NEDOS =    301   number of ions     NIONS =    325
   non local maximal  LDIM  =      5   non local SUM 2l+1 LMDIM =     13
   total plane-waves  NPLWV = ******
   max r-space proj   IRMAX =   3336   max aug-charges    IRDMAX=  19845
   dimension x,y,z NGX =   100 NGY =  100 NGZ =  350
   dimension x,y,z NGXF=   200 NGYF=  200 NGZF=  700
   support grid    NGXF=   200 NGYF=  200 NGZF=  700
   ions per type =             143  39  47  72  24
   NGX,Y,Z   is equivalent  to a cutoff of   9.20,  9.20,  9.31 a.u.
   NGXF,Y,Z  is equivalent  to a cutoff of  18.41, 18.41, 18.62 a.u.

 SYSTEM =  PSC                                     
 POSCAR =   H  C  N  I Pb                          

 Startparameter for this run:
   NWRITE =      2    write-flag & timer
   PREC   = normal    normal or accurate (medium, high low for compatibility)
   ISTART =      0    job   : 0-new  1-cont  2-samecut
   ICHARG =      1    charge: 1-file 2-atom 10-const
   ISPIN  =      1    spin polarized calculation?
   LNONCOLLINEAR =      F non collinear calculations
   LSORBIT =      F    spin-orbit coupling
   INIWAV =      1    electr: 0-lowe 1-rand  2-diag
   LASPH  =      F    aspherical Exc in radial PAW
 Electronic Relaxation 1
   ENCUT  =  500.0 eV  36.75 Ry    6.06 a.u.  32.93 32.93113.93*2*pi/ulx,y,z
   ENINI  =  500.0     initial cutoff
   ENAUG  =  644.9 eV  augmentation charge cutoff
   NELM   =    600;   NELMIN=  2; NELMDL=  0     # of ELM steps 
   EDIFF  = 0.1E-03   stopping-criterion for ELM
   LREAL  =      T    real-space projection
   NLSPLINE    = F    spline interpolate recip. space projectors
   LCOMPAT=      F    compatible to vasp.4.4
   GGA_COMPAT  = F    GGA compatible to vasp.4.4-vasp.4.6
   LMAXPAW     = -100 max onsite density
   LMAXMIX     =    2 max onsite mixed and CHGCAR
   VOSKOWN=      0    Vosko Wilk Nusair interpolation
   ROPT   =   -0.00050  -0.00050  -0.00050  -0.00050
   ROPT   =   -0.00050
 Ionic relaxation
   EDIFFG = 0.1E-02   stopping-criterion for IOM
   NSW    =      0    number of steps for IOM
   NBLOCK =      1;   KBLOCK =      1    inner block; outer block 
   IBRION =     -1    ionic relax: 0-MD 1-quasi-New 2-CG
   NFREE  =      0    steps in history (QN), initial steepest desc. (CG)
   ISIF   =      2    stress and relaxation
   IWAVPR =     10    prediction:  0-non 1-charg 2-wave 3-comb
   ISYM   =      0    0-nonsym 1-usesym 2-fastsym
   LCORR  =      T    Harris-Foulkes like correction to forces

   POTIM  = 0.5000    time-step for ionic-motion
   TEIN   =    0.0    initial temperature
   TEBEG  =    0.0;   TEEND  =   0.0 temperature during run
   SMASS  =  -3.00    Nose mass-parameter (am)
   estimated Nose-frequenzy (Omega)   =  0.10E-29 period in steps = 0.13E+47 mass=  -0.745E-26a.u.
   SCALEE = 1.0000    scale energy and forces
   NPACO  =    256;   APACO  = 16.0  distance and # of slots for P.C.
   PSTRESS=    0.0 pullay stress

  Mass of Ions in am
   POMASS =   1.00 12.01 14.00126.90207.20
  Ionic Valenz
   ZVAL   =   1.00  4.00  5.00  7.00  4.00
  Atomic Wigner-Seitz radii
   RWIGS  =  -1.00 -1.00 -1.00 -1.00 -1.00
  virtual crystal weights 
   VCA    =   1.00  1.00  1.00  1.00  1.00
   NELECT =    1134.0000    total number of electrons
   NUPDOWN=      -1.0000    fix difference up-down

 DOS related values:
   EMIN   =  10.00;   EMAX   =-10.00  energy-range for DOS
   EFERMI =   0.00
   ISMEAR =     0;   SIGMA  =   0.05  broadening in eV -4-tet -1-fermi 0-gaus

 Electronic relaxation 2 (details)
   IALGO  =     38    algorithm
   LDIAG  =      T    sub-space diagonalisation (order eigenvalues)
   LSUBROT=      F    optimize rotation matrix (better conditioning)
   TURBO    =      0    0=normal 1=particle mesh
   IRESTART =      0    0=no restart 2=restart with 2 vectors
   NREBOOT  =      0    no. of reboots
   NMIN     =      0    reboot dimension
   EREF     =   0.00    reference energy to select bands
   IMIX   =      4    mixing-type and parameters
     AMIX     =   0.40;   BMIX     =  0.01
     AMIX_MAG =   1.60;   BMIX_MAG =  0.01
     AMIN     =   0.01
     WC   =   100.;   INIMIX=   1;  MIXPRE=   1;  MAXMIX= -45

 Intra band minimization:
   WEIMIN = 0.0000     energy-eigenvalue tresh-hold
   EBREAK =  0.34E-07  absolut break condition
   DEPER  =   0.30     relativ break condition  

   TIME   =   0.40     timestep for ELM

  volume/ion in A,a.u.               =      62.72       423.28
  Fermi-wavevector in a.u.,A,eV,Ry     =   0.624944  1.180972  5.313816  0.390554
  Thomas-Fermi vector in A             =   1.685677
 
 Write flags
   LWAVE        =      F    write WAVECAR
   LDOWNSAMPLE  =      F    k-point downsampling of WAVECAR
   LCHARG       =      T    write CHGCAR
   LVTOT        =      T    write LOCPOT, total local potential
   LVHAR        =      F    write LOCPOT, Hartree potential only
   LELF         =      F    write electronic localiz. function (ELF)
   LORBIT       =      0    0 simple, 1 ext, 2 COOP (PROOUT), +10 PAW based schemes


 Dipole corrections
   LMONO  =      F    monopole corrections only (constant potential shift)
   LDIPOL =      T    correct potential (dipole corrections)
   IDIPOL =      3    1-x, 2-y, 3-z, 4-all directions 
   EPSILON=  1.0000000 bulk dielectric constant

 Exchange correlation treatment:
   GGA     =    --    GGA type
   LEXCH   =     8    internal setting for exchange type
   VOSKOWN=      0    Vosko Wilk Nusair interpolation
   LHFCALC =     F    Hartree Fock is set to
   LHFONE  =     F    Hartree Fock one center treatment
   AEXX    =    0.0000 exact exchange contribution

 Linear response parameters
   LEPSILON=     F    determine dielectric tensor
   LRPA    =     F    only Hartree local field effects (RPA)
   LNABLA  =     F    use nabla operator in PAW spheres
   LVEL    =     F    velocity operator in full k-point grid
   LINTERFAST=   F  fast interpolation
   KINTER  =     0    interpolate to denser k-point grid
   CSHIFT  =0.1000    complex shift for real part using Kramers Kronig
   OMEGAMAX=  -1.0    maximum frequency
   DEG_THRESHOLD= 0.2000000E-02 threshold for treating states as degnerate
   RTIME   =   -0.100 relaxation time in fs
  (WPLASMAI=    0.000 imaginary part of plasma frequency in eV, 0.658/RTIME)
   DFIELD  = 0.0000000 0.0000000 0.0000000 field for delta impulse in time
 
 Orbital magnetization related:
   ORBITALMAG=     F  switch on orbital magnetization
   LCHIMAG   =     F  perturbation theory with respect to B field
   DQ        =  0.001000  dq finite difference perturbation B field
   LLRAUG    =     F  two centre corrections for induced B field



--------------------------------------------------------------------------------------------------------


 Static calculation
 charge density and potential will be updated during run
 non-spin polarized calculation
 Variant of blocked Davidson
 Davidson routine will perform the subspace rotation
 perform sub-space diagonalisation
    after iterative eigenvector-optimisation
 modified Broyden-mixing scheme, WC =      100.0
 initial mixing is a Kerker type mixing with AMIX =  0.4000 and BMIX =      0.0100
 Hartree-type preconditioning will be used
 using additional bands           165
 real space projection scheme for non local part
[...]
     13.54561      0.00000     45.35368        -0.002886      0.000247      0.010247
     13.54315      9.03140     45.35368        -0.000667     -0.001042      0.008499
     14.35712     10.40347     33.39579        -1.131594     -1.159012      0.391105
     13.41232      8.83560     33.27193         0.147651      0.237338      0.919918
     15.79413      9.18945     34.85421         0.004269     -0.046187     -0.387010
     15.24867      8.76821     36.43071         0.155887     -0.237319     -0.283374
     13.43120     11.57649     35.82466         0.070403      0.308242     -0.089868
     14.37725     10.65147     36.90461         0.342249      0.226461      0.294280
     12.00722      9.85979     35.95120        -0.809229     -0.459841      0.320225
     12.26013      8.23993     35.32529         0.394867      0.137164     -0.519721
     11.35335     10.08373     33.97677         0.858110      0.335987     -0.036379
     12.36630     11.59354     34.22830        -0.094370     -1.657121     -0.831099
     11.53964     12.05403     32.06991        -0.472470      0.611355      0.449430
     12.87747     11.02304     31.56368        -1.205556      0.357251      0.864227
     14.63014      7.32714     33.82134         0.192217     -0.104746     -0.040802
     13.79406      6.92887     35.30839         0.590818      0.399801     -0.174458
     15.48215      6.77216     35.25732         1.051590     -0.941478      0.420413
     15.69699     12.45700     35.73929        -0.062277     -0.156210     -0.478448
     15.50343     11.67939     34.17875        -0.200945     -0.132788     -0.191905
     16.38772     10.89748     35.45164         1.470932     -0.967156      0.284397
     13.84175      9.12213     37.78243        -0.577680     -0.653198     -0.496275
     13.32002      7.50742     37.24522         0.832471     -2.669528     -0.253854
     12.18329      8.55311     37.94949         0.118275      0.069126     -0.154303
     10.00335     10.04268     32.15523         1.381906     -0.705147     -1.186508
     10.66009     10.38770     30.50206         0.477656     -0.565779      0.402210
     12.96345      9.00911     29.82351        -0.466501     -1.384340      1.248694
     10.56701      7.96401     33.24065        -0.086366     -0.122238     -0.141659
     14.03659      6.71608     29.92191        -1.532296      0.651935      1.394523
     11.65014      5.82457     33.39881        -0.182312     -0.188206      0.023577
     13.40514      5.12698     31.76900        -1.089265      1.660879     -0.378952
      0.07051      4.44231     34.74118        -3.378911      3.582483     -5.145996
      0.04238     13.59268     34.73986        -1.230839      1.144273      1.375415
      9.01503      4.55909     34.68145         4.657458     -3.854010      0.850382
      8.97985     13.59457     34.79894         5.288379     -5.556795     -2.267559
      4.55934      9.04405     34.80048        -3.213826     -3.298891     -1.660414
      4.56333      0.04753     34.73913        -3.173491     -2.999560     -1.455479
     13.49386     17.99037     34.74048         2.900635      2.959729     -1.599430
     18.01294      4.56138     40.46346         4.815070     -4.562977      2.708126
     17.98432     13.53411     40.52457         3.993456     -4.086386      3.977926
      9.04191      4.58845     40.52479         5.331585     -4.957809      0.248909
      9.07346     13.50087     40.46389        -1.839022      1.704847      2.250760
      4.46530      8.95848     40.52354         3.556614      3.213186      2.606453
      4.49707     18.04863     40.52219        -5.072156     -4.784803      1.852667
     13.61445      9.02055     40.58372        -4.444691     -5.048279     -1.827063
     13.53063      0.07433     40.52377        -4.871876     -5.142388      1.507465
      9.02897      4.51561     46.44552         0.024517     -0.006948      0.050187
      9.02651     13.54701     46.44552         0.000093      0.014309      0.039007
     18.05937      4.51561     46.44552         0.013104      0.002945      0.053483
     18.05691     13.54701     46.44552         0.026736     -0.008210      0.046266
      4.51521      0.00002     46.44421        -0.013965     -0.015131      0.050466
      4.51275      9.03142     46.44421         0.002021      0.005930      0.053341
     13.54561      0.00002     46.44421         0.001869      0.001921      0.051247
     13.54315      9.03142     46.44421        -0.000698     -0.002579      0.053630
     11.60142      8.58101     31.49437        -0.038640      1.305222     -0.508299
     12.63924      8.21965     30.62076        -1.589375      5.347735     -1.945898
     11.28124      7.66147     32.48009        -2.277413      3.277083      0.246295
     13.19040      7.02520     30.68466         4.090757     -3.039326     -2.760842
     11.84819      6.48289     32.56017         1.845001     -3.425995      0.186739
     12.83130      6.13368     31.63585         0.790475     -3.313408      1.557481
     13.45443      9.80239     33.82076         3.448966      0.948542     -1.243532
     14.98629      8.68779     35.36903         0.294984      4.603731      1.305755
     14.27437     10.88918     35.85443         0.107366      2.161766      0.843874
     12.72010      9.03821     35.91331        -2.569458     -0.167080      2.501095
     12.29211     10.60770     33.60126        -4.159487      2.310403      1.741565
     11.90023     11.05009     32.21670         2.644779     -2.272973     -2.977793
     14.72257      7.40353     34.91214        -2.483544     -2.265286     -1.779594
     15.55172     11.48901     35.25127        -1.745059      0.559383     -0.577008
     13.05291      8.48071     37.29746        -0.976903      4.368449     -0.094936
     10.97735      9.97534     31.49796        -1.353400      1.255973      1.250862
      0.79741      3.67735     35.32971         5.805638     -6.240952      4.052096
      0.80330     12.76850     35.34414         3.029380     -2.852432      2.563992
      9.94390      3.78562     35.28213        -0.496224      0.269503      1.728216
      9.76124     12.70978     35.45282        -0.613270      0.860923     -0.674996
      8.24233      5.31459     35.28469        -2.562547      2.734847      4.803470
      8.22079     14.39423     35.29619        -5.296916      5.643238      5.185529
     17.31415      5.30372     35.23483        -1.203528      1.220611      3.095311
     17.31897     14.45490     35.34311        -1.172107      1.205605      1.298736
      3.77477      8.17404     35.40319        -1.821393     -1.689132     -4.285900
      3.72567     17.32506     35.39151        -1.890734     -1.859132     -4.481565
     12.73025     17.21720     35.34319        -4.372338     -4.612915     -2.600352
      5.37164      0.80975     35.29608         4.557360      4.382803     -2.915583
      5.32296      9.81722     35.40350         4.231972      4.675762     -2.983624
     14.28333      0.79759     35.34350         1.902524      1.665489     -4.576737
      0.84460      3.71934     41.16776        -4.184451      3.914591     -0.233415
      0.80453     12.63885     41.17563        -4.310296      4.565140     -3.167967
      9.93714      3.70739     41.17582        -4.544945      4.180474     -0.082361
      9.88277     12.73723     41.06887         3.934351     -3.710554     -1.431703
      3.65520      8.17220     41.11656         0.446376      0.878915      4.716438
      3.60228     17.20489     41.16669         5.634094      5.315704      4.066233
     12.73665      8.12181     41.11499         1.934964      2.336557      3.124140
     12.68260     17.20572     41.11499         5.281627      5.317320      4.582198
      8.23355      5.31539     41.11603        -2.954148      2.416932      4.679141
      8.24027     14.28707     41.10480        -0.351295      0.320078      2.963017
     17.20491      5.32385     41.00858        -4.540018      4.251536      2.637430
     17.25939     14.34438     41.17573        -1.907010      1.993453      0.323265
      5.30994      0.74772     41.06734         2.961643      2.854297      4.963940
      5.36277      9.83768     41.11477        -5.826126     -5.183352      4.665738
     14.29390      0.84785     41.11499         2.798196      2.619511      4.921110
     14.34118      9.82849     41.17494         4.733626      5.111609      0.715019
      0.82731      3.68697     47.03596         0.018130     -0.018670     -0.092987
      0.82485     12.71837     47.03596         0.007843     -0.014379     -0.091289
      9.85771      3.68697     47.03596         0.009855     -0.014935     -0.096044
      9.85525     12.71837     47.03596         0.027977     -0.029403     -0.083045
      3.68432      8.20234     47.03465        -0.009959     -0.017666     -0.075907
      3.68186     17.23373     47.03465        -0.001870     -0.000932     -0.077089
     12.71472      8.20234     47.03465        -0.010450     -0.007818     -0.077259
     12.71226     17.23373     47.03465        -0.009646     -0.014092     -0.073687
      8.20068      5.34457     47.03603        -0.026446      0.023962     -0.094068
      8.19822     14.37597     47.03603        -0.010053      0.012351     -0.092130
     17.23108      5.34457     47.03603        -0.018522      0.015894     -0.095772
     17.22862     14.37597     47.03603        -0.030164      0.022148     -0.089315
      5.34365      0.82909     47.03465         0.020339      0.020229     -0.071372
      5.34119      9.86049     47.03465         0.012247      0.001060     -0.073100
     14.37405      0.82909     47.03465         0.010251      0.009171     -0.075984
     14.37159      9.86049     47.03465         0.009581      0.012806     -0.076158
     13.80380      9.70526     35.33217         2.157952     -5.115112     -6.079873
      8.96548     18.00280     34.54710         0.006172      0.034152      0.016818
      8.96794      9.09140     34.54710        -0.975510      0.177238      0.696278
      0.05508     18.00280     34.54710         0.018971      0.104253     -0.012501
      0.05754      8.97140     34.42710         1.127528     -0.171192     -0.053761
      4.45399      4.57570     34.54823         0.058705     -0.085271      0.066062
      4.45153     13.48710     34.54823         0.074199      0.022170      0.004862
     13.60439      4.45570     34.54823         0.098854     -1.337824      0.521541
     13.48193     13.60710     34.42823        -0.449988      2.456724     -0.384520
     17.99588     18.00280     40.92032        -0.044070      0.008290     -0.039434
      0.05754      8.97140     40.92032        -0.046422     -0.027749     -0.049928
      8.96548     18.00280     40.92032        -0.029634      0.019848     -0.164824
      9.08794      8.97140     40.80033        -0.044216      0.009112      0.433202
      4.45397      4.57570     40.92114         0.100691     -0.047507     -0.187830
      4.45151     13.48710     40.92114         0.049024      0.025872     -0.037391
     13.48437      4.57570     40.92114         0.099729     -0.124614     -0.106770
     13.60191     13.60710     40.80114        -0.011434     -0.064357      0.362531
      2.52504      1.87018     37.89603         0.409448      0.323293      0.067143
      2.52258     10.90158     37.89603         0.144640      0.123518      0.034800
     11.55544      1.87018     37.89603         0.194744      0.152194      0.042466
     11.55298     11.02158     38.01603        -1.081182      1.549500      1.250579
      6.50289      7.16124     37.89603        -0.376895     -0.480959      0.040420
      6.38043     16.07263     37.89603         0.316021      0.282638      0.025900
     15.53329      7.04124     38.01603         1.813682     -1.894694      1.777820
     15.41083     16.07263     37.89603         0.171607      0.234877      0.057326
      1.86885      6.50661     37.89822         0.357139     -0.453937      0.076095
      1.86639     15.41801     37.89822         0.057685      0.006583      0.055083
     10.89925      6.38661     38.01822        -0.722391     -0.996425     -0.033727
     11.01679     15.41801     37.89822        -0.439383      0.368719      0.057211
      7.03909      2.52480     37.89822         0.105986      0.042422      0.121499
      7.03663     11.55620     37.89822         0.086507      0.049522      0.126415
     16.18949      2.52480     37.89822        -0.252507      0.240191      0.059935
     16.18703     11.67620     38.01822         1.225631      0.285918      2.858402
      0.00000      0.00000     47.17356        -0.003308      0.002452      0.480409
     -0.00246      9.03140     47.17356        -0.002984     -0.002119      0.465801
      9.03040      0.00000     47.17356        -0.000004      0.001857      0.449937
      9.02794      9.03140     47.17356         0.000873     -0.002492      0.356082
      4.51398      4.51570     47.17425         0.002668      0.002065      0.428460
      4.51152     13.54710     47.17425         0.001892     -0.000916      0.506887
     13.54438      4.51570     47.17425        -0.000162      0.000648      0.453286
     13.54192     13.54710     47.17425         0.000339     -0.001450      0.339275
      2.45192      2.06295     44.04013         0.025694      0.007142     -0.022586
      2.44946     11.09435     44.04013         0.013825     -0.060110      0.024524
     11.48232      2.06295     44.04013         0.024435     -0.015031     -0.002737
     11.47986     11.09435     44.04013        -0.006854      0.015401     -0.068868
      6.57602      6.96845     44.04013         0.061591     -0.054569     -0.102135
      6.57356     15.99985     44.04013         0.039472     -0.017443     -0.066607
     15.60642      6.96845     44.04013         0.033367     -0.054065     -0.082162
     15.60396     15.99985     44.04013        -0.010206     -0.036147     -0.037338
      2.06108      6.57881     44.04000         0.034705      0.023348     -0.039247
      2.05862     15.61021     44.04000        -0.024157      0.011396      0.013988
     11.09148      6.57881     44.04000        -0.019374      0.002742     -0.007400
     11.08902     15.61021     44.04000         0.021541     -0.013656     -0.027600
      6.96686      2.45259     44.04007        -0.064226     -0.036769     -0.126890
      6.96440     11.48399     44.04007         0.027648     -0.047148     -0.040323
     15.99726      2.45259     44.04007        -0.069483     -0.029072     -0.105018
     15.99481     11.48399     44.04007        -0.037342     -0.001095     -0.061316
      2.43163      2.08322     50.06849         0.015448     -0.004368      0.021588
      2.42917     11.11462     50.06849         0.005247     -0.015764      0.022816
     11.46203      2.08322     50.06849         0.010105     -0.009751      0.021144
     11.45957     11.11462     50.06849         0.011181     -0.010757      0.020604
      6.59631      6.94818     50.06849        -0.003259      0.015614      0.020240
      6.59385     15.97958     50.06849        -0.002297      0.016450      0.022575
     15.62671      6.94818     50.06849        -0.012761      0.007869      0.021364
     15.62425     15.97958     50.06849        -0.022279     -0.001386      0.021575
      2.08113      6.59901     50.06905        -0.006572     -0.013361      0.021239
      2.07867     15.63041     50.06905        -0.012796     -0.007023      0.023109
     11.11153      6.59901     50.06905        -0.016607     -0.003283      0.020770
     11.10907     15.63041     50.06905        -0.002246     -0.017756      0.021348
      6.94681      2.43239     50.06905         0.009731      0.012028      0.021258
      6.94435     11.46379     50.06905         0.024662     -0.004519      0.022377
     15.97721      2.43239     50.06905         0.005359      0.014116      0.021676
     15.97475     11.46379     50.06905        -0.000183      0.018601      0.021206
      0.06001      0.06002     37.69041        -0.297373     -0.497905     -0.079357
      0.05755      8.97142     37.69041        -0.145335      0.351978     -0.131304
      9.09041      0.06002     37.69041        -0.191450     -0.401416     -0.002890
      8.96795      8.97142     37.69041         0.266756      0.386685     -0.166413
      4.57397      4.45569     37.69091        -0.263348      0.238291     -0.049513
      4.57151     13.60709     37.69091        -0.370891     -0.321192     -0.032268
     13.48437      4.45569     37.69091         0.252600      0.069451     -0.084635
     13.48191     13.60709     37.69091         0.238468     -0.059935     -0.037921
      0.00001      0.00001     44.04300         0.055042     -0.017740     -0.001628
     -0.00245      9.03141     44.04300         0.032151      0.030166      0.024719
      9.03041      0.00001     44.04300         0.028197     -0.023234      0.055937
      9.02795      9.03141     44.04300         0.008978      0.030865     -0.097252
      4.51397      4.51569     44.04275        -0.049786     -0.033225      0.121724
      4.51151     13.54709     44.04275        -0.031091     -0.008294     -0.064759
     13.54437      4.51569     44.04275        -0.025757      0.003523      0.084061
     13.54191     13.54709     44.04275        -0.014136      0.024118     -0.066782
      0.00000      0.00000     50.44728         0.008070     -0.002126     -0.644542
     -0.00246      9.03140     50.44728         0.008326      0.000537     -0.640568
      9.03040      0.00000     50.44728        -0.008043     -0.000923     -0.635850
      9.02794      9.03140     50.44728        -0.007773      0.001775     -0.611154
      4.51397      4.51570     50.44728        -0.007172     -0.006240     -0.628453
      4.51151     13.54710     50.44728        -0.007910      0.004606     -0.654833
     13.54437      4.51570     50.44728         0.008337     -0.004797     -0.637177
     13.54191     13.54710     50.44728         0.007682      0.005857     -0.607257
 -----------------------------------------------------------------------------------
    total drift:                               -0.072439      0.063756      0.493024


--------------------------------------------------------------------------------------------------------



  FREE ENERGIE OF THE ION-ELECTRON SYSTEM (eV)
  ---------------------------------------------------
  free  energy   TOTEN  =     -1556.76743902 eV

  energy  without entropy=    -1556.76743902  energy(sigma->0) =    -1556.76743902
 


--------------------------------------------------------------------------------------------------------


    POTLOK:  cpu time    0.5030: real time    0.5029


--------------------------------------------------------------------------------------------------------


     LOOP+:  cpu time  345.8547: real time  346.4169
 vacuum level on the upper side and lower side of the slab         2.333         1.573
    4ORBIT:  cpu time    0.0000: real time    0.0000

 total amount of memory used by VASP MPI-rank0  8653574. kBytes
=======================================================================

   base      :      30000. kBytes
   nonlr-proj:      53612. kBytes
   fftplans  :     249280. kBytes
   grid      :     701440. kBytes
   one-center:       2636. kBytes
   wavefun   :    7616606. kBytes
 
  
  
 General timing and accounting informations for this job:
 ========================================================
  
                  Total CPU time used (sec):      560.780
                            User time (sec):      448.383
                          System time (sec):      112.397
                         Elapsed time (sec):      561.807
  
                   Maximum memory used (kb):    10367252.
                   Average memory used (kb):          N/A
  
                          Minor page faults:      3828846
                          Major page faults:           13
                 Voluntary context switches:        11796
