<?xml version="1.0" encoding="ISO-8859-1"?>
<modeling>
 <generator>
  <i name="program" type="string">vasp </i>
  <i name="version" type="string">6.2.1  </i>
  <i name="subversion" type="string">16May21 (build Nov 15 2021 14:57:28) complex                          parallel </i>
  <i name="platform" type="string">LinuxPGI </i>
  <i name="date" type="string">2023 07 24 </i>
  <i name="time" type="string">20:36:09 </i>
 </generator>
 <incar>
  <i type="string" name="SYSTEM">PSC</i>
  <i type="int" name="ISTART">     1</i>
  <i type="string" name="PREC">Normal</i>
  <i name="BMIX">      0.01000000</i>
  <i name="AMIN">      0.01000000</i>
  <i type="int" name="ICHARG">     1</i>
  <i type="int" name="NELM">   600</i>
  <i type="int" name="ISYM">     0</i>
  <i name="ENCUT">    500.00000000</i>
  <i type="string" name="LREAL">Auto</i>
  <i type="int" name="ISMEAR">     0</i>
  <i name="SIGMA">      0.05000000</i>
  <i type="logical" name="LWAVE"> F  </i>
  <i type="logical" name="LVTOT"> T  </i>
  <i type="logical" name="GGA_COMPAT"> F  </i>
  <i type="logical" name="LDIPOL"> T  </i>
  <i type="int" name="IDIPOL">     3</i>
  <i type="int" name="IVDW">    12</i>
 </incar>
 <primitive_cell>
  <structure name="primitive_cell" >
   <crystal>
    <varray name="basis" >
     <v>      18.06080055       0.00000000       0.00000000 </v>
     <v>      -0.00491865      18.06279945       0.00000000 </v>
     <v>       0.00000000       0.00000000      62.48749924 </v>
    </varray>
    <i name="volume">  20385.21054034 </i>
    <varray name="rec_basis" >
     <v>       0.05536853       0.00001508      -0.00000000 </v>
     <v>       0.00000000       0.05536240       0.00000000 </v>
     <v>       0.00000000      -0.00000000       0.01600320 </v>
    </varray>
   </crystal>
   <varray name="positions" >
    <v>       0.45359139       0.30364933       0.58184044 </v>
    <v>       0.44622997       0.80668100       0.58192022 </v>
    <v>       0.95279475       0.29998997       0.58099584 </v>
    <v>       0.95676222       0.80651448       0.58280407 </v>
    <v>       0.30458232       0.05159294       0.58004009 </v>
    <v>       0.30170821       0.54751154       0.58185258 </v>
    <v>       0.79442842       0.05124125       0.58089200 </v>
    <v>       0.08099138       0.16494313       0.55834239 </v>
    <v>       0.07992592       0.66829685       0.55792849 </v>
    <v>       0.58482444       0.17306720       0.55696485 </v>
    <v>       0.57452320       0.67153150       0.55830747 </v>
    <v>       0.33376089       0.07910374       0.55460971 </v>
    <v>       0.32908692       0.58189219       0.55695905 </v>
    <v>       0.82712772       0.08060827       0.55599841 </v>
    <v>       0.04669304       0.19746729       0.58173867 </v>
    <v>       0.05406180       0.70398936       0.58279564 </v>
    <v>       0.55686601       0.20714420       0.58183195 </v>
    <v>       0.54656645       0.70074299       0.58370873 </v>
    <v>       0.20555711       0.44544725       0.58185014 </v>
    <v>       0.20266334       0.95546989       0.58175680 </v>
    <v>       0.69827773       0.94917660       0.58089042 </v>
    <v>       0.42081011       0.32577099       0.55697902 </v>
    <v>       0.42347070       0.83379135       0.55654711 </v>
    <v>       0.92681297       0.32709737       0.55463462 </v>
    <v>       0.92204289       0.83388401       0.55698341 </v>
    <v>       0.17285881       0.41608214       0.55695753 </v>
    <v>       0.16816255       0.92294756       0.55740098 </v>
    <v>       0.67089987       0.91479811       0.55599786 </v>
    <v>       0.50086140       0.25076596       0.53850425 </v>
    <v>       0.50246628       0.75069088       0.53948248 </v>
    <v>       0.00571202       0.24409957       0.53852928 </v>
    <v>       0.00077488       0.75089115       0.53946789 </v>
    <v>       0.24749312       0.49903824       0.53947869 </v>
    <v>       0.25080108       0.00087503       0.53849693 </v>
    <v>       0.74927008       0.99423372       0.53851854 </v>
    <v>       0.44527523       0.30085332       0.67512057 </v>
    <v>       0.44935400       0.79765402       0.67509175 </v>
    <v>       0.94533069       0.30165970       0.67330819 </v>
    <v>       0.94903642       0.80138381       0.67514578 </v>
    <v>       0.30477950       0.05156417       0.67419283 </v>
    <v>       0.30087830       0.55169365       0.67510237 </v>
    <v>       0.80170190       0.05417766       0.67510634 </v>
    <v>       0.80089531       0.55472165       0.67510610 </v>
    <v>       0.07832236       0.17619635       0.65019902 </v>
    <v>       0.07255709       0.66822151       0.64981015 </v>
    <v>       0.58175959       0.17743225       0.64981308 </v>
    <v>       0.58366376       0.67094566       0.64651212 </v>
    <v>       0.16943320       0.42285588       0.64979360 </v>
    <v>       0.16831539       0.92287705       0.65113909 </v>
    <v>       0.67418762       0.41481827       0.64979726 </v>
    <v>       0.67280815       0.92279009       0.64979665 </v>
    <v>       0.05063370       0.20233331       0.67508559 </v>
    <v>       0.04827361       0.69581865       0.67418764 </v>
    <v>       0.55408171       0.20163181       0.67515030 </v>
    <v>       0.55465720       0.69832734       0.67331643 </v>
    <v>       0.19193606       0.44913786       0.67510183 </v>
    <v>       0.19602741       0.94900273       0.67602572 </v>
    <v>       0.69829766       0.44582021       0.67510549 </v>
    <v>       0.69910410       0.94527645       0.67510500 </v>
    <v>       0.42279825       0.32714505       0.64981363 </v>
    <v>       0.42166801       0.82378941       0.65020616 </v>
    <v>       0.91632653       0.32904017       0.64650492 </v>
    <v>       0.92286270       0.82719824       0.64980960 </v>
    <v>       0.32708047       0.07259472       0.64846295 </v>
    <v>       0.32847595       0.57256532       0.64979409 </v>
    <v>       0.82258947       0.08176317       0.64979818 </v>
    <v>       0.83051800       0.58053191       0.64883852 </v>
    <v>       0.99916926       0.25088064       0.63107959 </v>
    <v>       0.99410254       0.74431435       0.63208663 </v>
    <v>       0.50577071       0.25600030       0.63113081 </v>
    <v>       0.50081896       0.74910859       0.63108680 </v>
    <v>       0.24750833       0.99755947       0.63202174 </v>
    <v>       0.25234870       0.49410493       0.63207216 </v>
    <v>       0.74409439       0.00567522       0.63207576 </v>
    <v>       0.75590592       0.49432778       0.63207589 </v>
    <v>       0.44874502       0.30128397       0.76888902 </v>
    <v>       0.44874501       0.80128391       0.76888902 </v>
    <v>       0.94874497       0.30128397       0.76888902 </v>
    <v>       0.94874501       0.80128391       0.76888902 </v>
    <v>       0.30127600       0.05129450       0.76887296 </v>
    <v>       0.30127601       0.55129450       0.76887296 </v>
    <v>       0.80127594       0.05129450       0.76887296 </v>
    <v>       0.80127598       0.55129450       0.76887296 </v>
    <v>       0.07877100       0.17118050       0.74344197 </v>
    <v>       0.07877101       0.67118045       0.74344197 </v>
    <v>       0.57877100       0.17118050       0.74344197 </v>
    <v>       0.57877099       0.67118045       0.74344197 </v>
    <v>       0.17119950       0.42117448       0.74342103 </v>
    <v>       0.17119950       0.92117451       0.74342103 </v>
    <v>       0.67119951       0.42117448       0.74342103 </v>
    <v>       0.67119950       0.92117451       0.74342103 </v>
    <v>       0.05125600       0.19871499       0.76888902 </v>
    <v>       0.05125600       0.69871493       0.76888902 </v>
    <v>       0.55125603       0.19871499       0.76888902 </v>
    <v>       0.55125602       0.69871493       0.76888902 </v>
    <v>       0.19872349       0.44870397       0.76887205 </v>
    <v>       0.19872349       0.94870397       0.76887205 </v>
    <v>       0.69872352       0.44870397       0.76887205 </v>
    <v>       0.69872351       0.94870397       0.76887205 </v>
    <v>       0.42123152       0.32881747       0.74344197 </v>
    <v>       0.42123151       0.82881744       0.74344197 </v>
    <v>       0.92123147       0.32881747       0.74344197 </v>
    <v>       0.92123151       0.82881744       0.74344197 </v>
    <v>       0.32880050       0.07882500       0.74342103 </v>
    <v>       0.32880049       0.57882496       0.74342103 </v>
    <v>       0.82880048       0.07882500       0.74342103 </v>
    <v>       0.82880052       0.57882496       0.74342103 </v>
    <v>       0.00000350       0.25000148       0.72582199 </v>
    <v>       0.00000350       0.75000145       0.72582199 </v>
    <v>       0.50000351       0.25000148       0.72582199 </v>
    <v>       0.50000350       0.75000145       0.72582199 </v>
    <v>       0.25000050       0.00000000       0.72580398 </v>
    <v>       0.25000052       0.50000000       0.72580398 </v>
    <v>       0.75000050       0.00000000       0.72580398 </v>
    <v>       0.75000049       0.50000000       0.72580398 </v>
    <v>       0.79508969       0.57596116       0.53443947 </v>
    <v>       0.74275384       0.48916026       0.53245745 </v>
    <v>       0.87463619       0.50874985       0.55777892 </v>
    <v>       0.84442869       0.48542931       0.58300803 </v>
    <v>       0.74384062       0.64090223       0.57330925 </v>
    <v>       0.79620785       0.58969126       0.59059188 </v>
    <v>       0.66497097       0.54586177       0.57533431 </v>
    <v>       0.67894973       0.45618208       0.56531772 </v>
    <v>       0.62877012       0.55825947       0.54373705 </v>
    <v>       0.68487854       0.64184615       0.54776233 </v>
    <v>       0.63911458       0.66733994       0.51322118 </v>
    <v>       0.71317285       0.61026209       0.50511989 </v>
    <v>       0.81015959       0.40564813       0.54124974 </v>
    <v>       0.76386156       0.38359910       0.56504722 </v>
    <v>       0.85732602       0.37492319       0.56422992 </v>
    <v>       0.86930731       0.68964930       0.57194307 </v>
    <v>       0.85857805       0.64659895       0.54696932 </v>
    <v>       0.90752851       0.60331053       0.56733967 </v>
    <v>       0.76653518       0.50502280       0.60463980 </v>
    <v>       0.73762333       0.41562874       0.59604280 </v>
    <v>       0.67469970       0.47352053       0.60731336 </v>
    <v>       0.55402223       0.55598695       0.51458663 </v>
    <v>       0.59038996       0.57508810       0.48813056 </v>
    <v>       0.71790299       0.49876575       0.47727158 </v>
    <v>       0.58519984       0.44090696       0.53195674 </v>
    <v>       0.77728656       0.37181811       0.47884635 </v>
    <v>       0.64513895       0.32246197       0.53448782 </v>
    <v>       0.74230016       0.28384206       0.50840573 </v>
    <v>       0.00397106       0.24593698       0.55597003 </v>
    <v>       0.00255132       0.75252339       0.55594903 </v>
    <v>       0.49921765       0.25240214       0.55501421 </v>
    <v>       0.49740628       0.75262793       0.55689441 </v>
    <v>       0.25258035       0.50070036       0.55691901 </v>
    <v>       0.25266584       0.00263129       0.55593731 </v>
    <v>       0.74740628       0.99598998       0.55595885 </v>
    <v>       0.99741895       0.25252896       0.64754480 </v>
    <v>       0.99596926       0.74928097       0.64852290 </v>
    <v>       0.50070636       0.25402780       0.64852638 </v>
    <v>       0.50258785       0.74744087       0.64755170 </v>
    <v>       0.24737231       0.49596293       0.64850636 </v>
    <v>       0.24926809       0.99921536       0.64848481 </v>
    <v>       0.75394787       0.49939906       0.64946938 </v>
    <v>       0.74917245       0.00411498       0.64850996 </v>
    <v>       0.49998898       0.24999498       0.74327702 </v>
    <v>       0.49998903       0.74999496       0.74327702 </v>
    <v>       0.99998898       0.24999498       0.74327702 </v>
    <v>       0.99998903       0.74999496       0.74327702 </v>
    <v>       0.25000050       0.00000100       0.74325596 </v>
    <v>       0.25000052       0.50000100       0.74325596 </v>
    <v>       0.75000050       0.00000100       0.74325596 </v>
    <v>       0.75000049       0.50000100       0.74325596 </v>
    <v>       0.64248315       0.47506539       0.50401072 </v>
    <v>       0.69994031       0.45505970       0.49003017 </v>
    <v>       0.62474139       0.42415724       0.51978548 </v>
    <v>       0.73043874       0.38893214       0.49105278 </v>
    <v>       0.65611459       0.35890814       0.52106687 </v>
    <v>       0.71054265       0.33957510       0.50627478 </v>
    <v>       0.74509975       0.54268409       0.54124040 </v>
    <v>       0.82989959       0.48097693       0.56601769 </v>
    <v>       0.79051488       0.60285140       0.57378566 </v>
    <v>       0.70442976       0.50037708       0.57472793 </v>
    <v>       0.68075609       0.58726763       0.53772767 </v>
    <v>       0.65906488       0.61175970       0.51557028 </v>
    <v>       0.81527846       0.40987746       0.55870599 </v>
    <v>       0.86124936       0.63605931       0.56413316 </v>
    <v>       0.72284837       0.46951244       0.59687878 </v>
    <v>       0.60795011       0.55225864       0.50406814 </v>
    <v>       0.04420660       0.20358716       0.56538848 </v>
    <v>       0.04467031       0.70689498       0.56561942 </v>
    <v>       0.55063627       0.20958104       0.56462697 </v>
    <v>       0.54065742       0.70364380       0.56735853 </v>
    <v>       0.45644592       0.29422840       0.56466793 </v>
    <v>       0.45538983       0.79689943       0.56485205 </v>
    <v>       0.95873912       0.29362666       0.56387011 </v>
    <v>       0.95914407       0.80025805       0.56560281 </v>
    <v>       0.20912691       0.45253465       0.56656431 </v>
    <v>       0.20654588       0.95915708       0.56637750 </v>
    <v>       0.70511472       0.95318539       0.56560416 </v>
    <v>       0.29743230       0.04482989       0.56485022 </v>
    <v>       0.29487246       0.54350504       0.56656931 </v>
    <v>       0.79085919       0.04415667       0.56560916 </v>
    <v>       0.04682046       0.20591149       0.65881585 </v>
    <v>       0.04473634       0.69971713       0.65894186 </v>
    <v>       0.55026061       0.20524975       0.65894491 </v>
    <v>       0.54738648       0.70516348       0.65723332 </v>
    <v>       0.20250606       0.45243244       0.65799660 </v>
    <v>       0.19971239       0.95250386       0.65879876 </v>
    <v>       0.70533208       0.44964292       0.65797151 </v>
    <v>       0.70247643       0.95254994       0.65797145 </v>
    <v>       0.45595993       0.29427296       0.65798811 </v>
    <v>       0.45646699       0.79096645       0.65780839 </v>
    <v>       0.95269066       0.29474088       0.65626859 </v>
    <v>       0.95584351       0.79413943       0.65894344 </v>
    <v>       0.29401487       0.04139541       0.65720890 </v>
    <v>       0.29707706       0.54463776       0.65796784 </v>
    <v>       0.79144485       0.04693915       0.65797145 </v>
    <v>       0.79419799       0.54412885       0.65893087 </v>
    <v>       0.04586250       0.20411950       0.75272599 </v>
    <v>       0.04586250       0.70411946       0.75272599 </v>
    <v>       0.54586251       0.20411950       0.75272599 </v>
    <v>       0.54586250       0.70411946       0.75272599 </v>
    <v>       0.20411900       0.45410100       0.75270499 </v>
    <v>       0.20411899       0.95410095       0.75270499 </v>
    <v>       0.70411898       0.45410100       0.75270499 </v>
    <v>       0.70411896       0.95410095       0.75270499 </v>
    <v>       0.45414002       0.29588849       0.75272697 </v>
    <v>       0.45414001       0.79588852       0.75272697 </v>
    <v>       0.95414002       0.29588849       0.75272697 </v>
    <v>       0.95414006       0.79588852       0.75272697 </v>
    <v>       0.29588249       0.04590050       0.75270499 </v>
    <v>       0.29588248       0.54590053       0.75270499 </v>
    <v>       0.79588244       0.04590050       0.75270499 </v>
    <v>       0.79588248       0.54590053       0.75270499 </v>
    <v>       0.76444233       0.53730643       0.56542785 </v>
    <v>       0.49667701       0.99667826       0.55286418 </v>
    <v>       0.49667881       0.50332171       0.55286418 </v>
    <v>       0.00332121       0.99667826       0.55286418 </v>
    <v>       0.00332121       0.49667829       0.55094387 </v>
    <v>       0.24667979       0.25332177       0.55288219 </v>
    <v>       0.24667797       0.74667826       0.55288219 </v>
    <v>       0.75332218       0.24667823       0.55288219 </v>
    <v>       0.74667986       0.75332169       0.55096188 </v>
    <v>       0.99667699       0.99667826       0.65485614 </v>
    <v>       0.00332121       0.49667829       0.65485614 </v>
    <v>       0.49667701       0.99667826       0.65485614 </v>
    <v>       0.50332117       0.49667829       0.65293583 </v>
    <v>       0.24667876       0.25332171       0.65486920 </v>
    <v>       0.24667702       0.74667826       0.65486920 </v>
    <v>       0.74667882       0.25332177       0.65486920 </v>
    <v>       0.75332297       0.75332169       0.65294890 </v>
    <v>       0.13983599       0.10353775       0.60645785 </v>
    <v>       0.13983599       0.60353777       0.60645785 </v>
    <v>       0.63983604       0.10353775       0.60645785 </v>
    <v>       0.63983784       0.61018120       0.60837815 </v>
    <v>       0.36016353       0.39646326       0.60645785 </v>
    <v>       0.35351746       0.88981964       0.60645785 </v>
    <v>       0.86016166       0.38981972       0.60837815 </v>
    <v>       0.85351749       0.88981964       0.60645785 </v>
    <v>       0.10357379       0.36022175       0.60649283 </v>
    <v>       0.10357199       0.85357824       0.60649283 </v>
    <v>       0.60357197       0.35357822       0.60841313 </v>
    <v>       0.61021612       0.85357824       0.60649283 </v>
    <v>       0.38978197       0.13977926       0.60649283 </v>
    <v>       0.38978195       0.63977923       0.60649283 </v>
    <v>       0.89642632       0.13977926       0.60649283 </v>
    <v>       0.89642817       0.64642265       0.60841313 </v>
    <v>       0.00000000       0.00000000       0.75492797 </v>
    <v>       0.00000000       0.50000000       0.75492797 </v>
    <v>       0.50000000       0.00000000       0.75492797 </v>
    <v>       0.49999999       0.50000000       0.75492797 </v>
    <v>       0.25000050       0.25000000       0.75493902 </v>
    <v>       0.25000051       0.74999997       0.75493902 </v>
    <v>       0.75000047       0.25000000       0.75493902 </v>
    <v>       0.75000046       0.74999997       0.75493902 </v>
    <v>       0.13579050       0.11421000       0.70478299 </v>
    <v>       0.13579050       0.61420998       0.70478299 </v>
    <v>       0.63579045       0.11421000       0.70478299 </v>
    <v>       0.63579049       0.61420998       0.70478299 </v>
    <v>       0.36420952       0.38578999       0.70478299 </v>
    <v>       0.36420950       0.88578996       0.70478299 </v>
    <v>       0.86420954       0.38578999       0.70478299 </v>
    <v>       0.86420953       0.88578996       0.70478299 </v>
    <v>       0.11421799       0.36421899       0.70478098 </v>
    <v>       0.11421799       0.86421899       0.70478098 </v>
    <v>       0.61421800       0.36421899       0.70478098 </v>
    <v>       0.61421799       0.86421899       0.70478098 </v>
    <v>       0.38578201       0.13578149       0.70478202 </v>
    <v>       0.38578200       0.63578149       0.70478202 </v>
    <v>       0.88578199       0.13578149       0.70478202 </v>
    <v>       0.88578203       0.63578149       0.70478202 </v>
    <v>       0.13466700       0.11533200       0.80125603 </v>
    <v>       0.13466699       0.61533199       0.80125603 </v>
    <v>       0.63466699       0.11533200       0.80125603 </v>
    <v>       0.63466698       0.61533199       0.80125603 </v>
    <v>       0.36533300       0.38466799       0.80125603 </v>
    <v>       0.36533299       0.88466796       0.80125603 </v>
    <v>       0.86533295       0.38466799       0.80125603 </v>
    <v>       0.86533294       0.88466796       0.80125603 </v>
    <v>       0.11532850       0.36533700       0.80126500 </v>
    <v>       0.11532850       0.86533698       0.80126500 </v>
    <v>       0.61532850       0.36533700       0.80126500 </v>
    <v>       0.61532849       0.86533698       0.80126500 </v>
    <v>       0.38467151       0.13466300       0.80126500 </v>
    <v>       0.38467150       0.63466297       0.80126500 </v>
    <v>       0.88467149       0.13466300       0.80126500 </v>
    <v>       0.88467153       0.63466297       0.80126500 </v>
    <v>       0.00332352       0.00332274       0.60316715 </v>
    <v>       0.00332171       0.49667929       0.60316715 </v>
    <v>       0.50332346       0.00332274       0.60316715 </v>
    <v>       0.49667748       0.49667929       0.60316715 </v>
    <v>       0.25332122       0.24667770       0.60317515 </v>
    <v>       0.25332305       0.75332121       0.60317515 </v>
    <v>       0.74667701       0.24667770       0.60317515 </v>
    <v>       0.74667881       0.75332121       0.60317515 </v>
    <v>       0.00000050       0.00000050       0.70482896 </v>
    <v>       0.00000050       0.50000048       0.70482896 </v>
    <v>       0.50000048       0.00000050       0.70482896 </v>
    <v>       0.50000046       0.50000048       0.70482896 </v>
    <v>       0.24999999       0.24999947       0.70482499 </v>
    <v>       0.25000001       0.74999950       0.70482499 </v>
    <v>       0.74999999       0.24999947       0.70482499 </v>
    <v>       0.74999998       0.74999950       0.70482499 </v>
    <v>       0.00000000       0.00000000       0.80731797 </v>
    <v>       0.00000000       0.50000000       0.80731797 </v>
    <v>       0.50000000       0.00000000       0.80731797 </v>
    <v>       0.49999999       0.50000000       0.80731797 </v>
    <v>       0.24999999       0.25000000       0.80731797 </v>
    <v>       0.25000001       0.74999997       0.80731797 </v>
    <v>       0.74999999       0.25000000       0.80731797 </v>
    <v>       0.74999998       0.74999997       0.80731797 </v>
   </varray>
  </structure>
  <varray name="primitive_index" >
   <v type="int" >        1 </v>
   <v type="int" >        2 </v>
   <v type="int" >        3 </v>
   <v type="int" >        4 </v>
   <v type="int" >        5 </v>
   <v type="int" >        6 </v>
   <v type="int" >        7 </v>
   <v type="int" >        8 </v>
   <v type="int" >        9 </v>
   <v type="int" >       10 </v>
   <v type="int" >       11 </v>
   <v type="int" >       12 </v>
   <v type="int" >       13 </v>
   <v type="int" >       14 </v>
   <v type="int" >       15 </v>
   <v type="int" >       16 </v>
   <v type="int" >       17 </v>
   <v type="int" >       18 </v>
   <v type="int" >       19 </v>
   <v type="int" >       20 </v>
   <v type="int" >       21 </v>
   <v type="int" >       22 </v>
   <v type="int" >       23 </v>
   <v type="int" >       24 </v>
   <v type="int" >       25 </v>
   <v type="int" >       26 </v>
   <v type="int" >       27 </v>
   <v type="int" >       28 </v>
   <v type="int" >       29 </v>
   <v type="int" >       30 </v>
   <v type="int" >       31 </v>
   <v type="int" >       32 </v>
   <v type="int" >       33 </v>
   <v type="int" >       34 </v>
   <v type="int" >       35 </v>
   <v type="int" >       36 </v>
   <v type="int" >       37 </v>
   <v type="int" >       38 </v>
   <v type="int" >       39 </v>
   <v type="int" >       40 </v>
   <v type="int" >       41 </v>
   <v type="int" >       42 </v>
   <v type="int" >       43 </v>
   <v type="int" >       44 </v>
   <v type="int" >       45 </v>
   <v type="int" >       46 </v>
   <v type="int" >       47 </v>
   <v type="int" >       48 </v>
   <v type="int" >       49 </v>
   <v type="int" >       50 </v>
   <v type="int" >       51 </v>
   <v type="int" >       52 </v>
   <v type="int" >       53 </v>
   <v type="int" >       54 </v>
   <v type="int" >       55 </v>
   <v type="int" >       56 </v>
   <v type="int" >       57 </v>
   <v type="int" >       58 </v>
   <v type="int" >       59 </v>
   <v type="int" >       60 </v>
   <v type="int" >       61 </v>
   <v type="int" >       62 </v>
   <v type="int" >       63 </v>
   <v type="int" >       64 </v>
   <v type="int" >       65 </v>
   <v type="int" >       66 </v>
   <v type="int" >       67 </v>
   <v type="int" >       68 </v>
   <v type="int" >       69 </v>
   <v type="int" >       70 </v>
   <v type="int" >       71 </v>
   <v type="int" >       72 </v>
   <v type="int" >       73 </v>
   <v type="int" >       74 </v>
   <v type="int" >       75 </v>
   <v type="int" >       76 </v>
   <v type="int" >       77 </v>
   <v type="int" >       78 </v>
   <v type="int" >       79 </v>
   <v type="int" >       80 </v>
   <v type="int" >       81 </v>
   <v type="int" >       82 </v>
   <v type="int" >       83 </v>
   <v type="int" >       84 </v>
   <v type="int" >       85 </v>
   <v type="int" >       86 </v>
   <v type="int" >       87 </v>
   <v type="int" >       88 </v>
   <v type="int" >       89 </v>
   <v type="int" >       90 </v>
   <v type="int" >       91 </v>
   <v type="int" >       92 </v>
   <v type="int" >       93 </v>
   <v type="int" >       94 </v>
   <v type="int" >       95 </v>
   <v type="int" >       96 </v>
   <v type="int" >       97 </v>
   <v type="int" >       98 </v>
   <v type="int" >       99 </v>
   <v type="int" >      100 </v>
   <v type="int" >      101 </v>
   <v type="int" >      102 </v>
   <v type="int" >      103 </v>
   <v type="int" >      104 </v>
   <v type="int" >      105 </v>
   <v type="int" >      106 </v>
   <v type="int" >      107 </v>
   <v type="int" >      108 </v>
   <v type="int" >      109 </v>
   <v type="int" >      110 </v>
   <v type="int" >      111 </v>
   <v type="int" >      112 </v>
   <v type="int" >      113 </v>
   <v type="int" >      114 </v>
   <v type="int" >      115 </v>
   <v type="int" >      116 </v>
   <v type="int" >      117 </v>
   <v type="int" >      118 </v>
   <v type="int" >      119 </v>
   <v type="int" >      120 </v>
   <v type="int" >      121 </v>
   <v type="int" >      122 </v>
   <v type="int" >      123 </v>
   <v type="int" >      124 </v>
   <v type="int" >      125 </v>
   <v type="int" >      126 </v>
   <v type="int" >      127 </v>
   <v type="int" >      128 </v>
   <v type="int" >      129 </v>
   <v type="int" >      130 </v>
   <v type="int" >      131 </v>
   <v type="int" >      132 </v>
   <v type="int" >      133 </v>
   <v type="int" >      134 </v>
   <v type="int" >      135 </v>
   <v type="int" >      136 </v>
   <v type="int" >      137 </v>
   <v type="int" >      138 </v>
   <v type="int" >      139 </v>
   <v type="int" >      140 </v>
   <v type="int" >      141 </v>
   <v type="int" >      142 </v>
   <v type="int" >      143 </v>
   <v type="int" >      144 </v>
   <v type="int" >      145 </v>
   <v type="int" >      146 </v>
   <v type="int" >      147 </v>
   <v type="int" >      148 </v>
   <v type="int" >      149 </v>
   <v type="int" >      150 </v>
   <v type="int" >      151 </v>
   <v type="int" >      152 </v>
   <v type="int" >      153 </v>
   <v type="int" >      154 </v>
   <v type="int" >      155 </v>
   <v type="int" >      156 </v>
   <v type="int" >      157 </v>
   <v type="int" >      158 </v>
   <v type="int" >      159 </v>
   <v type="int" >      160 </v>
   <v type="int" >      161 </v>
   <v type="int" >      162 </v>
   <v type="int" >      163 </v>
   <v type="int" >      164 </v>
   <v type="int" >      165 </v>
   <v type="int" >      166 </v>
   <v type="int" >      167 </v>
   <v type="int" >      168 </v>
   <v type="int" >      169 </v>
   <v type="int" >      170 </v>
   <v type="int" >      171 </v>
   <v type="int" >      172 </v>
   <v type="int" >      173 </v>
   <v type="int" >      174 </v>
   <v type="int" >      175 </v>
   <v type="int" >      176 </v>
   <v type="int" >      177 </v>
   <v type="int" >      178 </v>
   <v type="int" >      179 </v>
   <v type="int" >      180 </v>
   <v type="int" >      181 </v>
   <v type="int" >      182 </v>
   <v type="int" >      183 </v>
   <v type="int" >      184 </v>
   <v type="int" >      185 </v>
   <v type="int" >      186 </v>
   <v type="int" >      187 </v>
   <v type="int" >      188 </v>
   <v type="int" >      189 </v>
   <v type="int" >      190 </v>
   <v type="int" >      191 </v>
   <v type="int" >      192 </v>
   <v type="int" >      193 </v>
   <v type="int" >      194 </v>
   <v type="int" >      195 </v>
   <v type="int" >      196 </v>
   <v type="int" >      197 </v>
   <v type="int" >      198 </v>
   <v type="int" >      199 </v>
   <v type="int" >      200 </v>
   <v type="int" >      201 </v>
   <v type="int" >      202 </v>
   <v type="int" >      203 </v>
   <v type="int" >      204 </v>
   <v type="int" >      205 </v>
   <v type="int" >      206 </v>
   <v type="int" >      207 </v>
   <v type="int" >      208 </v>
   <v type="int" >      209 </v>
   <v type="int" >      210 </v>
   <v type="int" >      211 </v>
   <v type="int" >      212 </v>
   <v type="int" >      213 </v>
   <v type="int" >      214 </v>
   <v type="int" >      215 </v>
   <v type="int" >      216 </v>
   <v type="int" >      217 </v>
   <v type="int" >      218 </v>
   <v type="int" >      219 </v>
   <v type="int" >      220 </v>
   <v type="int" >      221 </v>
   <v type="int" >      222 </v>
   <v type="int" >      223 </v>
   <v type="int" >      224 </v>
   <v type="int" >      225 </v>
   <v type="int" >      226 </v>
   <v type="int" >      227 </v>
   <v type="int" >      228 </v>
   <v type="int" >      229 </v>
   <v type="int" >      230 </v>
   <v type="int" >      231 </v>
   <v type="int" >      232 </v>
   <v type="int" >      233 </v>
   <v type="int" >      234 </v>
   <v type="int" >      235 </v>
   <v type="int" >      236 </v>
   <v type="int" >      237 </v>
   <v type="int" >      238 </v>
   <v type="int" >      239 </v>
   <v type="int" >      240 </v>
   <v type="int" >      241 </v>
   <v type="int" >      242 </v>
   <v type="int" >      243 </v>
   <v type="int" >      244 </v>
   <v type="int" >      245 </v>
   <v type="int" >      246 </v>
   <v type="int" >      247 </v>
   <v type="int" >      248 </v>
   <v type="int" >      249 </v>
   <v type="int" >      250 </v>
   <v type="int" >      251 </v>
   <v type="int" >      252 </v>
   <v type="int" >      253 </v>
   <v type="int" >      254 </v>
   <v type="int" >      255 </v>
   <v type="int" >      256 </v>
   <v type="int" >      257 </v>
   <v type="int" >      258 </v>
   <v type="int" >      259 </v>
   <v type="int" >      260 </v>
   <v type="int" >      261 </v>
   <v type="int" >      262 </v>
   <v type="int" >      263 </v>
   <v type="int" >      264 </v>
   <v type="int" >      265 </v>
   <v type="int" >      266 </v>
   <v type="int" >      267 </v>
   <v type="int" >      268 </v>
   <v type="int" >      269 </v>
   <v type="int" >      270 </v>
   <v type="int" >      271 </v>
   <v type="int" >      272 </v>
   <v type="int" >      273 </v>
   <v type="int" >      274 </v>
   <v type="int" >      275 </v>
   <v type="int" >      276 </v>
   <v type="int" >      277 </v>
   <v type="int" >      278 </v>
   <v type="int" >      279 </v>
   <v type="int" >      280 </v>
   <v type="int" >      281 </v>
   <v type="int" >      282 </v>
   <v type="int" >      283 </v>
   <v type="int" >      284 </v>
   <v type="int" >      285 </v>
   <v type="int" >      286 </v>
   <v type="int" >      287 </v>
   <v type="int" >      288 </v>
   <v type="int" >      289 </v>
   <v type="int" >      290 </v>
   <v type="int" >      291 </v>
   <v type="int" >      292 </v>
   <v type="int" >      293 </v>
   <v type="int" >      294 </v>
   <v type="int" >      295 </v>
   <v type="int" >      296 </v>
   <v type="int" >      297 </v>
   <v type="int" >      298 </v>
   <v type="int" >      299 </v>
   <v type="int" >      300 </v>
   <v type="int" >      301 </v>
   <v type="int" >      302 </v>
   <v type="int" >      303 </v>
   <v type="int" >      304 </v>
   <v type="int" >      305 </v>
   <v type="int" >      306 </v>
   <v type="int" >      307 </v>
   <v type="int" >      308 </v>
   <v type="int" >      309 </v>
   <v type="int" >      310 </v>
   <v type="int" >      311 </v>
   <v type="int" >      312 </v>
   <v type="int" >      313 </v>
   <v type="int" >      314 </v>
   <v type="int" >      315 </v>
   <v type="int" >      316 </v>
   <v type="int" >      317 </v>
   <v type="int" >      318 </v>
   <v type="int" >      319 </v>
   <v type="int" >      320 </v>
   <v type="int" >      321 </v>
   <v type="int" >      322 </v>
   <v type="int" >      323 </v>
   <v type="int" >      324 </v>
   <v type="int" >      325 </v>
  </varray>
 </primitive_cell>
 <kpoints>
  <generation param="Gamma">
   <v type="int" name="divisions">       3        3        1 </v>
   <v name="usershift">      0.00000000       0.00000000       0.00000000 </v>
   <v name="genvec1">      0.33333333       0.00000000       0.00000000 </v>
   <v name="genvec2">      0.00000000       0.33333333       0.00000000 </v>
   <v name="genvec3">      0.00000000       0.00000000       1.00000000 </v>
   <v name="shift">      0.00000000       0.00000000       0.00000000 </v>
  </generation>
  <varray name="kpointlist" >
   <v>       0.00000000       0.00000000       0.00000000 </v>
   <v>       0.33333333       0.00000000       0.00000000 </v>
   <v>       0.00000000       0.33333333       0.00000000 </v>
   <v>       0.33333333       0.33333333       0.00000000 </v>
   <v>      -0.33333333       0.33333333       0.00000000 </v>
  </varray>
  <varray name="weights" >
   <v>       0.11111111 </v>
   <v>       0.22222222 </v>
   <v>       0.22222222 </v>
   <v>       0.22222222 </v>
   <v>       0.22222222 </v>
  </varray>
 </kpoints>
 <parameters>
  <separator name="general" >
   <i type="string" name="SYSTEM">PSC</i>
   <i type="logical" name="LCOMPAT"> F  </i>
  </separator>
  <separator name="electronic" >
   <i type="string" name="PREC">normal</i>
   <i name="ENMAX">    500.00000000</i>
   <i name="ENAUG">    644.87300000</i>
   <i name="EDIFF">      0.00010000</i>
   <i type="int" name="IALGO">    38</i>
   <i type="int" name="IWAVPR">    10</i>
   <i type="int" name="NBANDS">   732</i>
   <i type="int" name="NBANDSLOW">    -1</i>
   <i type="int" name="NBANDSHIGH">    -1</i>
   <i name="NELECT">   1134.00000000</i>
   <i type="int" name="TURBO">     0</i>
   <i type="int" name="IRESTART">     0</i>
   <i type="int" name="NREBOOT">     0</i>
   <i type="int" name="NMIN">     0</i>
   <i name="EREF">      0.00000000</i>
   <separator name="electronic smearing" >
    <i type="int" name="ISMEAR">     0</i>
    <i name="SIGMA">      0.05000000</i>
    <i name="KSPACING">      0.50000000</i>
    <i type="logical" name="KGAMMA"> T  </i>
    <i type="logical" name="KBLOWUP"> T  </i>
   </separator>
   <separator name="electronic projectors" >
    <i type="logical" name="LREAL"> T  </i>
    <v name="ROPT">     -0.00050000     -0.00050000     -0.00050000     -0.00050000     -0.00050000</v>
    <i type="int" name="LMAXPAW">  -100</i>
    <i type="int" name="LMAXMIX">     2</i>
    <i type="logical" name="NLSPLINE"> F  </i>
   </separator>
   <separator name="electronic startup" >
    <i type="int" name="ISTART">     0</i>
    <i type="int" name="ICHARG">     1</i>
    <i type="int" name="INIWAV">     1</i>
   </separator>
   <separator name="electronic spin" >
    <i type="int" name="ISPIN">     1</i>
    <i type="logical" name="LNONCOLLINEAR"> F  </i>
    <v name="MAGMOM">      1.00000000      1.00000000      1.00000000      1.00000000      1.00000000      1.00000000      1.00000000      1.00000000      1.00000000      1.00000000      1.00000000      1.00000000      1.00000000      1.00000000      1.00000000      1.00000000      1.00000000      1.00000000      1.00000000      1.00000000
      1.00000000      1.00000000      1.00000000      1.00000000      1.00000000      1.00000000      1.00000000      1.00000000      1.00000000      1.00000000      1.00000000      1.00000000      1.00000000      1.00000000      1.00000000      1.00000000      1.00000000      1.00000000      1.00000000      1.00000000
      1.00000000      1.00000000      1.00000000      1.00000000      1.00000000      1.00000000      1.00000000      1.00000000      1.00000000      1.00000000      1.00000000      1.00000000      1.00000000      1.00000000      1.00000000      1.00000000      1.00000000      1.00000000      1.00000000      1.00000000
      1.00000000      1.00000000      1.00000000      1.00000000      1.00000000      1.00000000      1.00000000      1.00000000      1.00000000      1.00000000      1.00000000      1.00000000      1.00000000      1.00000000      1.00000000      1.00000000      1.00000000      1.00000000      1.00000000      1.00000000
      1.00000000      1.00000000      1.00000000      1.00000000      1.00000000      1.00000000      1.00000000      1.00000000      1.00000000      1.00000000      1.00000000      1.00000000      1.00000000      1.00000000      1.00000000      1.00000000      1.00000000      1.00000000      1.00000000      1.00000000
      1.00000000      1.00000000      1.00000000      1.00000000      1.00000000      1.00000000      1.00000000      1.00000000      1.00000000      1.00000000      1.00000000      1.00000000      1.00000000      1.00000000      1.00000000      1.00000000      1.00000000      1.00000000      1.00000000      1.00000000
      1.00000000      1.00000000      1.00000000      1.00000000      1.00000000      1.00000000      1.00000000      1.00000000      1.00000000      1.00000000      1.00000000      1.00000000      1.00000000      1.00000000      1.00000000      1.00000000      1.00000000      1.00000000      1.00000000      1.00000000
      1.00000000      1.00000000      1.00000000      1.00000000      1.00000000      1.00000000      1.00000000      1.00000000      1.00000000      1.00000000      1.00000000      1.00000000      1.00000000      1.00000000      1.00000000      1.00000000      1.00000000      1.00000000      1.00000000      1.00000000
      1.00000000      1.00000000      1.00000000      1.00000000      1.00000000      1.00000000      1.00000000      1.00000000      1.00000000      1.00000000      1.00000000      1.00000000      1.00000000      1.00000000      1.00000000      1.00000000      1.00000000      1.00000000      1.00000000      1.00000000
      1.00000000      1.00000000      1.00000000      1.00000000      1.00000000      1.00000000      1.00000000      1.00000000      1.00000000      1.00000000      1.00000000      1.00000000      1.00000000      1.00000000      1.00000000      1.00000000      1.00000000      1.00000000      1.00000000      1.00000000
      1.00000000      1.00000000      1.00000000      1.00000000      1.00000000      1.00000000      1.00000000      1.00000000      1.00000000      1.00000000      1.00000000      1.00000000      1.00000000      1.00000000      1.00000000      1.00000000      1.00000000      1.00000000      1.00000000      1.00000000
      1.00000000      1.00000000      1.00000000      1.00000000      1.00000000      1.00000000      1.00000000      1.00000000      1.00000000      1.00000000      1.00000000      1.00000000      1.00000000      1.00000000      1.00000000      1.00000000      1.00000000      1.00000000      1.00000000      1.00000000
      1.00000000      1.00000000      1.00000000      1.00000000      1.00000000      1.00000000      1.00000000      1.00000000      1.00000000      1.00000000      1.00000000      1.00000000      1.00000000      1.00000000      1.00000000      1.00000000      1.00000000      1.00000000      1.00000000      1.00000000
      1.00000000      1.00000000      1.00000000      1.00000000      1.00000000      1.00000000      1.00000000      1.00000000      1.00000000      1.00000000      1.00000000      1.00000000      1.00000000      1.00000000      1.00000000      1.00000000      1.00000000      1.00000000      1.00000000      1.00000000
      1.00000000      1.00000000      1.00000000      1.00000000      1.00000000      1.00000000      1.00000000      1.00000000      1.00000000      1.00000000      1.00000000      1.00000000      1.00000000      1.00000000      1.00000000      1.00000000      1.00000000      1.00000000      1.00000000      1.00000000
      1.00000000      1.00000000      1.00000000      1.00000000      1.00000000      1.00000000      1.00000000      1.00000000      1.00000000      1.00000000      1.00000000      1.00000000      1.00000000      1.00000000      1.00000000      1.00000000      1.00000000      1.00000000      1.00000000      1.00000000
      1.00000000      1.00000000      1.00000000      1.00000000      1.00000000</v>
    <i name="NUPDOWN">     -1.00000000</i>
    <i type="logical" name="LSORBIT"> F  </i>
    <v name="SAXIS">      0.00000000      0.00000000      1.00000000</v>
    <i type="logical" name="LSPIRAL"> F  </i>
    <v name="QSPIRAL">      0.00000000      0.00000000      0.00000000</v>
    <i type="logical" name="LZEROZ"> F  </i>
   </separator>
   <separator name="electronic exchange-correlation" >
    <i type="logical" name="LASPH"> F  </i>
    <i type="logical" name="LMETAGGA"> F  </i>
   </separator>
   <separator name="electronic convergence" >
    <i type="int" name="NELM">   600</i>
    <i type="int" name="NELMDL">     0</i>
    <i type="int" name="NELMIN">     2</i>
    <i name="ENINI">    500.00000000</i>
    <separator name="electronic convergence detail" >
     <i type="logical" name="LDIAG"> T  </i>
     <i type="logical" name="LSUBROT"> F  </i>
     <i name="WEIMIN">      0.00000000</i>
     <i name="EBREAK">      0.00000003</i>
     <i name="DEPER">      0.30000000</i>
     <i type="int" name="NRMM">     4</i>
     <i name="TIME">      0.40000000</i>
    </separator>
   </separator>
   <separator name="electronic mixer" >
    <i name="AMIX">      0.40000000</i>
    <i name="BMIX">      0.01000000</i>
    <i name="AMIN">      0.01000000</i>
    <i name="AMIX_MAG">      1.60000000</i>
    <i name="BMIX_MAG">      0.01000000</i>
    <separator name="electronic mixer details" >
     <i type="int" name="IMIX">     4</i>
     <i type="logical" name="MIXFIRST"> F  </i>
     <i type="int" name="MAXMIX">   -45</i>
     <i name="WC">    100.00000000</i>
     <i type="int" name="INIMIX">     1</i>
     <i type="int" name="MIXPRE">     1</i>
     <i type="int" name="MREMOVE">     5</i>
    </separator>
   </separator>
   <separator name="electronic dipolcorrection" >
    <i type="logical" name="LDIPOL"> T  </i>
    <i type="logical" name="LMONO"> F  </i>
    <i type="int" name="IDIPOL">     3</i>
    <i name="EPSILON">      1.00000000</i>
    <v name="DIPOL">   -100.00000000   -100.00000000   -100.00000000</v>
    <i name="EFIELD">      0.00000000</i>
   </separator>
  </separator>
  <separator name="grids" >
   <i type="int" name="NGX">   100</i>
   <i type="int" name="NGY">   100</i>
   <i type="int" name="NGZ">   350</i>
   <i type="int" name="NGXF">   200</i>
   <i type="int" name="NGYF">   200</i>
   <i type="int" name="NGZF">   700</i>
   <i type="logical" name="ADDGRID"> F  </i>
  </separator>
  <separator name="ionic" >
   <i type="int" name="NSW">     0</i>
   <i type="int" name="IBRION">    -1</i>
   <i type="int" name="MDALGO">     0</i>
   <i type="int" name="ISIF">     2</i>
   <i name="PSTRESS">      0.00000000</i>
   <i name="EDIFFG">      0.00100000</i>
   <i type="int" name="NFREE">     0</i>
   <i name="POTIM">      0.50000000</i>
   <i name="SMASS">     -3.00000000</i>
   <i name="SCALEE">      1.00000000</i>
  </separator>
  <separator name="ionic md" >
   <i name="TEBEG">      0.00010000</i>
   <i name="TEEND">      0.00010000</i>
   <i type="int" name="NBLOCK">     1</i>
   <i type="int" name="KBLOCK">     1</i>
   <i type="int" name="NPACO">   256</i>
   <i name="APACO">     16.00000000</i>
  </separator>
  <separator name="symmetry" >
   <i type="int" name="ISYM">     0</i>
   <i name="SYMPREC">      0.00001000</i>
  </separator>
  <separator name="dos" >
   <i type="int" name="LORBIT">     0</i>
   <v name="RWIGS">     -1.00000000     -1.00000000     -1.00000000     -1.00000000     -1.00000000</v>
   <i type="int" name="NEDOS">   301</i>
   <i name="EMIN">     10.00000000</i>
   <i name="EMAX">    -10.00000000</i>
   <i name="EFERMI">      0.00000000</i>
  </separator>
  <separator name="writing" >
   <i type="int" name="NWRITE">     2</i>
   <i type="logical" name="LWAVE"> F  </i>
   <i type="logical" name="LDOWNSAMPLE"> F  </i>
   <i type="logical" name="LCHARG"> T  </i>
   <i type="logical" name="LPARD"> F  </i>
   <i type="logical" name="LVTOT"> T  </i>
   <i type="logical" name="LVHAR"> F  </i>
   <i type="logical" name="LELF"> F  </i>
   <i type="logical" name="LOPTICS"> F  </i>
   <v name="STM">      0.00000000      0.00000000      0.00000000      0.00000000      0.00000000      0.00000000      0.00000000</v>
  </separator>
  <separator name="performance" >
   <i type="int" name="NPAR">     4</i>
   <i type="int" name="NSIM">     4</i>
   <i type="int" name="NBLK">    -1</i>
   <i type="logical" name="LPLANE"> T  </i>
   <i type="logical" name="LSCALAPACK"> T  </i>
   <i type="logical" name="LSCAAWARE"> F  </i>
   <i type="logical" name="LSCALU"> F  </i>
   <i type="logical" name="LASYNC"> F  </i>
   <i type="logical" name="LORBITALREAL"> F  </i>
  </separator>
  <separator name="miscellaneous" >
   <i type="int" name="IDIOT">     3</i>
   <i type="int" name="PHON_NSTRUCT">    -1</i>
   <i type="logical" name="LMUSIC"> F  </i>
   <v name="POMASS">      1.00000000     12.01100000     14.00100000    126.90400000    207.20000000</v>
   <v name="DARWINR">      0.00000000      0.00000000      0.00000000      0.00000000      0.00000000</v>
   <v name="DARWINV">      1.00000000      1.00000000      1.00000000      1.00000000      1.00000000</v>
   <i type="logical" name="LCORR"> T  </i>
  </separator>
  <i type="logical" name="GGA_COMPAT"> F  </i>
  <i type="logical" name="LBERRY"> F  </i>
  <i type="int" name="ICORELEVEL">     0</i>
  <i type="logical" name="LDAU"> F  </i>
  <i type="int" name="I_CONSTRAINED_M">     0</i>
  <separator name="electronic exchange-correlation" >
   <i type="string" name="GGA">--</i>
   <i type="int" name="VOSKOWN">     0</i>
   <i type="logical" name="LHFCALC"> F  </i>
   <i type="string" name="PRECFOCK"></i>
   <i type="logical" name="LSYMGRAD"> F  </i>
   <i type="logical" name="LHFONE"> F  </i>
   <i type="logical" name="LRHFCALC"> F  </i>
   <i type="logical" name="LTHOMAS"> F  </i>
   <i type="logical" name="LMODELHF"> F  </i>
   <i type="logical" name="LFOCKACE"> F  </i>
   <i name="ENCUT4O">     -1.00000000</i>
   <i type="int" name="EXXOEP">     0</i>
   <i type="int" name="FOURORBIT">     0</i>
   <i name="AEXX">      0.00000000</i>
   <i name="HFALPHA">      0.00000000</i>
   <i name="MCALPHA">      0.00000000</i>
   <i name="ALDAX">      1.00000000</i>
   <i name="AGGAX">      1.00000000</i>
   <i name="ALDAC">      1.00000000</i>
   <i name="AGGAC">      1.00000000</i>
   <i type="int" name="NKREDX">     1</i>
   <i type="int" name="NKREDY">     1</i>
   <i type="int" name="NKREDZ">     1</i>
   <i type="logical" name="SHIFTRED"> F  </i>
   <i type="logical" name="ODDONLY"> F  </i>
   <i type="logical" name="EVENONLY"> F  </i>
   <i type="int" name="LMAXFOCK">     0</i>
   <i type="int" name="NMAXFOCKAE">     0</i>
   <i type="logical" name="LFOCKAEDFT"> F  </i>
   <i name="HFSCREEN">      0.00000000</i>
   <i name="HFSCREENC">      0.00000000</i>
   <i type="int" name="NBANDSGWLOW">     0</i>
  </separator>
  <separator name="vdW DFT" >
   <i type="logical" name="LUSE_VDW"> F  </i>
   <i name="Zab_VDW">     -0.84910000</i>
   <i name="PARAM1">      0.12340000</i>
   <i name="PARAM2">      1.00000000</i>
   <i name="PARAM3">      0.00000000</i>
  </separator>
  <separator name="model GW" >
   <i type="int" name="MODEL_GW">     0</i>
   <i name="MODEL_EPS0">     37.63423484</i>
   <i name="MODEL_ALPHA">      1.00000000</i>
  </separator>
  <separator name="linear response parameters" >
   <i type="logical" name="LEPSILON"> F  </i>
   <i type="logical" name="LRPA"> F  </i>
   <i type="logical" name="LNABLA"> F  </i>
   <i type="logical" name="LVEL"> F  </i>
   <i type="int" name="KINTER">     0</i>
   <i name="CSHIFT">      0.10000000</i>
   <i name="OMEGAMAX">     -1.00000000</i>
   <i name="DEG_THRESHOLD">      0.00200000</i>
   <i name="RTIME">     -0.10000000</i>
   <i name="WPLASMAI">      0.00000000</i>
   <v name="DFIELD">      0.00000000      0.00000000      0.00000000</v>
   <v name="WPLASMA">      0.00000000      0.00000000      0.00000000      0.00000000      0.00000000      0.00000000      0.00000000      0.00000000      0.00000000</v>
  </separator>
  <separator name="orbital magnetization" >
   <i type="logical" name="NUCIND"> F  </i>
   <v name="MAGPOS">      0.00000000      0.00000000      0.00000000</v>
   <i type="logical" name="LNICSALL"> T  </i>
   <i type="logical" name="ORBITALMAG"> F  </i>
   <i type="logical" name="LMAGBLOCH"> F  </i>
   <i type="logical" name="LCHIMAG"> F  </i>
   <i type="logical" name="LGAUGE"> T  </i>
   <i type="int" name="MAGATOM">     0</i>
   <v name="MAGDIPOL">      0.00000000      0.00000000      0.00000000</v>
   <v name="AVECCONST">      0.00000000      0.00000000      0.00000000</v>
  </separator>
  <separator name="response functions" >
   <i type="logical" name="LFINITE_TEMPERATURE"> F  </i>
   <i type="logical" name="LADDER"> F  </i>
   <i type="logical" name="LRPAFORCE"> F  </i>
   <i type="logical" name="LFXC"> F  </i>
   <i type="logical" name="LHARTREE"> T  </i>
   <i type="int" name="IBSE">     0</i>
   <v type="int" name="KPOINT">    -1     0     0     0</v>
   <i type="logical" name="LTCTC"> F  </i>
   <i type="logical" name="LTCTE"> F  </i>
   <i type="logical" name="LTETE"> F  </i>
   <i type="logical" name="LTRIPLET"> F  </i>
   <i type="logical" name="LFXCEPS"> F  </i>
   <i type="logical" name="LFXHEG"> F  </i>
   <i type="int" name="NATURALO">     2</i>
   <i type="logical" name="LHOLEGF"> F  </i>
   <i type="logical" name="L2ORDER"> F  </i>
   <i type="logical" name="LDMP1"> F  </i>
   <i type="logical" name="LMP2LT"> F  </i>
   <i type="logical" name="LSMP2LT"> F  </i>
   <i type="logical" name="LGWLF"> F  </i>
   <i name="ENCUTGW">     -2.00000000</i>
   <i name="ENCUTGWSOFT">     -2.00000000</i>
   <i name="ENCUTLF">     -1.00000000</i>
   <i type="logical" name="LESF_SPLINES"> F  </i>
   <i type="int" name="LMAXMP2">    -1</i>
   <i name="SCISSOR">      0.00000000</i>
   <i type="int" name="NOMEGA">     0</i>
   <i type="int" name="NOMEGAR">     0</i>
   <i type="int" name="NBANDSGW">    -1</i>
   <i type="int" name="NBANDSO">    -1</i>
   <i type="int" name="NBANDSV">    -1</i>
   <i type="int" name="NELM">   600</i>
   <i type="int" name="NELMHF">     1</i>
   <i type="int" name="DIM">     3</i>
   <i type="int" name="IESPILON">     4</i>
   <i type="int" name="ANTIRES">     0</i>
   <i name="OMEGAMAX">    -30.00000000</i>
   <i name="OMEGAMIN">    -30.00000000</i>
   <i name="OMEGATL">   -200.00000000</i>
   <i type="int" name="OMEGAGRID">     0</i>
   <i name="CSHIFT">     -0.10000000</i>
   <i type="logical" name="LSELFENERGY"> F  </i>
   <i type="logical" name="LSPECTRAL"> F  </i>
   <i type="logical" name="LSPECTRALGW"> F  </i>
   <i type="logical" name="LSINGLES"> F  </i>
   <i type="logical" name="LFERMIGW"> F  </i>
   <i type="logical" name="ODDONLYGW"> F  </i>
   <i type="logical" name="EVENONLYGW"> F  </i>
   <i type="int" name="NKREDLFX">     1</i>
   <i type="int" name="NKREDLFY">     1</i>
   <i type="int" name="NKREDLFZ">     1</i>
   <i type="int" name="MAXMEM">  2800</i>
   <i type="int" name="TELESCOPE">     0</i>
   <i type="int" name="NTAUPAR">    -1</i>
   <i type="int" name="NOMEGAPAR">    -1</i>
   <i name="DAMP_NEWTON">      0.80000001</i>
   <i name="LAMBDA">      1.00000000</i>
  </separator>
  <separator name="External order field" >
   <i name="OFIELD_KAPPA">      0.00000000</i>
   <v name="OFIELD_K">      0.00000000      0.00000000      0.00000000</v>
   <i name="OFIELD_Q6_NEAR">      0.00000000</i>
   <i name="OFIELD_Q6_FAR">      0.00000000</i>
   <i name="OFIELD_A">      0.00000000</i>
  </separator>
 </parameters>
 <atominfo>
  <atoms>     325 </atoms>
  <types>       5 </types>
  <array name="atoms" >
   <dimension dim="1">ion</dimension>
   <field type="string">element</field>
   <field type="int">atomtype</field>
   <set>
    <rc><c>H </c><c>   1</c></rc>
    <rc><c>H </c><c>   1</c></rc>
    <rc><c>H </c><c>   1</c></rc>
    <rc><c>H </c><c>   1</c></rc>
    <rc><c>H </c><c>   1</c></rc>
    <rc><c>H </c><c>   1</c></rc>
    <rc><c>H </c><c>   1</c></rc>
    <rc><c>H </c><c>   1</c></rc>
    <rc><c>H </c><c>   1</c></rc>
    <rc><c>H </c><c>   1</c></rc>
    <rc><c>H </c><c>   1</c></rc>
    <rc><c>H </c><c>   1</c></rc>
    <rc><c>H </c><c>   1</c></rc>
    <rc><c>H </c><c>   1</c></rc>
    <rc><c>H </c><c>   1</c></rc>
    <rc><c>H </c><c>   1</c></rc>
    <rc><c>H </c><c>   1</c></rc>
    <rc><c>H </c><c>   1</c></rc>
    <rc><c>H </c><c>   1</c></rc>
    <rc><c>H </c><c>   1</c></rc>
    <rc><c>H </c><c>   1</c></rc>
    <rc><c>H </c><c>   1</c></rc>
    <rc><c>H </c><c>   1</c></rc>
    <rc><c>H </c><c>   1</c></rc>
    <rc><c>H </c><c>   1</c></rc>
    <rc><c>H </c><c>   1</c></rc>
    <rc><c>H </c><c>   1</c></rc>
    <rc><c>H </c><c>   1</c></rc>
    <rc><c>H </c><c>   1</c></rc>
    <rc><c>H </c><c>   1</c></rc>
    <rc><c>H </c><c>   1</c></rc>
    <rc><c>H </c><c>   1</c></rc>
    <rc><c>H </c><c>   1</c></rc>
    <rc><c>H </c><c>   1</c></rc>
    <rc><c>H </c><c>   1</c></rc>
    <rc><c>H </c><c>   1</c></rc>
    <rc><c>H </c><c>   1</c></rc>
    <rc><c>H </c><c>   1</c></rc>
    <rc><c>H </c><c>   1</c></rc>
    <rc><c>H </c><c>   1</c></rc>
    <rc><c>H </c><c>   1</c></rc>
    <rc><c>H </c><c>   1</c></rc>
    <rc><c>H </c><c>   1</c></rc>
    <rc><c>H </c><c>   1</c></rc>
    <rc><c>H </c><c>   1</c></rc>
    <rc><c>H </c><c>   1</c></rc>
    <rc><c>H </c><c>   1</c></rc>
    <rc><c>H </c><c>   1</c></rc>
    <rc><c>H </c><c>   1</c></rc>
    <rc><c>H </c><c>   1</c></rc>
    <rc><c>H </c><c>   1</c></rc>
    <rc><c>H </c><c>   1</c></rc>
    <rc><c>H </c><c>   1</c></rc>
    <rc><c>H </c><c>   1</c></rc>
    <rc><c>H </c><c>   1</c></rc>
    <rc><c>H </c><c>   1</c></rc>
    <rc><c>H </c><c>   1</c></rc>
    <rc><c>H </c><c>   1</c></rc>
    <rc><c>H </c><c>   1</c></rc>
    <rc><c>H </c><c>   1</c></rc>
    <rc><c>H </c><c>   1</c></rc>
    <rc><c>H </c><c>   1</c></rc>
    <rc><c>H </c><c>   1</c></rc>
    <rc><c>H </c><c>   1</c></rc>
    <rc><c>H </c><c>   1</c></rc>
    <rc><c>H </c><c>   1</c></rc>
    <rc><c>H </c><c>   1</c></rc>
    <rc><c>H </c><c>   1</c></rc>
    <rc><c>H </c><c>   1</c></rc>
    <rc><c>H </c><c>   1</c></rc>
    <rc><c>H </c><c>   1</c></rc>
    <rc><c>H </c><c>   1</c></rc>
    <rc><c>H </c><c>   1</c></rc>
    <rc><c>H </c><c>   1</c></rc>
    <rc><c>H </c><c>   1</c></rc>
    <rc><c>H </c><c>   1</c></rc>
    <rc><c>H </c><c>   1</c></rc>
    <rc><c>H </c><c>   1</c></rc>
    <rc><c>H </c><c>   1</c></rc>
    <rc><c>H </c><c>   1</c></rc>
    <rc><c>H </c><c>   1</c></rc>
    <rc><c>H </c><c>   1</c></rc>
    <rc><c>H </c><c>   1</c></rc>
    <rc><c>H </c><c>   1</c></rc>
    <rc><c>H </c><c>   1</c></rc>
    <rc><c>H </c><c>   1</c></rc>
    <rc><c>H </c><c>   1</c></rc>
    <rc><c>H </c><c>   1</c></rc>
    <rc><c>H </c><c>   1</c></rc>
    <rc><c>H </c><c>   1</c></rc>
    <rc><c>H </c><c>   1</c></rc>
    <rc><c>H </c><c>   1</c></rc>
    <rc><c>H </c><c>   1</c></rc>
    <rc><c>H </c><c>   1</c></rc>
    <rc><c>H </c><c>   1</c></rc>
    <rc><c>H </c><c>   1</c></rc>
    <rc><c>H </c><c>   1</c></rc>
    <rc><c>H </c><c>   1</c></rc>
    <rc><c>H </c><c>   1</c></rc>
    <rc><c>H </c><c>   1</c></rc>
    <rc><c>H </c><c>   1</c></rc>
    <rc><c>H </c><c>   1</c></rc>
    <rc><c>H </c><c>   1</c></rc>
    <rc><c>H </c><c>   1</c></rc>
    <rc><c>H </c><c>   1</c></rc>
    <rc><c>H </c><c>   1</c></rc>
    <rc><c>H </c><c>   1</c></rc>
    <rc><c>H </c><c>   1</c></rc>
    <rc><c>H </c><c>   1</c></rc>
    <rc><c>H </c><c>   1</c></rc>
    <rc><c>H </c><c>   1</c></rc>
    <rc><c>H </c><c>   1</c></rc>
    <rc><c>H </c><c>   1</c></rc>
    <rc><c>H </c><c>   1</c></rc>
    <rc><c>H </c><c>   1</c></rc>
    <rc><c>H </c><c>   1</c></rc>
    <rc><c>H </c><c>   1</c></rc>
    <rc><c>H </c><c>   1</c></rc>
    <rc><c>H </c><c>   1</c></rc>
    <rc><c>H </c><c>   1</c></rc>
    <rc><c>H </c><c>   1</c></rc>
    <rc><c>H </c><c>   1</c></rc>
    <rc><c>H </c><c>   1</c></rc>
    <rc><c>H </c><c>   1</c></rc>
    <rc><c>H </c><c>   1</c></rc>
    <rc><c>H </c><c>   1</c></rc>
    <rc><c>H </c><c>   1</c></rc>
    <rc><c>H </c><c>   1</c></rc>
    <rc><c>H </c><c>   1</c></rc>
    <rc><c>H </c><c>   1</c></rc>
    <rc><c>H </c><c>   1</c></rc>
    <rc><c>H </c><c>   1</c></rc>
    <rc><c>H </c><c>   1</c></rc>
    <rc><c>H </c><c>   1</c></rc>
    <rc><c>H </c><c>   1</c></rc>
    <rc><c>H </c><c>   1</c></rc>
    <rc><c>H </c><c>   1</c></rc>
    <rc><c>H </c><c>   1</c></rc>
    <rc><c>H </c><c>   1</c></rc>
    <rc><c>H </c><c>   1</c></rc>
    <rc><c>H </c><c>   1</c></rc>
    <rc><c>H </c><c>   1</c></rc>
    <rc><c>H </c><c>   1</c></rc>
    <rc><c>C </c><c>   2</c></rc>
    <rc><c>C </c><c>   2</c></rc>
    <rc><c>C </c><c>   2</c></rc>
    <rc><c>C </c><c>   2</c></rc>
    <rc><c>C </c><c>   2</c></rc>
    <rc><c>C </c><c>   2</c></rc>
    <rc><c>C </c><c>   2</c></rc>
    <rc><c>C </c><c>   2</c></rc>
    <rc><c>C </c><c>   2</c></rc>
    <rc><c>C </c><c>   2</c></rc>
    <rc><c>C </c><c>   2</c></rc>
    <rc><c>C </c><c>   2</c></rc>
    <rc><c>C </c><c>   2</c></rc>
    <rc><c>C </c><c>   2</c></rc>
    <rc><c>C </c><c>   2</c></rc>
    <rc><c>C </c><c>   2</c></rc>
    <rc><c>C </c><c>   2</c></rc>
    <rc><c>C </c><c>   2</c></rc>
    <rc><c>C </c><c>   2</c></rc>
    <rc><c>C </c><c>   2</c></rc>
    <rc><c>C </c><c>   2</c></rc>
    <rc><c>C </c><c>   2</c></rc>
    <rc><c>C </c><c>   2</c></rc>
    <rc><c>C </c><c>   2</c></rc>
    <rc><c>C </c><c>   2</c></rc>
    <rc><c>C </c><c>   2</c></rc>
    <rc><c>C </c><c>   2</c></rc>
    <rc><c>C </c><c>   2</c></rc>
    <rc><c>C </c><c>   2</c></rc>
    <rc><c>C </c><c>   2</c></rc>
    <rc><c>C </c><c>   2</c></rc>
    <rc><c>C </c><c>   2</c></rc>
    <rc><c>C </c><c>   2</c></rc>
    <rc><c>C </c><c>   2</c></rc>
    <rc><c>C </c><c>   2</c></rc>
    <rc><c>C </c><c>   2</c></rc>
    <rc><c>C </c><c>   2</c></rc>
    <rc><c>C </c><c>   2</c></rc>
    <rc><c>C </c><c>   2</c></rc>
    <rc><c>N </c><c>   3</c></rc>
    <rc><c>N </c><c>   3</c></rc>
    <rc><c>N </c><c>   3</c></rc>
    <rc><c>N </c><c>   3</c></rc>
    <rc><c>N </c><c>   3</c></rc>
    <rc><c>N </c><c>   3</c></rc>
    <rc><c>N </c><c>   3</c></rc>
    <rc><c>N </c><c>   3</c></rc>
    <rc><c>N </c><c>   3</c></rc>
    <rc><c>N </c><c>   3</c></rc>
    <rc><c>N </c><c>   3</c></rc>
    <rc><c>N </c><c>   3</c></rc>
    <rc><c>N </c><c>   3</c></rc>
    <rc><c>N </c><c>   3</c></rc>
    <rc><c>N </c><c>   3</c></rc>
    <rc><c>N </c><c>   3</c></rc>
    <rc><c>N </c><c>   3</c></rc>
    <rc><c>N </c><c>   3</c></rc>
    <rc><c>N </c><c>   3</c></rc>
    <rc><c>N </c><c>   3</c></rc>
    <rc><c>N </c><c>   3</c></rc>
    <rc><c>N </c><c>   3</c></rc>
    <rc><c>N </c><c>   3</c></rc>
    <rc><c>N </c><c>   3</c></rc>
    <rc><c>N </c><c>   3</c></rc>
    <rc><c>N </c><c>   3</c></rc>
    <rc><c>N </c><c>   3</c></rc>
    <rc><c>N </c><c>   3</c></rc>
    <rc><c>N </c><c>   3</c></rc>
    <rc><c>N </c><c>   3</c></rc>
    <rc><c>N </c><c>   3</c></rc>
    <rc><c>N </c><c>   3</c></rc>
    <rc><c>N </c><c>   3</c></rc>
    <rc><c>N </c><c>   3</c></rc>
    <rc><c>N </c><c>   3</c></rc>
    <rc><c>N </c><c>   3</c></rc>
    <rc><c>N </c><c>   3</c></rc>
    <rc><c>N </c><c>   3</c></rc>
    <rc><c>N </c><c>   3</c></rc>
    <rc><c>N </c><c>   3</c></rc>
    <rc><c>N </c><c>   3</c></rc>
    <rc><c>N </c><c>   3</c></rc>
    <rc><c>N </c><c>   3</c></rc>
    <rc><c>N </c><c>   3</c></rc>
    <rc><c>N </c><c>   3</c></rc>
    <rc><c>N </c><c>   3</c></rc>
    <rc><c>N </c><c>   3</c></rc>
    <rc><c>I </c><c>   4</c></rc>
    <rc><c>I </c><c>   4</c></rc>
    <rc><c>I </c><c>   4</c></rc>
    <rc><c>I </c><c>   4</c></rc>
    <rc><c>I </c><c>   4</c></rc>
    <rc><c>I </c><c>   4</c></rc>
    <rc><c>I </c><c>   4</c></rc>
    <rc><c>I </c><c>   4</c></rc>
    <rc><c>I </c><c>   4</c></rc>
    <rc><c>I </c><c>   4</c></rc>
    <rc><c>I </c><c>   4</c></rc>
    <rc><c>I </c><c>   4</c></rc>
    <rc><c>I </c><c>   4</c></rc>
    <rc><c>I </c><c>   4</c></rc>
    <rc><c>I </c><c>   4</c></rc>
    <rc><c>I </c><c>   4</c></rc>
    <rc><c>I </c><c>   4</c></rc>
    <rc><c>I </c><c>   4</c></rc>
    <rc><c>I </c><c>   4</c></rc>
    <rc><c>I </c><c>   4</c></rc>
    <rc><c>I </c><c>   4</c></rc>
    <rc><c>I </c><c>   4</c></rc>
    <rc><c>I </c><c>   4</c></rc>
    <rc><c>I </c><c>   4</c></rc>
    <rc><c>I </c><c>   4</c></rc>
    <rc><c>I </c><c>   4</c></rc>
    <rc><c>I </c><c>   4</c></rc>
    <rc><c>I </c><c>   4</c></rc>
    <rc><c>I </c><c>   4</c></rc>
    <rc><c>I </c><c>   4</c></rc>
    <rc><c>I </c><c>   4</c></rc>
    <rc><c>I </c><c>   4</c></rc>
    <rc><c>I </c><c>   4</c></rc>
    <rc><c>I </c><c>   4</c></rc>
    <rc><c>I </c><c>   4</c></rc>
    <rc><c>I </c><c>   4</c></rc>
    <rc><c>I </c><c>   4</c></rc>
    <rc><c>I </c><c>   4</c></rc>
    <rc><c>I </c><c>   4</c></rc>
    <rc><c>I </c><c>   4</c></rc>
    <rc><c>I </c><c>   4</c></rc>
    <rc><c>I </c><c>   4</c></rc>
    <rc><c>I </c><c>   4</c></rc>
    <rc><c>I </c><c>   4</c></rc>
    <rc><c>I </c><c>   4</c></rc>
    <rc><c>I </c><c>   4</c></rc>
    <rc><c>I </c><c>   4</c></rc>
    <rc><c>I </c><c>   4</c></rc>
    <rc><c>I </c><c>   4</c></rc>
    <rc><c>I </c><c>   4</c></rc>
    <rc><c>I </c><c>   4</c></rc>
    <rc><c>I </c><c>   4</c></rc>
    <rc><c>I </c><c>   4</c></rc>
    <rc><c>I </c><c>   4</c></rc>
    <rc><c>I </c><c>   4</c></rc>
    <rc><c>I </c><c>   4</c></rc>
    <rc><c>I </c><c>   4</c></rc>
    <rc><c>I </c><c>   4</c></rc>
    <rc><c>I </c><c>   4</c></rc>
    <rc><c>I </c><c>   4</c></rc>
    <rc><c>I </c><c>   4</c></rc>
    <rc><c>I </c><c>   4</c></rc>
    <rc><c>I </c><c>   4</c></rc>
    <rc><c>I </c><c>   4</c></rc>
    <rc><c>I </c><c>   4</c></rc>
    <rc><c>I </c><c>   4</c></rc>
    <rc><c>I </c><c>   4</c></rc>
    <rc><c>I </c><c>   4</c></rc>
    <rc><c>I </c><c>   4</c></rc>
    <rc><c>I </c><c>   4</c></rc>
    <rc><c>I </c><c>   4</c></rc>
    <rc><c>I </c><c>   4</c></rc>
    <rc><c>Pb</c><c>   5</c></rc>
    <rc><c>Pb</c><c>   5</c></rc>
    <rc><c>Pb</c><c>   5</c></rc>
    <rc><c>Pb</c><c>   5</c></rc>
    <rc><c>Pb</c><c>   5</c></rc>
    <rc><c>Pb</c><c>   5</c></rc>
    <rc><c>Pb</c><c>   5</c></rc>
    <rc><c>Pb</c><c>   5</c></rc>
    <rc><c>Pb</c><c>   5</c></rc>
    <rc><c>Pb</c><c>   5</c></rc>
    <rc><c>Pb</c><c>   5</c></rc>
    <rc><c>Pb</c><c>   5</c></rc>
    <rc><c>Pb</c><c>   5</c></rc>
    <rc><c>Pb</c><c>   5</c></rc>
    <rc><c>Pb</c><c>   5</c></rc>
    <rc><c>Pb</c><c>   5</c></rc>
    <rc><c>Pb</c><c>   5</c></rc>
    <rc><c>Pb</c><c>   5</c></rc>
    <rc><c>Pb</c><c>   5</c></rc>
    <rc><c>Pb</c><c>   5</c></rc>
    <rc><c>Pb</c><c>   5</c></rc>
    <rc><c>Pb</c><c>   5</c></rc>
    <rc><c>Pb</c><c>   5</c></rc>
    <rc><c>Pb</c><c>   5</c></rc>
   </set>
  </array>
  <array name="atomtypes" >
   <dimension dim="1">type</dimension>
   <field type="int">atomspertype</field>
   <field type="string">element</field>
   <field>mass</field>
   <field>valence</field>
   <field type="string">pseudopotential</field>
   <set>
    <rc><c> 143</c><c>H </c><c>      1.00000000</c><c>      1.00000000</c><c>  PAW_PBE H 15Jun2001                   </c></rc>
    <rc><c>  39</c><c>C </c><c>     12.01100000</c><c>      4.00000000</c><c>  PAW_PBE C 08Apr2002                   </c></rc>
    <rc><c>  47</c><c>N </c><c>     14.00100000</c><c>      5.00000000</c><c>  PAW_PBE N 08Apr2002                   </c></rc>
    <rc><c>  72</c><c>I </c><c>    126.90400000</c><c>      7.00000000</c><c>  PAW_PBE I 08Apr2002                   </c></rc>
    <rc><c>  24</c><c>Pb</c><c>    207.20000000</c><c>      4.00000000</c><c>  PAW_PBE Pb 08Apr2002                  </c></rc>
   </set>
  </array>
 </atominfo>
 <structure name="initialpos" >
  <crystal>
   <varray name="basis" >
    <v>      18.06080055       0.00000000       0.00000000 </v>
    <v>      -0.00491865      18.06279945       0.00000000 </v>
    <v>       0.00000000       0.00000000      62.48749924 </v>
   </varray>
   <i name="volume">  20385.21054034 </i>
   <varray name="rec_basis" >
    <v>       0.05536853       0.00001508      -0.00000000 </v>
    <v>       0.00000000       0.05536240       0.00000000 </v>
    <v>       0.00000000      -0.00000000       0.01600320 </v>
   </varray>
  </crystal>
  <varray name="positions" >
   <v>       0.45359139       0.30364933       0.58184044 </v>
   <v>       0.44622997       0.80668100       0.58192022 </v>
   <v>       0.95279475       0.29998997       0.58099584 </v>
   <v>       0.95676222       0.80651448       0.58280407 </v>
   <v>       0.30458232       0.05159294       0.58004009 </v>
   <v>       0.30170821       0.54751154       0.58185258 </v>
   <v>       0.79442842       0.05124125       0.58089200 </v>
   <v>       0.08099138       0.16494313       0.55834239 </v>
   <v>       0.07992592       0.66829685       0.55792849 </v>
   <v>       0.58482444       0.17306720       0.55696485 </v>
   <v>       0.57452320       0.67153150       0.55830747 </v>
   <v>       0.33376089       0.07910374       0.55460971 </v>
   <v>       0.32908692       0.58189219       0.55695905 </v>
   <v>       0.82712772       0.08060827       0.55599841 </v>
   <v>       0.04669304       0.19746729       0.58173867 </v>
   <v>       0.05406180       0.70398936       0.58279564 </v>
   <v>       0.55686601       0.20714420       0.58183195 </v>
   <v>       0.54656645       0.70074299       0.58370873 </v>
   <v>       0.20555711       0.44544725       0.58185014 </v>
   <v>       0.20266334       0.95546989       0.58175680 </v>
   <v>       0.69827773       0.94917660       0.58089042 </v>
   <v>       0.42081011       0.32577099       0.55697902 </v>
   <v>       0.42347070       0.83379135       0.55654711 </v>
   <v>       0.92681297       0.32709737       0.55463462 </v>
   <v>       0.92204289       0.83388401       0.55698341 </v>
   <v>       0.17285881       0.41608214       0.55695753 </v>
   <v>       0.16816255       0.92294756       0.55740098 </v>
   <v>       0.67089987       0.91479811       0.55599786 </v>
   <v>       0.50086140       0.25076596       0.53850425 </v>
   <v>       0.50246628       0.75069088       0.53948248 </v>
   <v>       0.00571202       0.24409957       0.53852928 </v>
   <v>       0.00077488       0.75089115       0.53946789 </v>
   <v>       0.24749312       0.49903824       0.53947869 </v>
   <v>       0.25080108       0.00087503       0.53849693 </v>
   <v>       0.74927008       0.99423372       0.53851854 </v>
   <v>       0.44527523       0.30085332       0.67512057 </v>
   <v>       0.44935400       0.79765402       0.67509175 </v>
   <v>       0.94533069       0.30165970       0.67330819 </v>
   <v>       0.94903642       0.80138381       0.67514578 </v>
   <v>       0.30477950       0.05156417       0.67419283 </v>
   <v>       0.30087830       0.55169365       0.67510237 </v>
   <v>       0.80170190       0.05417766       0.67510634 </v>
   <v>       0.80089531       0.55472165       0.67510610 </v>
   <v>       0.07832236       0.17619635       0.65019902 </v>
   <v>       0.07255709       0.66822151       0.64981015 </v>
   <v>       0.58175959       0.17743225       0.64981308 </v>
   <v>       0.58366376       0.67094566       0.64651212 </v>
   <v>       0.16943320       0.42285588       0.64979360 </v>
   <v>       0.16831539       0.92287705       0.65113909 </v>
   <v>       0.67418762       0.41481827       0.64979726 </v>
   <v>       0.67280815       0.92279009       0.64979665 </v>
   <v>       0.05063370       0.20233331       0.67508559 </v>
   <v>       0.04827361       0.69581865       0.67418764 </v>
   <v>       0.55408171       0.20163181       0.67515030 </v>
   <v>       0.55465720       0.69832734       0.67331643 </v>
   <v>       0.19193606       0.44913786       0.67510183 </v>
   <v>       0.19602741       0.94900273       0.67602572 </v>
   <v>       0.69829766       0.44582021       0.67510549 </v>
   <v>       0.69910410       0.94527645       0.67510500 </v>
   <v>       0.42279825       0.32714505       0.64981363 </v>
   <v>       0.42166801       0.82378941       0.65020616 </v>
   <v>       0.91632653       0.32904017       0.64650492 </v>
   <v>       0.92286270       0.82719824       0.64980960 </v>
   <v>       0.32708047       0.07259472       0.64846295 </v>
   <v>       0.32847595       0.57256532       0.64979409 </v>
   <v>       0.82258947       0.08176317       0.64979818 </v>
   <v>       0.83051800       0.58053191       0.64883852 </v>
   <v>       0.99916926       0.25088064       0.63107959 </v>
   <v>       0.99410254       0.74431435       0.63208663 </v>
   <v>       0.50577071       0.25600030       0.63113081 </v>
   <v>       0.50081896       0.74910859       0.63108680 </v>
   <v>       0.24750833       0.99755947       0.63202174 </v>
   <v>       0.25234870       0.49410493       0.63207216 </v>
   <v>       0.74409439       0.00567522       0.63207576 </v>
   <v>       0.75590592       0.49432778       0.63207589 </v>
   <v>       0.44874502       0.30128397       0.76888902 </v>
   <v>       0.44874501       0.80128391       0.76888902 </v>
   <v>       0.94874497       0.30128397       0.76888902 </v>
   <v>       0.94874501       0.80128391       0.76888902 </v>
   <v>       0.30127600       0.05129450       0.76887296 </v>
   <v>       0.30127601       0.55129450       0.76887296 </v>
   <v>       0.80127594       0.05129450       0.76887296 </v>
   <v>       0.80127598       0.55129450       0.76887296 </v>
   <v>       0.07877100       0.17118050       0.74344197 </v>
   <v>       0.07877101       0.67118045       0.74344197 </v>
   <v>       0.57877100       0.17118050       0.74344197 </v>
   <v>       0.57877099       0.67118045       0.74344197 </v>
   <v>       0.17119950       0.42117448       0.74342103 </v>
   <v>       0.17119950       0.92117451       0.74342103 </v>
   <v>       0.67119951       0.42117448       0.74342103 </v>
   <v>       0.67119950       0.92117451       0.74342103 </v>
   <v>       0.05125600       0.19871499       0.76888902 </v>
   <v>       0.05125600       0.69871493       0.76888902 </v>
   <v>       0.55125603       0.19871499       0.76888902 </v>
   <v>       0.55125602       0.69871493       0.76888902 </v>
   <v>       0.19872349       0.44870397       0.76887205 </v>
   <v>       0.19872349       0.94870397       0.76887205 </v>
   <v>       0.69872352       0.44870397       0.76887205 </v>
   <v>       0.69872351       0.94870397       0.76887205 </v>
   <v>       0.42123152       0.32881747       0.74344197 </v>
   <v>       0.42123151       0.82881744       0.74344197 </v>
   <v>       0.92123147       0.32881747       0.74344197 </v>
   <v>       0.92123151       0.82881744       0.74344197 </v>
   <v>       0.32880050       0.07882500       0.74342103 </v>
   <v>       0.32880049       0.57882496       0.74342103 </v>
   <v>       0.82880048       0.07882500       0.74342103 </v>
   <v>       0.82880052       0.57882496       0.74342103 </v>
   <v>       0.00000350       0.25000148       0.72582199 </v>
   <v>       0.00000350       0.75000145       0.72582199 </v>
   <v>       0.50000351       0.25000148       0.72582199 </v>
   <v>       0.50000350       0.75000145       0.72582199 </v>
   <v>       0.25000050       0.00000000       0.72580398 </v>
   <v>       0.25000052       0.50000000       0.72580398 </v>
   <v>       0.75000050       0.00000000       0.72580398 </v>
   <v>       0.75000049       0.50000000       0.72580398 </v>
   <v>       0.79508969       0.57596116       0.53443947 </v>
   <v>       0.74275384       0.48916026       0.53245745 </v>
   <v>       0.87463619       0.50874985       0.55777892 </v>
   <v>       0.84442869       0.48542931       0.58300803 </v>
   <v>       0.74384062       0.64090223       0.57330925 </v>
   <v>       0.79620785       0.58969126       0.59059188 </v>
   <v>       0.66497097       0.54586177       0.57533431 </v>
   <v>       0.67894973       0.45618208       0.56531772 </v>
   <v>       0.62877012       0.55825947       0.54373705 </v>
   <v>       0.68487854       0.64184615       0.54776233 </v>
   <v>       0.63911458       0.66733994       0.51322118 </v>
   <v>       0.71317285       0.61026209       0.50511989 </v>
   <v>       0.81015959       0.40564813       0.54124974 </v>
   <v>       0.76386156       0.38359910       0.56504722 </v>
   <v>       0.85732602       0.37492319       0.56422992 </v>
   <v>       0.86930731       0.68964930       0.57194307 </v>
   <v>       0.85857805       0.64659895       0.54696932 </v>
   <v>       0.90752851       0.60331053       0.56733967 </v>
   <v>       0.76653518       0.50502280       0.60463980 </v>
   <v>       0.73762333       0.41562874       0.59604280 </v>
   <v>       0.67469970       0.47352053       0.60731336 </v>
   <v>       0.55402223       0.55598695       0.51458663 </v>
   <v>       0.59038996       0.57508810       0.48813056 </v>
   <v>       0.71790299       0.49876575       0.47727158 </v>
   <v>       0.58519984       0.44090696       0.53195674 </v>
   <v>       0.77728656       0.37181811       0.47884635 </v>
   <v>       0.64513895       0.32246197       0.53448782 </v>
   <v>       0.74230016       0.28384206       0.50840573 </v>
   <v>       0.00397106       0.24593698       0.55597003 </v>
   <v>       0.00255132       0.75252339       0.55594903 </v>
   <v>       0.49921765       0.25240214       0.55501421 </v>
   <v>       0.49740628       0.75262793       0.55689441 </v>
   <v>       0.25258035       0.50070036       0.55691901 </v>
   <v>       0.25266584       0.00263129       0.55593731 </v>
   <v>       0.74740628       0.99598998       0.55595885 </v>
   <v>       0.99741895       0.25252896       0.64754480 </v>
   <v>       0.99596926       0.74928097       0.64852290 </v>
   <v>       0.50070636       0.25402780       0.64852638 </v>
   <v>       0.50258785       0.74744087       0.64755170 </v>
   <v>       0.24737231       0.49596293       0.64850636 </v>
   <v>       0.24926809       0.99921536       0.64848481 </v>
   <v>       0.75394787       0.49939906       0.64946938 </v>
   <v>       0.74917245       0.00411498       0.64850996 </v>
   <v>       0.49998898       0.24999498       0.74327702 </v>
   <v>       0.49998903       0.74999496       0.74327702 </v>
   <v>       0.99998898       0.24999498       0.74327702 </v>
   <v>       0.99998903       0.74999496       0.74327702 </v>
   <v>       0.25000050       0.00000100       0.74325596 </v>
   <v>       0.25000052       0.50000100       0.74325596 </v>
   <v>       0.75000050       0.00000100       0.74325596 </v>
   <v>       0.75000049       0.50000100       0.74325596 </v>
   <v>       0.64248315       0.47506539       0.50401072 </v>
   <v>       0.69994031       0.45505970       0.49003017 </v>
   <v>       0.62474139       0.42415724       0.51978548 </v>
   <v>       0.73043874       0.38893214       0.49105278 </v>
   <v>       0.65611459       0.35890814       0.52106687 </v>
   <v>       0.71054265       0.33957510       0.50627478 </v>
   <v>       0.74509975       0.54268409       0.54124040 </v>
   <v>       0.82989959       0.48097693       0.56601769 </v>
   <v>       0.79051488       0.60285140       0.57378566 </v>
   <v>       0.70442976       0.50037708       0.57472793 </v>
   <v>       0.68075609       0.58726763       0.53772767 </v>
   <v>       0.65906488       0.61175970       0.51557028 </v>
   <v>       0.81527846       0.40987746       0.55870599 </v>
   <v>       0.86124936       0.63605931       0.56413316 </v>
   <v>       0.72284837       0.46951244       0.59687878 </v>
   <v>       0.60795011       0.55225864       0.50406814 </v>
   <v>       0.04420660       0.20358716       0.56538848 </v>
   <v>       0.04467031       0.70689498       0.56561942 </v>
   <v>       0.55063627       0.20958104       0.56462697 </v>
   <v>       0.54065742       0.70364380       0.56735853 </v>
   <v>       0.45644592       0.29422840       0.56466793 </v>
   <v>       0.45538983       0.79689943       0.56485205 </v>
   <v>       0.95873912       0.29362666       0.56387011 </v>
   <v>       0.95914407       0.80025805       0.56560281 </v>
   <v>       0.20912691       0.45253465       0.56656431 </v>
   <v>       0.20654588       0.95915708       0.56637750 </v>
   <v>       0.70511472       0.95318539       0.56560416 </v>
   <v>       0.29743230       0.04482989       0.56485022 </v>
   <v>       0.29487246       0.54350504       0.56656931 </v>
   <v>       0.79085919       0.04415667       0.56560916 </v>
   <v>       0.04682046       0.20591149       0.65881585 </v>
   <v>       0.04473634       0.69971713       0.65894186 </v>
   <v>       0.55026061       0.20524975       0.65894491 </v>
   <v>       0.54738648       0.70516348       0.65723332 </v>
   <v>       0.20250606       0.45243244       0.65799660 </v>
   <v>       0.19971239       0.95250386       0.65879876 </v>
   <v>       0.70533208       0.44964292       0.65797151 </v>
   <v>       0.70247643       0.95254994       0.65797145 </v>
   <v>       0.45595993       0.29427296       0.65798811 </v>
   <v>       0.45646699       0.79096645       0.65780839 </v>
   <v>       0.95269066       0.29474088       0.65626859 </v>
   <v>       0.95584351       0.79413943       0.65894344 </v>
   <v>       0.29401487       0.04139541       0.65720890 </v>
   <v>       0.29707706       0.54463776       0.65796784 </v>
   <v>       0.79144485       0.04693915       0.65797145 </v>
   <v>       0.79419799       0.54412885       0.65893087 </v>
   <v>       0.04586250       0.20411950       0.75272599 </v>
   <v>       0.04586250       0.70411946       0.75272599 </v>
   <v>       0.54586251       0.20411950       0.75272599 </v>
   <v>       0.54586250       0.70411946       0.75272599 </v>
   <v>       0.20411900       0.45410100       0.75270499 </v>
   <v>       0.20411899       0.95410095       0.75270499 </v>
   <v>       0.70411898       0.45410100       0.75270499 </v>
   <v>       0.70411896       0.95410095       0.75270499 </v>
   <v>       0.45414002       0.29588849       0.75272697 </v>
   <v>       0.45414001       0.79588852       0.75272697 </v>
   <v>       0.95414002       0.29588849       0.75272697 </v>
[...]
   <v>       0.58482444       0.17306720       0.55696485 </v>
   <v>       0.57452320       0.67153150       0.55830747 </v>
   <v>       0.33376089       0.07910374       0.55460971 </v>
   <v>       0.32908692       0.58189219       0.55695905 </v>
   <v>       0.82712772       0.08060827       0.55599841 </v>
   <v>       0.04669304       0.19746729       0.58173867 </v>
   <v>       0.05406180       0.70398936       0.58279564 </v>
   <v>       0.55686601       0.20714420       0.58183195 </v>
   <v>       0.54656645       0.70074299       0.58370873 </v>
   <v>       0.20555711       0.44544725       0.58185014 </v>
   <v>       0.20266334       0.95546989       0.58175680 </v>
   <v>       0.69827773       0.94917660       0.58089042 </v>
   <v>       0.42081011       0.32577099       0.55697902 </v>
   <v>       0.42347070       0.83379135       0.55654711 </v>
   <v>       0.92681297       0.32709737       0.55463462 </v>
   <v>       0.92204289       0.83388401       0.55698341 </v>
   <v>       0.17285881       0.41608214       0.55695753 </v>
   <v>       0.16816255       0.92294756       0.55740098 </v>
   <v>       0.67089987       0.91479811       0.55599786 </v>
   <v>       0.50086140       0.25076596       0.53850425 </v>
   <v>       0.50246628       0.75069088       0.53948248 </v>
   <v>       0.00571202       0.24409957       0.53852928 </v>
   <v>       0.00077488       0.75089115       0.53946789 </v>
   <v>       0.24749312       0.49903824       0.53947869 </v>
   <v>       0.25080108       0.00087503       0.53849693 </v>
   <v>       0.74927008       0.99423372       0.53851854 </v>
   <v>       0.44527523       0.30085332       0.67512057 </v>
   <v>       0.44935400       0.79765402       0.67509175 </v>
   <v>       0.94533069       0.30165970       0.67330819 </v>
   <v>       0.94903642       0.80138381       0.67514578 </v>
   <v>       0.30477950       0.05156417       0.67419283 </v>
   <v>       0.30087830       0.55169365       0.67510237 </v>
   <v>       0.80170190       0.05417766       0.67510634 </v>
   <v>       0.80089531       0.55472165       0.67510610 </v>
   <v>       0.07832236       0.17619635       0.65019902 </v>
   <v>       0.07255709       0.66822151       0.64981015 </v>
   <v>       0.58175959       0.17743225       0.64981308 </v>
   <v>       0.58366376       0.67094566       0.64651212 </v>
   <v>       0.16943320       0.42285588       0.64979360 </v>
   <v>       0.16831539       0.92287705       0.65113909 </v>
   <v>       0.67418762       0.41481827       0.64979726 </v>
   <v>       0.67280815       0.92279009       0.64979665 </v>
   <v>       0.05063370       0.20233331       0.67508559 </v>
   <v>       0.04827361       0.69581865       0.67418764 </v>
   <v>       0.55408171       0.20163181       0.67515030 </v>
   <v>       0.55465720       0.69832734       0.67331643 </v>
   <v>       0.19193606       0.44913786       0.67510183 </v>
   <v>       0.19602741       0.94900273       0.67602572 </v>
   <v>       0.69829766       0.44582021       0.67510549 </v>
   <v>       0.69910410       0.94527645       0.67510500 </v>
   <v>       0.42279825       0.32714505       0.64981363 </v>
   <v>       0.42166801       0.82378941       0.65020616 </v>
   <v>       0.91632653       0.32904017       0.64650492 </v>
   <v>       0.92286270       0.82719824       0.64980960 </v>
   <v>       0.32708047       0.07259472       0.64846295 </v>
   <v>       0.32847595       0.57256532       0.64979409 </v>
   <v>       0.82258947       0.08176317       0.64979818 </v>
   <v>       0.83051800       0.58053191       0.64883852 </v>
   <v>       0.99916926       0.25088064       0.63107959 </v>
   <v>       0.99410254       0.74431435       0.63208663 </v>
   <v>       0.50577071       0.25600030       0.63113081 </v>
   <v>       0.50081896       0.74910859       0.63108680 </v>
   <v>       0.24750833       0.99755947       0.63202174 </v>
   <v>       0.25234870       0.49410493       0.63207216 </v>
   <v>       0.74409439       0.00567522       0.63207576 </v>
   <v>       0.75590592       0.49432778       0.63207589 </v>
   <v>       0.44874502       0.30128397       0.76888902 </v>
   <v>       0.44874501       0.80128391       0.76888902 </v>
   <v>       0.94874497       0.30128397       0.76888902 </v>
   <v>       0.94874501       0.80128391       0.76888902 </v>
   <v>       0.30127600       0.05129450       0.76887296 </v>
   <v>       0.30127601       0.55129450       0.76887296 </v>
   <v>       0.80127594       0.05129450       0.76887296 </v>
   <v>       0.80127598       0.55129450       0.76887296 </v>
   <v>       0.07877100       0.17118050       0.74344197 </v>
   <v>       0.07877101       0.67118045       0.74344197 </v>
   <v>       0.57877100       0.17118050       0.74344197 </v>
   <v>       0.57877099       0.67118045       0.74344197 </v>
   <v>       0.17119950       0.42117448       0.74342103 </v>
   <v>       0.17119950       0.92117451       0.74342103 </v>
   <v>       0.67119951       0.42117448       0.74342103 </v>
   <v>       0.67119950       0.92117451       0.74342103 </v>
   <v>       0.05125600       0.19871499       0.76888902 </v>
   <v>       0.05125600       0.69871493       0.76888902 </v>
   <v>       0.55125603       0.19871499       0.76888902 </v>
   <v>       0.55125602       0.69871493       0.76888902 </v>
   <v>       0.19872349       0.44870397       0.76887205 </v>
   <v>       0.19872349       0.94870397       0.76887205 </v>
   <v>       0.69872352       0.44870397       0.76887205 </v>
   <v>       0.69872351       0.94870397       0.76887205 </v>
   <v>       0.42123152       0.32881747       0.74344197 </v>
   <v>       0.42123151       0.82881744       0.74344197 </v>
   <v>       0.92123147       0.32881747       0.74344197 </v>
   <v>       0.92123151       0.82881744       0.74344197 </v>
   <v>       0.32880050       0.07882500       0.74342103 </v>
   <v>       0.32880049       0.57882496       0.74342103 </v>
   <v>       0.82880048       0.07882500       0.74342103 </v>
   <v>       0.82880052       0.57882496       0.74342103 </v>
   <v>       0.00000350       0.25000148       0.72582199 </v>
   <v>       0.00000350       0.75000145       0.72582199 </v>
   <v>       0.50000351       0.25000148       0.72582199 </v>
   <v>       0.50000350       0.75000145       0.72582199 </v>
   <v>       0.25000050       0.00000000       0.72580398 </v>
   <v>       0.25000052       0.50000000       0.72580398 </v>
   <v>       0.75000050       0.00000000       0.72580398 </v>
   <v>       0.75000049       0.50000000       0.72580398 </v>
   <v>       0.79508969       0.57596116       0.53443947 </v>
   <v>       0.74275384       0.48916026       0.53245745 </v>
   <v>       0.87463619       0.50874985       0.55777892 </v>
   <v>       0.84442869       0.48542931       0.58300803 </v>
   <v>       0.74384062       0.64090223       0.57330925 </v>
   <v>       0.79620785       0.58969126       0.59059188 </v>
   <v>       0.66497097       0.54586177       0.57533431 </v>
   <v>       0.67894973       0.45618208       0.56531772 </v>
   <v>       0.62877012       0.55825947       0.54373705 </v>
   <v>       0.68487854       0.64184615       0.54776233 </v>
   <v>       0.63911458       0.66733994       0.51322118 </v>
   <v>       0.71317285       0.61026209       0.50511989 </v>
   <v>       0.81015959       0.40564813       0.54124974 </v>
   <v>       0.76386156       0.38359910       0.56504722 </v>
   <v>       0.85732602       0.37492319       0.56422992 </v>
   <v>       0.86930731       0.68964930       0.57194307 </v>
   <v>       0.85857805       0.64659895       0.54696932 </v>
   <v>       0.90752851       0.60331053       0.56733967 </v>
   <v>       0.76653518       0.50502280       0.60463980 </v>
   <v>       0.73762333       0.41562874       0.59604280 </v>
   <v>       0.67469970       0.47352053       0.60731336 </v>
   <v>       0.55402223       0.55598695       0.51458663 </v>
   <v>       0.59038996       0.57508810       0.48813056 </v>
   <v>       0.71790299       0.49876575       0.47727158 </v>
   <v>       0.58519984       0.44090696       0.53195674 </v>
   <v>       0.77728656       0.37181811       0.47884635 </v>
   <v>       0.64513895       0.32246197       0.53448782 </v>
   <v>       0.74230016       0.28384206       0.50840573 </v>
   <v>       0.00397106       0.24593698       0.55597003 </v>
   <v>       0.00255132       0.75252339       0.55594903 </v>
   <v>       0.49921765       0.25240214       0.55501421 </v>
   <v>       0.49740628       0.75262793       0.55689441 </v>
   <v>       0.25258035       0.50070036       0.55691901 </v>
   <v>       0.25266584       0.00263129       0.55593731 </v>
   <v>       0.74740628       0.99598998       0.55595885 </v>
   <v>       0.99741895       0.25252896       0.64754480 </v>
   <v>       0.99596926       0.74928097       0.64852290 </v>
   <v>       0.50070636       0.25402780       0.64852638 </v>
   <v>       0.50258785       0.74744087       0.64755170 </v>
   <v>       0.24737231       0.49596293       0.64850636 </v>
   <v>       0.24926809       0.99921536       0.64848481 </v>
   <v>       0.75394787       0.49939906       0.64946938 </v>
   <v>       0.74917245       0.00411498       0.64850996 </v>
   <v>       0.49998898       0.24999498       0.74327702 </v>
   <v>       0.49998903       0.74999496       0.74327702 </v>
   <v>       0.99998898       0.24999498       0.74327702 </v>
   <v>       0.99998903       0.74999496       0.74327702 </v>
   <v>       0.25000050       0.00000100       0.74325596 </v>
   <v>       0.25000052       0.50000100       0.74325596 </v>
   <v>       0.75000050       0.00000100       0.74325596 </v>
   <v>       0.75000049       0.50000100       0.74325596 </v>
   <v>       0.64248315       0.47506539       0.50401072 </v>
   <v>       0.69994031       0.45505970       0.49003017 </v>
   <v>       0.62474139       0.42415724       0.51978548 </v>
   <v>       0.73043874       0.38893214       0.49105278 </v>
   <v>       0.65611459       0.35890814       0.52106687 </v>
   <v>       0.71054265       0.33957510       0.50627478 </v>
   <v>       0.74509975       0.54268409       0.54124040 </v>
   <v>       0.82989959       0.48097693       0.56601769 </v>
   <v>       0.79051488       0.60285140       0.57378566 </v>
   <v>       0.70442976       0.50037708       0.57472793 </v>
   <v>       0.68075609       0.58726763       0.53772767 </v>
   <v>       0.65906488       0.61175970       0.51557028 </v>
   <v>       0.81527846       0.40987746       0.55870599 </v>
   <v>       0.86124936       0.63605931       0.56413316 </v>
   <v>       0.72284837       0.46951244       0.59687878 </v>
   <v>       0.60795011       0.55225864       0.50406814 </v>
   <v>       0.04420660       0.20358716       0.56538848 </v>
   <v>       0.04467031       0.70689498       0.56561942 </v>
   <v>       0.55063627       0.20958104       0.56462697 </v>
   <v>       0.54065742       0.70364380       0.56735853 </v>
   <v>       0.45644592       0.29422840       0.56466793 </v>
   <v>       0.45538983       0.79689943       0.56485205 </v>
   <v>       0.95873912       0.29362666       0.56387011 </v>
   <v>       0.95914407       0.80025805       0.56560281 </v>
   <v>       0.20912691       0.45253465       0.56656431 </v>
   <v>       0.20654588       0.95915708       0.56637750 </v>
   <v>       0.70511472       0.95318539       0.56560416 </v>
   <v>       0.29743230       0.04482989       0.56485022 </v>
   <v>       0.29487246       0.54350504       0.56656931 </v>
   <v>       0.79085919       0.04415667       0.56560916 </v>
   <v>       0.04682046       0.20591149       0.65881585 </v>
   <v>       0.04473634       0.69971713       0.65894186 </v>
   <v>       0.55026061       0.20524975       0.65894491 </v>
   <v>       0.54738648       0.70516348       0.65723332 </v>
   <v>       0.20250606       0.45243244       0.65799660 </v>
   <v>       0.19971239       0.95250386       0.65879876 </v>
   <v>       0.70533208       0.44964292       0.65797151 </v>
   <v>       0.70247643       0.95254994       0.65797145 </v>
   <v>       0.45595993       0.29427296       0.65798811 </v>
   <v>       0.45646699       0.79096645       0.65780839 </v>
   <v>       0.95269066       0.29474088       0.65626859 </v>
   <v>       0.95584351       0.79413943       0.65894344 </v>
   <v>       0.29401487       0.04139541       0.65720890 </v>
   <v>       0.29707706       0.54463776       0.65796784 </v>
   <v>       0.79144485       0.04693915       0.65797145 </v>
   <v>       0.79419799       0.54412885       0.65893087 </v>
   <v>       0.04586250       0.20411950       0.75272599 </v>
   <v>       0.04586250       0.70411946       0.75272599 </v>
   <v>       0.54586251       0.20411950       0.75272599 </v>
   <v>       0.54586250       0.70411946       0.75272599 </v>
   <v>       0.20411900       0.45410100       0.75270499 </v>
   <v>       0.20411899       0.95410095       0.75270499 </v>
   <v>       0.70411898       0.45410100       0.75270499 </v>
   <v>       0.70411896       0.95410095       0.75270499 </v>
   <v>       0.45414002       0.29588849       0.75272697 </v>
   <v>       0.45414001       0.79588852       0.75272697 </v>
   <v>       0.95414002       0.29588849       0.75272697 </v>
   <v>       0.95414006       0.79588852       0.75272697 </v>
   <v>       0.29588249       0.04590050       0.75270499 </v>
   <v>       0.29588248       0.54590053       0.75270499 </v>
   <v>       0.79588244       0.04590050       0.75270499 </v>
   <v>       0.79588248       0.54590053       0.75270499 </v>
   <v>       0.76444233       0.53730643       0.56542785 </v>
   <v>       0.49667701       0.99667826       0.55286418 </v>
   <v>       0.49667881       0.50332171       0.55286418 </v>
   <v>       0.00332121       0.99667826       0.55286418 </v>
   <v>       0.00332121       0.49667829       0.55094387 </v>
   <v>       0.24667979       0.25332177       0.55288219 </v>
   <v>       0.24667797       0.74667826       0.55288219 </v>
   <v>       0.75332218       0.24667823       0.55288219 </v>
   <v>       0.74667986       0.75332169       0.55096188 </v>
   <v>       0.99667699       0.99667826       0.65485614 </v>
   <v>       0.00332121       0.49667829       0.65485614 </v>
   <v>       0.49667701       0.99667826       0.65485614 </v>
   <v>       0.50332117       0.49667829       0.65293583 </v>
   <v>       0.24667876       0.25332171       0.65486920 </v>
   <v>       0.24667702       0.74667826       0.65486920 </v>
   <v>       0.74667882       0.25332177       0.65486920 </v>
   <v>       0.75332297       0.75332169       0.65294890 </v>
   <v>       0.13983599       0.10353775       0.60645785 </v>
   <v>       0.13983599       0.60353777       0.60645785 </v>
   <v>       0.63983604       0.10353775       0.60645785 </v>
   <v>       0.63983784       0.61018120       0.60837815 </v>
   <v>       0.36016353       0.39646326       0.60645785 </v>
   <v>       0.35351746       0.88981964       0.60645785 </v>
   <v>       0.86016166       0.38981972       0.60837815 </v>
   <v>       0.85351749       0.88981964       0.60645785 </v>
   <v>       0.10357379       0.36022175       0.60649283 </v>
   <v>       0.10357199       0.85357824       0.60649283 </v>
   <v>       0.60357197       0.35357822       0.60841313 </v>
   <v>       0.61021612       0.85357824       0.60649283 </v>
   <v>       0.38978197       0.13977926       0.60649283 </v>
   <v>       0.38978195       0.63977923       0.60649283 </v>
   <v>       0.89642632       0.13977926       0.60649283 </v>
   <v>       0.89642817       0.64642265       0.60841313 </v>
   <v>       0.00000000       0.00000000       0.75492797 </v>
   <v>       0.00000000       0.50000000       0.75492797 </v>
   <v>       0.50000000       0.00000000       0.75492797 </v>
   <v>       0.49999999       0.50000000       0.75492797 </v>
   <v>       0.25000050       0.25000000       0.75493902 </v>
   <v>       0.25000051       0.74999997       0.75493902 </v>
   <v>       0.75000047       0.25000000       0.75493902 </v>
   <v>       0.75000046       0.74999997       0.75493902 </v>
   <v>       0.13579050       0.11421000       0.70478299 </v>
   <v>       0.13579050       0.61420998       0.70478299 </v>
   <v>       0.63579045       0.11421000       0.70478299 </v>
   <v>       0.63579049       0.61420998       0.70478299 </v>
   <v>       0.36420952       0.38578999       0.70478299 </v>
   <v>       0.36420950       0.88578996       0.70478299 </v>
   <v>       0.86420954       0.38578999       0.70478299 </v>
   <v>       0.86420953       0.88578996       0.70478299 </v>
   <v>       0.11421799       0.36421899       0.70478098 </v>
   <v>       0.11421799       0.86421899       0.70478098 </v>
   <v>       0.61421800       0.36421899       0.70478098 </v>
   <v>       0.61421799       0.86421899       0.70478098 </v>
   <v>       0.38578201       0.13578149       0.70478202 </v>
   <v>       0.38578200       0.63578149       0.70478202 </v>
   <v>       0.88578199       0.13578149       0.70478202 </v>
   <v>       0.88578203       0.63578149       0.70478202 </v>
   <v>       0.13466700       0.11533200       0.80125603 </v>
   <v>       0.13466699       0.61533199       0.80125603 </v>
   <v>       0.63466699       0.11533200       0.80125603 </v>
   <v>       0.63466698       0.61533199       0.80125603 </v>
   <v>       0.36533300       0.38466799       0.80125603 </v>
   <v>       0.36533299       0.88466796       0.80125603 </v>
   <v>       0.86533295       0.38466799       0.80125603 </v>
   <v>       0.86533294       0.88466796       0.80125603 </v>
   <v>       0.11532850       0.36533700       0.80126500 </v>
   <v>       0.11532850       0.86533698       0.80126500 </v>
   <v>       0.61532850       0.36533700       0.80126500 </v>
   <v>       0.61532849       0.86533698       0.80126500 </v>
   <v>       0.38467151       0.13466300       0.80126500 </v>
   <v>       0.38467150       0.63466297       0.80126500 </v>
   <v>       0.88467149       0.13466300       0.80126500 </v>
   <v>       0.88467153       0.63466297       0.80126500 </v>
   <v>       0.00332352       0.00332274       0.60316715 </v>
   <v>       0.00332171       0.49667929       0.60316715 </v>
   <v>       0.50332346       0.00332274       0.60316715 </v>
   <v>       0.49667748       0.49667929       0.60316715 </v>
   <v>       0.25332122       0.24667770       0.60317515 </v>
   <v>       0.25332305       0.75332121       0.60317515 </v>
   <v>       0.74667701       0.24667770       0.60317515 </v>
   <v>       0.74667881       0.75332121       0.60317515 </v>
   <v>       0.00000050       0.00000050       0.70482896 </v>
   <v>       0.00000050       0.50000048       0.70482896 </v>
   <v>       0.50000048       0.00000050       0.70482896 </v>
   <v>       0.50000046       0.50000048       0.70482896 </v>
   <v>       0.24999999       0.24999947       0.70482499 </v>
   <v>       0.25000001       0.74999950       0.70482499 </v>
   <v>       0.74999999       0.24999947       0.70482499 </v>
   <v>       0.74999998       0.74999950       0.70482499 </v>
   <v>       0.00000000       0.00000000       0.80731797 </v>
   <v>       0.00000000       0.50000000       0.80731797 </v>
   <v>       0.50000000       0.00000000       0.80731797 </v>
   <v>       0.49999999       0.50000000       0.80731797 </v>
   <v>       0.24999999       0.25000000       0.80731797 </v>
   <v>       0.25000001       0.74999997       0.80731797 </v>
   <v>       0.74999999       0.25000000       0.80731797 </v>
   <v>       0.74999998       0.74999997       0.80731797 </v>
  </varray>
 </structure>
</modeling>
