<?xml version="1.0" encoding="ISO-8859-1"?>
<modeling>
 <generator>
  <i name="program" type="string">vasp </i>
  <i name="version" type="string">6.2.1  </i>
  <i name="subversion" type="string">16May21 (build Nov 15 2021 14:57:28) complex                          parallel </i>
  <i name="platform" type="string">LinuxPGI </i>
  <i name="date" type="string">2023 07 30 </i>
  <i name="time" type="string">22:32:43 </i>
 </generator>
 <incar>
  <i type="string" name="SYSTEM">PSC</i>
  <i type="int" name="ISTART">     1</i>
  <i type="string" name="PREC">Normal</i>
  <i name="BMIX">      0.01000000</i>
  <i name="AMIN">      0.01000000</i>
  <i type="int" name="ICHARG">     1</i>
  <i type="int" name="NELM">   600</i>
  <i type="int" name="ISYM">     0</i>
  <i name="ENCUT">    500.00000000</i>
  <i type="string" name="LREAL">Auto</i>
  <i type="int" name="ISMEAR">     0</i>
  <i name="SIGMA">      0.05000000</i>
  <i type="logical" name="LWAVE"> F  </i>
  <i type="logical" name="LVTOT"> T  </i>
  <i type="logical" name="GGA_COMPAT"> F  </i>
  <i type="logical" name="LDIPOL"> T  </i>
  <i type="int" name="IDIPOL">     3</i>
  <i type="int" name="IVDW">    12</i>
 </incar>
 <primitive_cell>
  <structure name="primitive_cell" >
   <crystal>
    <varray name="basis" >
     <v>      18.06080055       0.00000000       0.00000000 </v>
     <v>      -0.00491865      18.06279945       0.00000000 </v>
     <v>       0.00000000       0.00000000      62.48749924 </v>
    </varray>
    <i name="volume">  20385.21054034 </i>
    <varray name="rec_basis" >
     <v>       0.05536853       0.00001508      -0.00000000 </v>
     <v>       0.00000000       0.05536240       0.00000000 </v>
     <v>       0.00000000      -0.00000000       0.01600320 </v>
    </varray>
   </crystal>
   <varray name="positions" >
    <v>       0.46490561       0.33953804       0.56257132 </v>
    <v>       0.43730939       0.82249692       0.57488421 </v>
    <v>       0.92344178       0.28640679       0.57596908 </v>
    <v>       0.93392373       0.81772876       0.57256240 </v>
    <v>       0.32404746       0.07692533       0.57070491 </v>
    <v>       0.34841718       0.54388466       0.55634388 </v>
    <v>       0.80724511       0.09295920       0.56490394 </v>
    <v>       0.10874535       0.25065284       0.55620091 </v>
    <v>       0.07475001       0.67606714       0.57730211 </v>
    <v>       0.55210586       0.15591600       0.56091376 </v>
    <v>       0.50347091       0.64342570       0.55612246 </v>
    <v>       0.37806617       0.01256975       0.55728987 </v>
    <v>       0.29367926       0.62210699       0.55099546 </v>
    <v>       0.87712220       0.03263409       0.55589848 </v>
    <v>       0.06030864       0.29247203       0.57689621 </v>
    <v>       0.98586584       0.69752824       0.58547422 </v>
    <v>       0.57265108       0.24838418       0.56733686 </v>
    <v>       0.44585388       0.68444666       0.57491003 </v>
    <v>       0.27407350       0.43475754       0.57189637 </v>
    <v>       0.18916177       0.05709861       0.57221925 </v>
    <v>       0.68726733       0.03248824       0.57582477 </v>
    <v>       0.38141655       0.29678452       0.55506561 </v>
    <v>       0.49562907       0.86896149       0.55729250 </v>
    <v>       0.88243987       0.23554444       0.55527647 </v>
    <v>       0.98845741       0.86843045       0.55499705 </v>
    <v>       0.17849894       0.44345171       0.56938457 </v>
    <v>       0.15454197       0.97915392       0.55985203 </v>
    <v>       0.68194112       0.93721501       0.57009938 </v>
    <v>       0.43022075       0.18159087       0.55245620 </v>
    <v>       0.54302036       0.75982885       0.54263203 </v>
    <v>       0.99865557       0.20919413       0.53937229 </v>
    <v>       0.08423737       0.78051097       0.55520242 </v>
    <v>       0.18303641       0.56104101       0.55616507 </v>
    <v>       0.27261454       0.93834138       0.54894427 </v>
    <v>       0.79912262       0.92916457       0.55747936 </v>
    <v>       0.44126742       0.30133975       0.67130077 </v>
    <v>       0.45270918       0.80514554       0.67394736 </v>
    <v>       0.94761937       0.28565447       0.67464244 </v>
    <v>       0.91892597       0.73716786       0.66815384 </v>
    <v>       0.30109363       0.05221769       0.67255237 </v>
    <v>       0.29615527       0.56132796       0.67349372 </v>
    <v>       0.80540323       0.05770396       0.67343847 </v>
    <v>       0.84209555       0.46905812       0.66200295 </v>
    <v>       0.08438908       0.16753626       0.64777098 </v>
    <v>       0.11184075       0.70841529       0.65367237 </v>
    <v>       0.57906389       0.17169086       0.64987235 </v>
    <v>       0.57295702       0.66989276       0.64683689 </v>
    <v>       0.18443542       0.41249900       0.64960991 </v>
    <v>       0.16921044       0.92394855       0.64742741 </v>
    <v>       0.64136629       0.47368256       0.65536625 </v>
    <v>       0.67510989       0.91922884       0.65235784 </v>
    <v>       0.05223677       0.18619637       0.67343938 </v>
    <v>       0.03732872       0.66520422       0.66637852 </v>
    <v>       0.54341084       0.20177950       0.67430174 </v>
    <v>       0.55093445       0.69835083       0.67270108 </v>
    <v>       0.20472574       0.44919657       0.67456559 </v>
    <v>       0.19837956       0.95058169       0.67294466 </v>
    <v>       0.71350474       0.41353893       0.66241496 </v>
    <v>       0.70539795       0.95450425       0.67684540 </v>
    <v>       0.41954090       0.32666546       0.64523220 </v>
    <v>       0.42308854       0.83388401       0.64883931 </v>
    <v>       0.92414237       0.32162623       0.64955253 </v>
    <v>       0.91903124       0.82305684       0.65524922 </v>
    <v>       0.32812201       0.07951080       0.64703280 </v>
    <v>       0.32275073       0.58695074       0.64775590 </v>
    <v>       0.82893024       0.07911944       0.64705294 </v>
    <v>       0.84909674       0.55717173       0.65119110 </v>
    <v>       0.00817432       0.25093418       0.63107214 </v>
    <v>       0.04171145       0.81324365       0.64462796 </v>
    <v>       0.50462996       0.24889378       0.62972837 </v>
    <v>       0.49432374       0.75119399       0.63021712 </v>
    <v>       0.24777073       0.00191421       0.62955396 </v>
    <v>       0.25714834       0.49445297       0.63099584 </v>
    <v>       0.75029646       0.99417353       0.63208852 </v>
    <v>       0.72209078       0.57068519       0.64698365 </v>
    <v>       0.44874502       0.30128397       0.76888902 </v>
    <v>       0.44874501       0.80128391       0.76888902 </v>
    <v>       0.94874497       0.30128397       0.76888902 </v>
    <v>       0.94874501       0.80128391       0.76888902 </v>
    <v>       0.30127600       0.05129450       0.76887296 </v>
    <v>       0.30127601       0.55129450       0.76887296 </v>
    <v>       0.80127594       0.05129450       0.76887296 </v>
    <v>       0.80127598       0.55129450       0.76887296 </v>
    <v>       0.07877100       0.17118050       0.74344197 </v>
    <v>       0.07877101       0.67118045       0.74344197 </v>
    <v>       0.57877100       0.17118050       0.74344197 </v>
    <v>       0.57877099       0.67118045       0.74344197 </v>
    <v>       0.17119950       0.42117448       0.74342103 </v>
    <v>       0.17119950       0.92117451       0.74342103 </v>
    <v>       0.67119951       0.42117448       0.74342103 </v>
    <v>       0.67119950       0.92117451       0.74342103 </v>
    <v>       0.05125600       0.19871499       0.76888902 </v>
    <v>       0.05125600       0.69871493       0.76888902 </v>
    <v>       0.55125603       0.19871499       0.76888902 </v>
    <v>       0.55125602       0.69871493       0.76888902 </v>
    <v>       0.19872349       0.44870397       0.76887205 </v>
    <v>       0.19872349       0.94870397       0.76887205 </v>
    <v>       0.69872352       0.44870397       0.76887205 </v>
    <v>       0.69872351       0.94870397       0.76887205 </v>
    <v>       0.42123152       0.32881747       0.74344197 </v>
    <v>       0.42123151       0.82881744       0.74344197 </v>
    <v>       0.92123147       0.32881747       0.74344197 </v>
    <v>       0.92123151       0.82881744       0.74344197 </v>
    <v>       0.32880050       0.07882500       0.74342103 </v>
    <v>       0.32880049       0.57882496       0.74342103 </v>
    <v>       0.82880048       0.07882500       0.74342103 </v>
    <v>       0.82880052       0.57882496       0.74342103 </v>
    <v>       0.00000350       0.25000148       0.72582199 </v>
    <v>       0.00000350       0.75000145       0.72582199 </v>
    <v>       0.50000351       0.25000148       0.72582199 </v>
    <v>       0.50000350       0.75000145       0.72582199 </v>
    <v>       0.25000050       0.00000000       0.72580398 </v>
    <v>       0.25000052       0.50000000       0.72580398 </v>
    <v>       0.75000050       0.00000000       0.72580398 </v>
    <v>       0.75000049       0.50000000       0.72580398 </v>
    <v>       0.72010761       0.44513284       0.53859839 </v>
    <v>       0.74229158       0.49704328       0.51567089 </v>
    <v>       0.66303868       0.55306185       0.55587485 </v>
    <v>       0.71025987       0.63908573       0.55449427 </v>
    <v>       0.85392879       0.50964102       0.56707772 </v>
    <v>       0.79346521       0.57933087       0.57648371 </v>
    <v>       0.87888744       0.55948363       0.53077553 </v>
    <v>       0.80880937       0.61803454       0.52024798 </v>
    <v>       0.87285093       0.46193740       0.51740921 </v>
    <v>       0.86322444       0.42574742       0.54336008 </v>
    <v>       0.87311943       0.32598041       0.51857681 </v>
    <v>       0.78427225       0.32391261       0.52984145 </v>
    <v>       0.63861189       0.55273947       0.51715342 </v>
    <v>       0.69631566       0.63263828       0.51311258 </v>
    <v>       0.61394457       0.63888478       0.52814177 </v>
    <v>       0.76437634       0.46657467       0.59494328 </v>
    <v>       0.75519655       0.41403663       0.57132216 </v>
    <v>       0.68798224       0.48269149       0.57788933 </v>
    <v>       0.81846721       0.69236352       0.55610909 </v>
    <v>       0.89673607       0.69356018       0.53915184 </v>
    <v>       0.89797195       0.63565071       0.56196878 </v>
    <v>       0.82052137       0.38056505       0.48486657 </v>
    <v>       0.78692146       0.29193447       0.49129874 </v>
    <v>       0.66283711       0.30210642       0.51813073 </v>
    <v>       0.73233924       0.46046339       0.47054568 </v>
    <v>       0.53534266       0.35338807       0.51664600 </v>
    <v>       0.60454112       0.51020458       0.46863774 </v>
    <v>       0.50566852       0.45837720       0.49234631 </v>
    <v>       0.99561052       0.24031474       0.55426998 </v>
    <v>       0.03307596       0.77022530       0.56409903 </v>
    <v>       0.46707446       0.22687371       0.55705704 </v>
    <v>       0.50117616       0.75681135       0.55516756 </v>
    <v>       0.23493387       0.53179932       0.55905145 </v>
    <v>       0.26659248       0.99068213       0.55753107 </v>
    <v>       0.77940560       0.98320089       0.56275880 </v>
    <v>       0.00446864       0.24481767       0.64850984 </v>
    <v>       0.01667308       0.76792400       0.65368446 </v>
    <v>       0.49971905       0.24921104       0.64716338 </v>
    <v>       0.49750232       0.75146052       0.64765078 </v>
    <v>       0.25451771       0.49877578       0.64836180 </v>
    <v>       0.24858786       0.00150852       0.64706576 </v>
    <v>       0.74402957       0.51881098       0.65322581 </v>
    <v>       0.75202727       0.99907331       0.64953604 </v>
    <v>       0.49998898       0.24999498       0.74327702 </v>
    <v>       0.49998903       0.74999496       0.74327702 </v>
    <v>       0.99998898       0.24999498       0.74327702 </v>
    <v>       0.99998903       0.74999496       0.74327702 </v>
    <v>       0.25000050       0.00000100       0.74325596 </v>
    <v>       0.25000052       0.50000100       0.74325596 </v>
    <v>       0.75000050       0.00000100       0.74325596 </v>
    <v>       0.75000049       0.50000100       0.74325596 </v>
    <v>       0.70688470       0.37859979       0.49452747 </v>
    <v>       0.65010669       0.34817799       0.50727978 </v>
    <v>       0.68894709       0.43665342       0.48063926 </v>
    <v>       0.57819084       0.37665525       0.50637750 </v>
    <v>       0.61693744       0.46485764       0.47961052 </v>
    <v>       0.56145068       0.43538427       0.49263149 </v>
    <v>       0.76404482       0.47793378       0.53104140 </v>
    <v>       0.69911343       0.58737260       0.54585417 </v>
    <v>       0.79565544       0.52715502       0.56757391 </v>
    <v>       0.83293591       0.59617698       0.53506002 </v>
    <v>       0.83421916       0.43241672       0.52797169 </v>
    <v>       0.81950582       0.35525937       0.51875091 </v>
    <v>       0.66117231       0.60276518       0.52463203 </v>
    <v>       0.74731160       0.46947121       0.57811459 </v>
    <v>       0.86232212       0.65757728       0.54925494 </v>
    <v>       0.78557606       0.35041307       0.49620771 </v>
    <v>       0.05809515       0.26154889       0.56305238 </v>
    <v>       0.02968077       0.70965566       0.57549584 </v>
    <v>       0.53596460       0.21015759       0.56150800 </v>
    <v>       0.48120765       0.69123655       0.56212067 </v>
    <v>       0.43753122       0.29319805       0.55749890 </v>
    <v>       0.47432064       0.81939685       0.56246211 </v>
    <v>       0.92999544       0.25343362       0.56256845 </v>
    <v>       0.97864683       0.81843287       0.56230247 </v>
    <v>       0.22968087       0.46325496       0.56589047 </v>
    <v>       0.19993051       0.01001655       0.56356694 </v>
    <v>       0.71074419       0.98587959       0.56959000 </v>
    <v>       0.32626638       0.02984364       0.56155598 </v>
    <v>       0.29690313       0.56698856       0.55483674 </v>
    <v>       0.82423706       0.03994356       0.56135575 </v>
    <v>       0.04882355       0.19647377       0.65736512 </v>
    <v>       0.05655186       0.70911301       0.65769258 </v>
    <v>       0.54324841       0.20525756       0.65804025 </v>
    <v>       0.54236589       0.70330452       0.65649611 </v>
    <v>       0.21274011       0.45054497       0.65834609 </v>
    <v>       0.20262923       0.95614290       0.65671405 </v>
    <v>       0.69721599       0.46524913       0.65744967 </v>
    <v>       0.70877815       0.95482590       0.66051169 </v>
    <v>       0.45075739       0.29517226       0.65533853 </v>
    <v>       0.45567752       0.79948895       0.65770235 </v>
    <v>       0.95647180       0.28680227       0.65851874 </v>
    <v>       0.94713514       0.77629735       0.65945612 </v>
    <v>       0.29544261       0.04678020       0.65642872 </v>
    <v>       0.29345555       0.55179734       0.65735456 </v>
    <v>       0.79731810       0.04894736       0.65750492 </v>
    <v>       0.81620273       0.51396885       0.65558712 </v>
    <v>       0.04586250       0.20411950       0.75272599 </v>
    <v>       0.04586250       0.70411946       0.75272599 </v>
    <v>       0.54586251       0.20411950       0.75272599 </v>
    <v>       0.54586250       0.70411946       0.75272599 </v>
    <v>       0.20411900       0.45410100       0.75270499 </v>
    <v>       0.20411899       0.95410095       0.75270499 </v>
    <v>       0.70411898       0.45410100       0.75270499 </v>
    <v>       0.70411896       0.95410095       0.75270499 </v>
    <v>       0.45414002       0.29588849       0.75272697 </v>
    <v>       0.45414001       0.79588852       0.75272697 </v>
    <v>       0.95414002       0.29588849       0.75272697 </v>
    <v>       0.95414006       0.79588852       0.75272697 </v>
    <v>       0.29588249       0.04590050       0.75270499 </v>
    <v>       0.29588248       0.54590053       0.75270499 </v>
    <v>       0.79588244       0.04590050       0.75270499 </v>
    <v>       0.79588248       0.54590053       0.75270499 </v>
    <v>       0.77324255       0.54692528       0.54475630 </v>
    <v>       0.51894799       0.01092761       0.55331642 </v>
    <v>       0.48985133       0.49447161       0.55244857 </v>
    <v>       0.01200068       0.00793917       0.55040293 </v>
    <v>       0.02411970       0.49949478       0.55438505 </v>
    <v>       0.25161813       0.23175385       0.55297694 </v>
    <v>       0.25363566       0.76258272       0.55210036 </v>
    <v>       0.73484744       0.21261228       0.55581527 </v>
    <v>       0.69969904       0.79646633       0.55534228 </v>
    <v>       0.99921682       0.98688547       0.65382090 </v>
    <v>       0.01273827       0.49986896       0.65534824 </v>
    <v>       0.49455133       0.00416292       0.65504630 </v>
    <v>       0.49994029       0.49505175       0.65400587 </v>
    <v>       0.25215672       0.24658291       0.65465743 </v>
    <v>       0.25203548       0.75415125       0.65415641 </v>
    <v>       0.74742905       0.26960938       0.65502811 </v>
    <v>       0.74852425       0.73978657       0.65455756 </v>
    <v>       0.12999807       0.12175818       0.60718327 </v>
    <v>       0.15035544       0.60830488       0.60752746 </v>
    <v>       0.63884403       0.11464023       0.61180248 </v>
    <v>       0.63177146       0.61791950       0.60657188 </v>
    <v>       0.36085715       0.38984364       0.60528427 </v>
    <v>       0.36950233       0.88650363       0.60756183 </v>
    <v>       0.88858475       0.36730681       0.60759968 </v>
    <v>       0.86747596       0.88249254       0.60632977 </v>
    <v>       0.12145715       0.36630328       0.60906927 </v>
    <v>       0.12338024       0.87520746       0.60638111 </v>
    <v>       0.59751841       0.34892117       0.60125832 </v>
    <v>       0.61703484       0.86727333       0.61467879 </v>
    <v>       0.38768573       0.13479411       0.60725799 </v>
    <v>       0.38572364       0.63584189       0.60914869 </v>
    <v>       0.88298949       0.13606569       0.61091669 </v>
    <v>       0.89435513       0.63954311       0.61301476 </v>
    <v>       0.00000000       0.00000000       0.75492797 </v>
    <v>       0.00000000       0.50000000       0.75492797 </v>
    <v>       0.50000000       0.00000000       0.75492797 </v>
    <v>       0.49999999       0.50000000       0.75492797 </v>
    <v>       0.25000050       0.25000000       0.75493902 </v>
    <v>       0.25000051       0.74999997       0.75493902 </v>
    <v>       0.75000047       0.25000000       0.75493902 </v>
    <v>       0.75000046       0.74999997       0.75493902 </v>
    <v>       0.13579050       0.11421000       0.70478299 </v>
    <v>       0.13579050       0.61420998       0.70478299 </v>
    <v>       0.63579045       0.11421000       0.70478299 </v>
    <v>       0.63579049       0.61420998       0.70478299 </v>
    <v>       0.36420952       0.38578999       0.70478299 </v>
    <v>       0.36420950       0.88578996       0.70478299 </v>
    <v>       0.86420954       0.38578999       0.70478299 </v>
    <v>       0.86420953       0.88578996       0.70478299 </v>
    <v>       0.11421799       0.36421899       0.70478098 </v>
    <v>       0.11421799       0.86421899       0.70478098 </v>
    <v>       0.61421800       0.36421899       0.70478098 </v>
    <v>       0.61421799       0.86421899       0.70478098 </v>
    <v>       0.38578201       0.13578149       0.70478202 </v>
    <v>       0.38578200       0.63578149       0.70478202 </v>
    <v>       0.88578199       0.13578149       0.70478202 </v>
    <v>       0.88578203       0.63578149       0.70478202 </v>
    <v>       0.13466700       0.11533200       0.80125603 </v>
    <v>       0.13466699       0.61533199       0.80125603 </v>
    <v>       0.63466699       0.11533200       0.80125603 </v>
    <v>       0.63466698       0.61533199       0.80125603 </v>
    <v>       0.36533300       0.38466799       0.80125603 </v>
    <v>       0.36533299       0.88466796       0.80125603 </v>
    <v>       0.86533295       0.38466799       0.80125603 </v>
    <v>       0.86533294       0.88466796       0.80125603 </v>
    <v>       0.11532850       0.36533700       0.80126500 </v>
    <v>       0.11532850       0.86533698       0.80126500 </v>
    <v>       0.61532850       0.36533700       0.80126500 </v>
    <v>       0.61532849       0.86533698       0.80126500 </v>
    <v>       0.38467151       0.13466300       0.80126500 </v>
    <v>       0.38467150       0.63466297       0.80126500 </v>
    <v>       0.88467149       0.13466300       0.80126500 </v>
    <v>       0.88467153       0.63466297       0.80126500 </v>
    <v>       0.99815483       0.00375212       0.60378483 </v>
    <v>       0.00511319       0.50449646       0.60415032 </v>
    <v>       0.50481548       0.00081390       0.60542889 </v>
    <v>       0.50233897       0.49842219       0.60330487 </v>
    <v>       0.25294792       0.24867248       0.60431600 </v>
    <v>       0.25135644       0.75345183       0.60305024 </v>
    <v>       0.74682684       0.25104436       0.60505431 </v>
    <v>       0.74346262       0.75594441       0.60377225 </v>
    <v>       0.00000050       0.00000050       0.70482896 </v>
    <v>       0.00000050       0.50000048       0.70482896 </v>
    <v>       0.50000048       0.00000050       0.70482896 </v>
    <v>       0.50000046       0.50000048       0.70482896 </v>
    <v>       0.24999999       0.24999947       0.70482499 </v>
    <v>       0.25000001       0.74999950       0.70482499 </v>
    <v>       0.74999999       0.24999947       0.70482499 </v>
    <v>       0.74999998       0.74999950       0.70482499 </v>
    <v>       0.00000000       0.00000000       0.80731797 </v>
    <v>       0.00000000       0.50000000       0.80731797 </v>
    <v>       0.50000000       0.00000000       0.80731797 </v>
    <v>       0.49999999       0.50000000       0.80731797 </v>
    <v>       0.24999999       0.25000000       0.80731797 </v>
    <v>       0.25000001       0.74999997       0.80731797 </v>
    <v>       0.74999999       0.25000000       0.80731797 </v>
    <v>       0.74999998       0.74999997       0.80731797 </v>
   </varray>
  </structure>
  <varray name="primitive_index" >
   <v type="int" >        1 </v>
   <v type="int" >        2 </v>
   <v type="int" >        3 </v>
   <v type="int" >        4 </v>
   <v type="int" >        5 </v>
   <v type="int" >        6 </v>
   <v type="int" >        7 </v>
   <v type="int" >        8 </v>
   <v type="int" >        9 </v>
   <v type="int" >       10 </v>
   <v type="int" >       11 </v>
   <v type="int" >       12 </v>
   <v type="int" >       13 </v>
   <v type="int" >       14 </v>
   <v type="int" >       15 </v>
   <v type="int" >       16 </v>
   <v type="int" >       17 </v>
   <v type="int" >       18 </v>
   <v type="int" >       19 </v>
   <v type="int" >       20 </v>
   <v type="int" >       21 </v>
   <v type="int" >       22 </v>
   <v type="int" >       23 </v>
   <v type="int" >       24 </v>
   <v type="int" >       25 </v>
   <v type="int" >       26 </v>
   <v type="int" >       27 </v>
   <v type="int" >       28 </v>
   <v type="int" >       29 </v>
   <v type="int" >       30 </v>
   <v type="int" >       31 </v>
   <v type="int" >       32 </v>
   <v type="int" >       33 </v>
   <v type="int" >       34 </v>
   <v type="int" >       35 </v>
   <v type="int" >       36 </v>
   <v type="int" >       37 </v>
   <v type="int" >       38 </v>
   <v type="int" >       39 </v>
   <v type="int" >       40 </v>
   <v type="int" >       41 </v>
   <v type="int" >       42 </v>
   <v type="int" >       43 </v>
   <v type="int" >       44 </v>
   <v type="int" >       45 </v>
   <v type="int" >       46 </v>
   <v type="int" >       47 </v>
   <v type="int" >       48 </v>
   <v type="int" >       49 </v>
   <v type="int" >       50 </v>
   <v type="int" >       51 </v>
   <v type="int" >       52 </v>
   <v type="int" >       53 </v>
   <v type="int" >       54 </v>
   <v type="int" >       55 </v>
   <v type="int" >       56 </v>
   <v type="int" >       57 </v>
   <v type="int" >       58 </v>
   <v type="int" >       59 </v>
   <v type="int" >       60 </v>
   <v type="int" >       61 </v>
   <v type="int" >       62 </v>
   <v type="int" >       63 </v>
   <v type="int" >       64 </v>
   <v type="int" >       65 </v>
   <v type="int" >       66 </v>
   <v type="int" >       67 </v>
   <v type="int" >       68 </v>
   <v type="int" >       69 </v>
   <v type="int" >       70 </v>
   <v type="int" >       71 </v>
   <v type="int" >       72 </v>
   <v type="int" >       73 </v>
   <v type="int" >       74 </v>
   <v type="int" >       75 </v>
   <v type="int" >       76 </v>
   <v type="int" >       77 </v>
   <v type="int" >       78 </v>
   <v type="int" >       79 </v>
   <v type="int" >       80 </v>
   <v type="int" >       81 </v>
   <v type="int" >       82 </v>
   <v type="int" >       83 </v>
   <v type="int" >       84 </v>
   <v type="int" >       85 </v>
   <v type="int" >       86 </v>
   <v type="int" >       87 </v>
   <v type="int" >       88 </v>
   <v type="int" >       89 </v>
   <v type="int" >       90 </v>
   <v type="int" >       91 </v>
   <v type="int" >       92 </v>
   <v type="int" >       93 </v>
   <v type="int" >       94 </v>
   <v type="int" >       95 </v>
   <v type="int" >       96 </v>
   <v type="int" >       97 </v>
   <v type="int" >       98 </v>
   <v type="int" >       99 </v>
   <v type="int" >      100 </v>
   <v type="int" >      101 </v>
   <v type="int" >      102 </v>
   <v type="int" >      103 </v>
   <v type="int" >      104 </v>
   <v type="int" >      105 </v>
   <v type="int" >      106 </v>
   <v type="int" >      107 </v>
   <v type="int" >      108 </v>
   <v type="int" >      109 </v>
   <v type="int" >      110 </v>
   <v type="int" >      111 </v>
   <v type="int" >      112 </v>
   <v type="int" >      113 </v>
   <v type="int" >      114 </v>
   <v type="int" >      115 </v>
   <v type="int" >      116 </v>
   <v type="int" >      117 </v>
   <v type="int" >      118 </v>
   <v type="int" >      119 </v>
   <v type="int" >      120 </v>
   <v type="int" >      121 </v>
   <v type="int" >      122 </v>
   <v type="int" >      123 </v>
   <v type="int" >      124 </v>
   <v type="int" >      125 </v>
   <v type="int" >      126 </v>
   <v type="int" >      127 </v>
   <v type="int" >      128 </v>
   <v type="int" >      129 </v>
   <v type="int" >      130 </v>
   <v type="int" >      131 </v>
   <v type="int" >      132 </v>
   <v type="int" >      133 </v>
   <v type="int" >      134 </v>
   <v type="int" >      135 </v>
   <v type="int" >      136 </v>
   <v type="int" >      137 </v>
   <v type="int" >      138 </v>
   <v type="int" >      139 </v>
   <v type="int" >      140 </v>
   <v type="int" >      141 </v>
   <v type="int" >      142 </v>
   <v type="int" >      143 </v>
   <v type="int" >      144 </v>
   <v type="int" >      145 </v>
   <v type="int" >      146 </v>
   <v type="int" >      147 </v>
   <v type="int" >      148 </v>
   <v type="int" >      149 </v>
   <v type="int" >      150 </v>
   <v type="int" >      151 </v>
   <v type="int" >      152 </v>
   <v type="int" >      153 </v>
   <v type="int" >      154 </v>
   <v type="int" >      155 </v>
   <v type="int" >      156 </v>
   <v type="int" >      157 </v>
   <v type="int" >      158 </v>
   <v type="int" >      159 </v>
   <v type="int" >      160 </v>
   <v type="int" >      161 </v>
   <v type="int" >      162 </v>
   <v type="int" >      163 </v>
   <v type="int" >      164 </v>
   <v type="int" >      165 </v>
   <v type="int" >      166 </v>
   <v type="int" >      167 </v>
   <v type="int" >      168 </v>
   <v type="int" >      169 </v>
   <v type="int" >      170 </v>
   <v type="int" >      171 </v>
   <v type="int" >      172 </v>
   <v type="int" >      173 </v>
   <v type="int" >      174 </v>
   <v type="int" >      175 </v>
   <v type="int" >      176 </v>
   <v type="int" >      177 </v>
   <v type="int" >      178 </v>
   <v type="int" >      179 </v>
   <v type="int" >      180 </v>
   <v type="int" >      181 </v>
   <v type="int" >      182 </v>
   <v type="int" >      183 </v>
   <v type="int" >      184 </v>
   <v type="int" >      185 </v>
   <v type="int" >      186 </v>
   <v type="int" >      187 </v>
   <v type="int" >      188 </v>
   <v type="int" >      189 </v>
   <v type="int" >      190 </v>
   <v type="int" >      191 </v>
   <v type="int" >      192 </v>
   <v type="int" >      193 </v>
   <v type="int" >      194 </v>
   <v type="int" >      195 </v>
   <v type="int" >      196 </v>
   <v type="int" >      197 </v>
   <v type="int" >      198 </v>
   <v type="int" >      199 </v>
   <v type="int" >      200 </v>
   <v type="int" >      201 </v>
   <v type="int" >      202 </v>
   <v type="int" >      203 </v>
   <v type="int" >      204 </v>
   <v type="int" >      205 </v>
   <v type="int" >      206 </v>
   <v type="int" >      207 </v>
   <v type="int" >      208 </v>
   <v type="int" >      209 </v>
   <v type="int" >      210 </v>
   <v type="int" >      211 </v>
   <v type="int" >      212 </v>
   <v type="int" >      213 </v>
   <v type="int" >      214 </v>
   <v type="int" >      215 </v>
   <v type="int" >      216 </v>
   <v type="int" >      217 </v>
   <v type="int" >      218 </v>
   <v type="int" >      219 </v>
   <v type="int" >      220 </v>
   <v type="int" >      221 </v>
   <v type="int" >      222 </v>
   <v type="int" >      223 </v>
   <v type="int" >      224 </v>
   <v type="int" >      225 </v>
   <v type="int" >      226 </v>
   <v type="int" >      227 </v>
   <v type="int" >      228 </v>
   <v type="int" >      229 </v>
   <v type="int" >      230 </v>
   <v type="int" >      231 </v>
   <v type="int" >      232 </v>
   <v type="int" >      233 </v>
   <v type="int" >      234 </v>
   <v type="int" >      235 </v>
   <v type="int" >      236 </v>
   <v type="int" >      237 </v>
   <v type="int" >      238 </v>
   <v type="int" >      239 </v>
   <v type="int" >      240 </v>
   <v type="int" >      241 </v>
   <v type="int" >      242 </v>
   <v type="int" >      243 </v>
   <v type="int" >      244 </v>
   <v type="int" >      245 </v>
   <v type="int" >      246 </v>
   <v type="int" >      247 </v>
   <v type="int" >      248 </v>
   <v type="int" >      249 </v>
   <v type="int" >      250 </v>
   <v type="int" >      251 </v>
   <v type="int" >      252 </v>
   <v type="int" >      253 </v>
   <v type="int" >      254 </v>
   <v type="int" >      255 </v>
   <v type="int" >      256 </v>
   <v type="int" >      257 </v>
   <v type="int" >      258 </v>
   <v type="int" >      259 </v>
   <v type="int" >      260 </v>
   <v type="int" >      261 </v>
   <v type="int" >      262 </v>
   <v type="int" >      263 </v>
   <v type="int" >      264 </v>
   <v type="int" >      265 </v>
   <v type="int" >      266 </v>
   <v type="int" >      267 </v>
   <v type="int" >      268 </v>
   <v type="int" >      269 </v>
   <v type="int" >      270 </v>
   <v type="int" >      271 </v>
   <v type="int" >      272 </v>
   <v type="int" >      273 </v>
   <v type="int" >      274 </v>
   <v type="int" >      275 </v>
   <v type="int" >      276 </v>
   <v type="int" >      277 </v>
   <v type="int" >      278 </v>
   <v type="int" >      279 </v>
   <v type="int" >      280 </v>
   <v type="int" >      281 </v>
   <v type="int" >      282 </v>
   <v type="int" >      283 </v>
   <v type="int" >      284 </v>
   <v type="int" >      285 </v>
   <v type="int" >      286 </v>
   <v type="int" >      287 </v>
   <v type="int" >      288 </v>
   <v type="int" >      289 </v>
   <v type="int" >      290 </v>
   <v type="int" >      291 </v>
   <v type="int" >      292 </v>
   <v type="int" >      293 </v>
   <v type="int" >      294 </v>
   <v type="int" >      295 </v>
   <v type="int" >      296 </v>
   <v type="int" >      297 </v>
   <v type="int" >      298 </v>
   <v type="int" >      299 </v>
   <v type="int" >      300 </v>
   <v type="int" >      301 </v>
   <v type="int" >      302 </v>
   <v type="int" >      303 </v>
   <v type="int" >      304 </v>
   <v type="int" >      305 </v>
   <v type="int" >      306 </v>
   <v type="int" >      307 </v>
   <v type="int" >      308 </v>
   <v type="int" >      309 </v>
   <v type="int" >      310 </v>
   <v type="int" >      311 </v>
   <v type="int" >      312 </v>
   <v type="int" >      313 </v>
   <v type="int" >      314 </v>
   <v type="int" >      315 </v>
   <v type="int" >      316 </v>
   <v type="int" >      317 </v>
   <v type="int" >      318 </v>
   <v type="int" >      319 </v>
   <v type="int" >      320 </v>
   <v type="int" >      321 </v>
   <v type="int" >      322 </v>
   <v type="int" >      323 </v>
   <v type="int" >      324 </v>
   <v type="int" >      325 </v>
  </varray>
 </primitive_cell>
 <kpoints>
  <generation param="Gamma">
   <v type="int" name="divisions">       3        3        1 </v>
   <v name="usershift">      0.00000000       0.00000000       0.00000000 </v>
   <v name="genvec1">      0.33333333       0.00000000       0.00000000 </v>
   <v name="genvec2">      0.00000000       0.33333333       0.00000000 </v>
   <v name="genvec3">      0.00000000       0.00000000       1.00000000 </v>
   <v name="shift">      0.00000000       0.00000000       0.00000000 </v>
  </generation>
  <varray name="kpointlist" >
   <v>       0.00000000       0.00000000       0.00000000 </v>
   <v>       0.33333333       0.00000000       0.00000000 </v>
   <v>       0.00000000       0.33333333       0.00000000 </v>
   <v>       0.33333333       0.33333333       0.00000000 </v>
   <v>      -0.33333333       0.33333333       0.00000000 </v>
  </varray>
  <varray name="weights" >
   <v>       0.11111111 </v>
   <v>       0.22222222 </v>
   <v>       0.22222222 </v>
   <v>       0.22222222 </v>
   <v>       0.22222222 </v>
  </varray>
 </kpoints>
 <parameters>
  <separator name="general" >
   <i type="string" name="SYSTEM">PSC</i>
   <i type="logical" name="LCOMPAT"> F  </i>
  </separator>
  <separator name="electronic" >
   <i type="string" name="PREC">normal</i>
   <i name="ENMAX">    500.00000000</i>
   <i name="ENAUG">    644.87300000</i>
   <i name="EDIFF">      0.00010000</i>
   <i type="int" name="IALGO">    38</i>
   <i type="int" name="IWAVPR">    10</i>
   <i type="int" name="NBANDS">   732</i>
   <i type="int" name="NBANDSLOW">    -1</i>
   <i type="int" name="NBANDSHIGH">    -1</i>
   <i name="NELECT">   1134.00000000</i>
   <i type="int" name="TURBO">     0</i>
   <i type="int" name="IRESTART">     0</i>
   <i type="int" name="NREBOOT">     0</i>
   <i type="int" name="NMIN">     0</i>
   <i name="EREF">      0.00000000</i>
   <separator name="electronic smearing" >
    <i type="int" name="ISMEAR">     0</i>
    <i name="SIGMA">      0.05000000</i>
    <i name="KSPACING">      0.50000000</i>
    <i type="logical" name="KGAMMA"> T  </i>
    <i type="logical" name="KBLOWUP"> T  </i>
   </separator>
   <separator name="electronic projectors" >
    <i type="logical" name="LREAL"> T  </i>
    <v name="ROPT">     -0.00050000     -0.00050000     -0.00050000     -0.00050000     -0.00050000</v>
    <i type="int" name="LMAXPAW">  -100</i>
    <i type="int" name="LMAXMIX">     2</i>
    <i type="logical" name="NLSPLINE"> F  </i>
   </separator>
   <separator name="electronic startup" >
    <i type="int" name="ISTART">     0</i>
    <i type="int" name="ICHARG">     1</i>
    <i type="int" name="INIWAV">     1</i>
   </separator>
   <separator name="electronic spin" >
    <i type="int" name="ISPIN">     1</i>
    <i type="logical" name="LNONCOLLINEAR"> F  </i>
    <v name="MAGMOM">      1.00000000      1.00000000      1.00000000      1.00000000      1.00000000      1.00000000      1.00000000      1.00000000      1.00000000      1.00000000      1.00000000      1.00000000      1.00000000      1.00000000      1.00000000      1.00000000      1.00000000      1.00000000      1.00000000      1.00000000
      1.00000000      1.00000000      1.00000000      1.00000000      1.00000000      1.00000000      1.00000000      1.00000000      1.00000000      1.00000000      1.00000000      1.00000000      1.00000000      1.00000000      1.00000000      1.00000000      1.00000000      1.00000000      1.00000000      1.00000000
      1.00000000      1.00000000      1.00000000      1.00000000      1.00000000      1.00000000      1.00000000      1.00000000      1.00000000      1.00000000      1.00000000      1.00000000      1.00000000      1.00000000      1.00000000      1.00000000      1.00000000      1.00000000      1.00000000      1.00000000
      1.00000000      1.00000000      1.00000000      1.00000000      1.00000000      1.00000000      1.00000000      1.00000000      1.00000000      1.00000000      1.00000000      1.00000000      1.00000000      1.00000000      1.00000000      1.00000000      1.00000000      1.00000000      1.00000000      1.00000000
      1.00000000      1.00000000      1.00000000      1.00000000      1.00000000      1.00000000      1.00000000      1.00000000      1.00000000      1.00000000      1.00000000      1.00000000      1.00000000      1.00000000      1.00000000      1.00000000      1.00000000      1.00000000      1.00000000      1.00000000
      1.00000000      1.00000000      1.00000000      1.00000000      1.00000000      1.00000000      1.00000000      1.00000000      1.00000000      1.00000000      1.00000000      1.00000000      1.00000000      1.00000000      1.00000000      1.00000000      1.00000000      1.00000000      1.00000000      1.00000000
      1.00000000      1.00000000      1.00000000      1.00000000      1.00000000      1.00000000      1.00000000      1.00000000      1.00000000      1.00000000      1.00000000      1.00000000      1.00000000      1.00000000      1.00000000      1.00000000      1.00000000      1.00000000      1.00000000      1.00000000
      1.00000000      1.00000000      1.00000000      1.00000000      1.00000000      1.00000000      1.00000000      1.00000000      1.00000000      1.00000000      1.00000000      1.00000000      1.00000000      1.00000000      1.00000000      1.00000000      1.00000000      1.00000000      1.00000000      1.00000000
      1.00000000      1.00000000      1.00000000      1.00000000      1.00000000      1.00000000      1.00000000      1.00000000      1.00000000      1.00000000      1.00000000      1.00000000      1.00000000      1.00000000      1.00000000      1.00000000      1.00000000      1.00000000      1.00000000      1.00000000
      1.00000000      1.00000000      1.00000000      1.00000000      1.00000000      1.00000000      1.00000000      1.00000000      1.00000000      1.00000000      1.00000000      1.00000000      1.00000000      1.00000000      1.00000000      1.00000000      1.00000000      1.00000000      1.00000000      1.00000000
      1.00000000      1.00000000      1.00000000      1.00000000      1.00000000      1.00000000      1.00000000      1.00000000      1.00000000      1.00000000      1.00000000      1.00000000      1.00000000      1.00000000      1.00000000      1.00000000      1.00000000      1.00000000      1.00000000      1.00000000
      1.00000000      1.00000000      1.00000000      1.00000000      1.00000000      1.00000000      1.00000000      1.00000000      1.00000000      1.00000000      1.00000000      1.00000000      1.00000000      1.00000000      1.00000000      1.00000000      1.00000000      1.00000000      1.00000000      1.00000000
      1.00000000      1.00000000      1.00000000      1.00000000      1.00000000      1.00000000      1.00000000      1.00000000      1.00000000      1.00000000      1.00000000      1.00000000      1.00000000      1.00000000      1.00000000      1.00000000      1.00000000      1.00000000      1.00000000      1.00000000
      1.00000000      1.00000000      1.00000000      1.00000000      1.00000000      1.00000000      1.00000000      1.00000000      1.00000000      1.00000000      1.00000000      1.00000000      1.00000000      1.00000000      1.00000000      1.00000000      1.00000000      1.00000000      1.00000000      1.00000000
      1.00000000      1.00000000      1.00000000      1.00000000      1.00000000      1.00000000      1.00000000      1.00000000      1.00000000      1.00000000      1.00000000      1.00000000      1.00000000      1.00000000      1.00000000      1.00000000      1.00000000      1.00000000      1.00000000      1.00000000
      1.00000000      1.00000000      1.00000000      1.00000000      1.00000000      1.00000000      1.00000000      1.00000000      1.00000000      1.00000000      1.00000000      1.00000000      1.00000000      1.00000000      1.00000000      1.00000000      1.00000000      1.00000000      1.00000000      1.00000000
      1.00000000      1.00000000      1.00000000      1.00000000      1.00000000</v>
    <i name="NUPDOWN">     -1.00000000</i>
    <i type="logical" name="LSORBIT"> F  </i>
    <v name="SAXIS">      0.00000000      0.00000000      1.00000000</v>
    <i type="logical" name="LSPIRAL"> F  </i>
    <v name="QSPIRAL">      0.00000000      0.00000000      0.00000000</v>
    <i type="logical" name="LZEROZ"> F  </i>
   </separator>
   <separator name="electronic exchange-correlation" >
    <i type="logical" name="LASPH"> F  </i>
    <i type="logical" name="LMETAGGA"> F  </i>
   </separator>
   <separator name="electronic convergence" >
    <i type="int" name="NELM">   600</i>
    <i type="int" name="NELMDL">     0</i>
    <i type="int" name="NELMIN">     2</i>
    <i name="ENINI">    500.00000000</i>
    <separator name="electronic convergence detail" >
     <i type="logical" name="LDIAG"> T  </i>
     <i type="logical" name="LSUBROT"> F  </i>
     <i name="WEIMIN">      0.00000000</i>
     <i name="EBREAK">      0.00000003</i>
     <i name="DEPER">      0.30000000</i>
     <i type="int" name="NRMM">     4</i>
     <i name="TIME">      0.40000000</i>
    </separator>
   </separator>
   <separator name="electronic mixer" >
    <i name="AMIX">      0.40000000</i>
    <i name="BMIX">      0.01000000</i>
    <i name="AMIN">      0.01000000</i>
    <i name="AMIX_MAG">      1.60000000</i>
    <i name="BMIX_MAG">      0.01000000</i>
    <separator name="electronic mixer details" >
     <i type="int" name="IMIX">     4</i>
     <i type="logical" name="MIXFIRST"> F  </i>
     <i type="int" name="MAXMIX">   -45</i>
     <i name="WC">    100.00000000</i>
     <i type="int" name="INIMIX">     1</i>
     <i type="int" name="MIXPRE">     1</i>
     <i type="int" name="MREMOVE">     5</i>
    </separator>
   </separator>
   <separator name="electronic dipolcorrection" >
    <i type="logical" name="LDIPOL"> T  </i>
    <i type="logical" name="LMONO"> F  </i>
    <i type="int" name="IDIPOL">     3</i>
    <i name="EPSILON">      1.00000000</i>
    <v name="DIPOL">   -100.00000000   -100.00000000   -100.00000000</v>
    <i name="EFIELD">      0.00000000</i>
   </separator>
  </separator>
  <separator name="grids" >
   <i type="int" name="NGX">   100</i>
   <i type="int" name="NGY">   100</i>
   <i type="int" name="NGZ">   350</i>
   <i type="int" name="NGXF">   200</i>
   <i type="int" name="NGYF">   200</i>
   <i type="int" name="NGZF">   700</i>
   <i type="logical" name="ADDGRID"> F  </i>
  </separator>
  <separator name="ionic" >
   <i type="int" name="NSW">     0</i>
   <i type="int" name="IBRION">    -1</i>
   <i type="int" name="MDALGO">     0</i>
   <i type="int" name="ISIF">     2</i>
   <i name="PSTRESS">      0.00000000</i>
   <i name="EDIFFG">      0.00100000</i>
   <i type="int" name="NFREE">     0</i>
   <i name="POTIM">      0.50000000</i>
   <i name="SMASS">     -3.00000000</i>
   <i name="SCALEE">      1.00000000</i>
  </separator>
  <separator name="ionic md" >
   <i name="TEBEG">      0.00010000</i>
   <i name="TEEND">      0.00010000</i>
   <i type="int" name="NBLOCK">     1</i>
   <i type="int" name="KBLOCK">     1</i>
   <i type="int" name="NPACO">   256</i>
   <i name="APACO">     16.00000000</i>
  </separator>
  <separator name="symmetry" >
   <i type="int" name="ISYM">     0</i>
   <i name="SYMPREC">      0.00001000</i>
  </separator>
  <separator name="dos" >
   <i type="int" name="LORBIT">     0</i>
   <v name="RWIGS">     -1.00000000     -1.00000000     -1.00000000     -1.00000000     -1.00000000</v>
   <i type="int" name="NEDOS">   301</i>
   <i name="EMIN">     10.00000000</i>
   <i name="EMAX">    -10.00000000</i>
   <i name="EFERMI">      0.00000000</i>
  </separator>
  <separator name="writing" >
   <i type="int" name="NWRITE">     2</i>
   <i type="logical" name="LWAVE"> F  </i>
   <i type="logical" name="LDOWNSAMPLE"> F  </i>
   <i type="logical" name="LCHARG"> T  </i>
   <i type="logical" name="LPARD"> F  </i>
   <i type="logical" name="LVTOT"> T  </i>
   <i type="logical" name="LVHAR"> F  </i>
   <i type="logical" name="LELF"> F  </i>
   <i type="logical" name="LOPTICS"> F  </i>
   <v name="STM">      0.00000000      0.00000000      0.00000000      0.00000000      0.00000000      0.00000000      0.00000000</v>
  </separator>
  <separator name="performance" >
   <i type="int" name="NPAR">     4</i>
   <i type="int" name="NSIM">     4</i>
   <i type="int" name="NBLK">    -1</i>
   <i type="logical" name="LPLANE"> T  </i>
   <i type="logical" name="LSCALAPACK"> T  </i>
   <i type="logical" name="LSCAAWARE"> F  </i>
   <i type="logical" name="LSCALU"> F  </i>
   <i type="logical" name="LASYNC"> F  </i>
   <i type="logical" name="LORBITALREAL"> F  </i>
  </separator>
  <separator name="miscellaneous" >
   <i type="int" name="IDIOT">     3</i>
   <i type="int" name="PHON_NSTRUCT">    -1</i>
   <i type="logical" name="LMUSIC"> F  </i>
   <v name="POMASS">      1.00000000     12.01100000     14.00100000    126.90400000    207.20000000</v>
   <v name="DARWINR">      0.00000000      0.00000000      0.00000000      0.00000000      0.00000000</v>
   <v name="DARWINV">      1.00000000      1.00000000      1.00000000      1.00000000      1.00000000</v>
   <i type="logical" name="LCORR"> T  </i>
  </separator>
  <i type="logical" name="GGA_COMPAT"> F  </i>
  <i type="logical" name="LBERRY"> F  </i>
  <i type="int" name="ICORELEVEL">     0</i>
  <i type="logical" name="LDAU"> F  </i>
  <i type="int" name="I_CONSTRAINED_M">     0</i>
  <separator name="electronic exchange-correlation" >
   <i type="string" name="GGA">--</i>
   <i type="int" name="VOSKOWN">     0</i>
   <i type="logical" name="LHFCALC"> F  </i>
   <i type="string" name="PRECFOCK"></i>
   <i type="logical" name="LSYMGRAD"> F  </i>
   <i type="logical" name="LHFONE"> F  </i>
   <i type="logical" name="LRHFCALC"> F  </i>
   <i type="logical" name="LTHOMAS"> F  </i>
   <i type="logical" name="LMODELHF"> F  </i>
   <i type="logical" name="LFOCKACE"> F  </i>
   <i name="ENCUT4O">     -1.00000000</i>
   <i type="int" name="EXXOEP">     0</i>
   <i type="int" name="FOURORBIT">     0</i>
   <i name="AEXX">      0.00000000</i>
   <i name="HFALPHA">      0.00000000</i>
   <i name="MCALPHA">      0.00000000</i>
   <i name="ALDAX">      1.00000000</i>
   <i name="AGGAX">      1.00000000</i>
   <i name="ALDAC">      1.00000000</i>
   <i name="AGGAC">      1.00000000</i>
   <i type="int" name="NKREDX">     1</i>
   <i type="int" name="NKREDY">     1</i>
   <i type="int" name="NKREDZ">     1</i>
   <i type="logical" name="SHIFTRED"> F  </i>
   <i type="logical" name="ODDONLY"> F  </i>
   <i type="logical" name="EVENONLY"> F  </i>
   <i type="int" name="LMAXFOCK">     0</i>
   <i type="int" name="NMAXFOCKAE">     0</i>
   <i type="logical" name="LFOCKAEDFT"> F  </i>
   <i name="HFSCREEN">      0.00000000</i>
   <i name="HFSCREENC">      0.00000000</i>
   <i type="int" name="NBANDSGWLOW">     0</i>
  </separator>
  <separator name="vdW DFT" >
   <i type="logical" name="LUSE_VDW"> F  </i>
   <i name="Zab_VDW">     -0.84910000</i>
   <i name="PARAM1">      0.12340000</i>
   <i name="PARAM2">      1.00000000</i>
   <i name="PARAM3">      0.00000000</i>
  </separator>
  <separator name="model GW" >
   <i type="int" name="MODEL_GW">     0</i>
   <i name="MODEL_EPS0">     37.63423484</i>
   <i name="MODEL_ALPHA">      1.00000000</i>
  </separator>
  <separator name="linear response parameters" >
   <i type="logical" name="LEPSILON"> F  </i>
   <i type="logical" name="LRPA"> F  </i>
   <i type="logical" name="LNABLA"> F  </i>
   <i type="logical" name="LVEL"> F  </i>
   <i type="int" name="KINTER">     0</i>
   <i name="CSHIFT">      0.10000000</i>
   <i name="OMEGAMAX">     -1.00000000</i>
   <i name="DEG_THRESHOLD">      0.00200000</i>
   <i name="RTIME">     -0.10000000</i>
   <i name="WPLASMAI">      0.00000000</i>
   <v name="DFIELD">      0.00000000      0.00000000      0.00000000</v>
   <v name="WPLASMA">      0.00000000      0.00000000      0.00000000      0.00000000      0.00000000      0.00000000      0.00000000      0.00000000      0.00000000</v>
  </separator>
  <separator name="orbital magnetization" >
   <i type="logical" name="NUCIND"> F  </i>
   <v name="MAGPOS">      0.00000000      0.00000000      0.00000000</v>
   <i type="logical" name="LNICSALL"> T  </i>
   <i type="logical" name="ORBITALMAG"> F  </i>
   <i type="logical" name="LMAGBLOCH"> F  </i>
   <i type="logical" name="LCHIMAG"> F  </i>
   <i type="logical" name="LGAUGE"> T  </i>
   <i type="int" name="MAGATOM">     0</i>
   <v name="MAGDIPOL">      0.00000000      0.00000000      0.00000000</v>
   <v name="AVECCONST">      0.00000000      0.00000000      0.00000000</v>
  </separator>
  <separator name="response functions" >
   <i type="logical" name="LFINITE_TEMPERATURE"> F  </i>
   <i type="logical" name="LADDER"> F  </i>
   <i type="logical" name="LRPAFORCE"> F  </i>
   <i type="logical" name="LFXC"> F  </i>
   <i type="logical" name="LHARTREE"> T  </i>
   <i type="int" name="IBSE">     0</i>
   <v type="int" name="KPOINT">    -1     0     0     0</v>
   <i type="logical" name="LTCTC"> F  </i>
   <i type="logical" name="LTCTE"> F  </i>
   <i type="logical" name="LTETE"> F  </i>
   <i type="logical" name="LTRIPLET"> F  </i>
   <i type="logical" name="LFXCEPS"> F  </i>
   <i type="logical" name="LFXHEG"> F  </i>
   <i type="int" name="NATURALO">     2</i>
   <i type="logical" name="LHOLEGF"> F  </i>
   <i type="logical" name="L2ORDER"> F  </i>
   <i type="logical" name="LDMP1"> F  </i>
   <i type="logical" name="LMP2LT"> F  </i>
   <i type="logical" name="LSMP2LT"> F  </i>
   <i type="logical" name="LGWLF"> F  </i>
   <i name="ENCUTGW">     -2.00000000</i>
   <i name="ENCUTGWSOFT">     -2.00000000</i>
   <i name="ENCUTLF">     -1.00000000</i>
   <i type="logical" name="LESF_SPLINES"> F  </i>
   <i type="int" name="LMAXMP2">    -1</i>
   <i name="SCISSOR">      0.00000000</i>
   <i type="int" name="NOMEGA">     0</i>
   <i type="int" name="NOMEGAR">     0</i>
   <i type="int" name="NBANDSGW">    -1</i>
   <i type="int" name="NBANDSO">    -1</i>
   <i type="int" name="NBANDSV">    -1</i>
   <i type="int" name="NELM">   600</i>
   <i type="int" name="NELMHF">     1</i>
   <i type="int" name="DIM">     3</i>
   <i type="int" name="IESPILON">     4</i>
   <i type="int" name="ANTIRES">     0</i>
   <i name="OMEGAMAX">    -30.00000000</i>
   <i name="OMEGAMIN">    -30.00000000</i>
   <i name="OMEGATL">   -200.00000000</i>
   <i type="int" name="OMEGAGRID">     0</i>
   <i name="CSHIFT">     -0.10000000</i>
   <i type="logical" name="LSELFENERGY"> F  </i>
   <i type="logical" name="LSPECTRAL"> F  </i>
   <i type="logical" name="LSPECTRALGW"> F  </i>
   <i type="logical" name="LSINGLES"> F  </i>
   <i type="logical" name="LFERMIGW"> F  </i>
   <i type="logical" name="ODDONLYGW"> F  </i>
   <i type="logical" name="EVENONLYGW"> F  </i>
   <i type="int" name="NKREDLFX">     1</i>
   <i type="int" name="NKREDLFY">     1</i>
   <i type="int" name="NKREDLFZ">     1</i>
   <i type="int" name="MAXMEM">  2800</i>
   <i type="int" name="TELESCOPE">     0</i>
   <i type="int" name="NTAUPAR">    -1</i>
   <i type="int" name="NOMEGAPAR">    -1</i>
   <i name="DAMP_NEWTON">      0.80000001</i>
   <i name="LAMBDA">      1.00000000</i>
  </separator>
  <separator name="External order field" >
   <i name="OFIELD_KAPPA">      0.00000000</i>
   <v name="OFIELD_K">      0.00000000      0.00000000      0.00000000</v>
   <i name="OFIELD_Q6_NEAR">      0.00000000</i>
   <i name="OFIELD_Q6_FAR">      0.00000000</i>
   <i name="OFIELD_A">      0.00000000</i>
  </separator>
 </parameters>
 <atominfo>
  <atoms>     325 </atoms>
  <types>       5 </types>
  <array name="atoms" >
   <dimension dim="1">ion</dimension>
   <field type="string">element</field>
   <field type="int">atomtype</field>
   <set>
    <rc><c>H </c><c>   1</c></rc>
    <rc><c>H </c><c>   1</c></rc>
    <rc><c>H </c><c>   1</c></rc>
    <rc><c>H </c><c>   1</c></rc>
    <rc><c>H </c><c>   1</c></rc>
    <rc><c>H </c><c>   1</c></rc>
    <rc><c>H </c><c>   1</c></rc>
    <rc><c>H </c><c>   1</c></rc>
    <rc><c>H </c><c>   1</c></rc>
    <rc><c>H </c><c>   1</c></rc>
    <rc><c>H </c><c>   1</c></rc>
    <rc><c>H </c><c>   1</c></rc>
    <rc><c>H </c><c>   1</c></rc>
    <rc><c>H </c><c>   1</c></rc>
    <rc><c>H </c><c>   1</c></rc>
    <rc><c>H </c><c>   1</c></rc>
    <rc><c>H </c><c>   1</c></rc>
    <rc><c>H </c><c>   1</c></rc>
    <rc><c>H </c><c>   1</c></rc>
    <rc><c>H </c><c>   1</c></rc>
    <rc><c>H </c><c>   1</c></rc>
    <rc><c>H </c><c>   1</c></rc>
    <rc><c>H </c><c>   1</c></rc>
    <rc><c>H </c><c>   1</c></rc>
    <rc><c>H </c><c>   1</c></rc>
    <rc><c>H </c><c>   1</c></rc>
    <rc><c>H </c><c>   1</c></rc>
    <rc><c>H </c><c>   1</c></rc>
    <rc><c>H </c><c>   1</c></rc>
    <rc><c>H </c><c>   1</c></rc>
    <rc><c>H </c><c>   1</c></rc>
    <rc><c>H </c><c>   1</c></rc>
    <rc><c>H </c><c>   1</c></rc>
    <rc><c>H </c><c>   1</c></rc>
    <rc><c>H </c><c>   1</c></rc>
    <rc><c>H </c><c>   1</c></rc>
    <rc><c>H </c><c>   1</c></rc>
    <rc><c>H </c><c>   1</c></rc>
    <rc><c>H </c><c>   1</c></rc>
    <rc><c>H </c><c>   1</c></rc>
    <rc><c>H </c><c>   1</c></rc>
    <rc><c>H </c><c>   1</c></rc>
    <rc><c>H </c><c>   1</c></rc>
    <rc><c>H </c><c>   1</c></rc>
    <rc><c>H </c><c>   1</c></rc>
    <rc><c>H </c><c>   1</c></rc>
    <rc><c>H </c><c>   1</c></rc>
    <rc><c>H </c><c>   1</c></rc>
    <rc><c>H </c><c>   1</c></rc>
    <rc><c>H </c><c>   1</c></rc>
    <rc><c>H </c><c>   1</c></rc>
    <rc><c>H </c><c>   1</c></rc>
    <rc><c>H </c><c>   1</c></rc>
    <rc><c>H </c><c>   1</c></rc>
    <rc><c>H </c><c>   1</c></rc>
    <rc><c>H </c><c>   1</c></rc>
    <rc><c>H </c><c>   1</c></rc>
    <rc><c>H </c><c>   1</c></rc>
    <rc><c>H </c><c>   1</c></rc>
    <rc><c>H </c><c>   1</c></rc>
    <rc><c>H </c><c>   1</c></rc>
    <rc><c>H </c><c>   1</c></rc>
    <rc><c>H </c><c>   1</c></rc>
    <rc><c>H </c><c>   1</c></rc>
    <rc><c>H </c><c>   1</c></rc>
    <rc><c>H </c><c>   1</c></rc>
    <rc><c>H </c><c>   1</c></rc>
    <rc><c>H </c><c>   1</c></rc>
    <rc><c>H </c><c>   1</c></rc>
    <rc><c>H </c><c>   1</c></rc>
    <rc><c>H </c><c>   1</c></rc>
    <rc><c>H </c><c>   1</c></rc>
    <rc><c>H </c><c>   1</c></rc>
    <rc><c>H </c><c>   1</c></rc>
    <rc><c>H </c><c>   1</c></rc>
    <rc><c>H </c><c>   1</c></rc>
    <rc><c>H </c><c>   1</c></rc>
    <rc><c>H </c><c>   1</c></rc>
    <rc><c>H </c><c>   1</c></rc>
    <rc><c>H </c><c>   1</c></rc>
    <rc><c>H </c><c>   1</c></rc>
    <rc><c>H </c><c>   1</c></rc>
    <rc><c>H </c><c>   1</c></rc>
    <rc><c>H </c><c>   1</c></rc>
    <rc><c>H </c><c>   1</c></rc>
    <rc><c>H </c><c>   1</c></rc>
    <rc><c>H </c><c>   1</c></rc>
    <rc><c>H </c><c>   1</c></rc>
    <rc><c>H </c><c>   1</c></rc>
    <rc><c>H </c><c>   1</c></rc>
    <rc><c>H </c><c>   1</c></rc>
    <rc><c>H </c><c>   1</c></rc>
    <rc><c>H </c><c>   1</c></rc>
    <rc><c>H </c><c>   1</c></rc>
    <rc><c>H </c><c>   1</c></rc>
    <rc><c>H </c><c>   1</c></rc>
    <rc><c>H </c><c>   1</c></rc>
    <rc><c>H </c><c>   1</c></rc>
    <rc><c>H </c><c>   1</c></rc>
    <rc><c>H </c><c>   1</c></rc>
    <rc><c>H </c><c>   1</c></rc>
    <rc><c>H </c><c>   1</c></rc>
    <rc><c>H </c><c>   1</c></rc>
    <rc><c>H </c><c>   1</c></rc>
    <rc><c>H </c><c>   1</c></rc>
    <rc><c>H </c><c>   1</c></rc>
    <rc><c>H </c><c>   1</c></rc>
    <rc><c>H </c><c>   1</c></rc>
    <rc><c>H </c><c>   1</c></rc>
    <rc><c>H </c><c>   1</c></rc>
    <rc><c>H </c><c>   1</c></rc>
    <rc><c>H </c><c>   1</c></rc>
    <rc><c>H </c><c>   1</c></rc>
    <rc><c>H </c><c>   1</c></rc>
    <rc><c>H </c><c>   1</c></rc>
    <rc><c>H </c><c>   1</c></rc>
    <rc><c>H </c><c>   1</c></rc>
    <rc><c>H </c><c>   1</c></rc>
    <rc><c>H </c><c>   1</c></rc>
    <rc><c>H </c><c>   1</c></rc>
    <rc><c>H </c><c>   1</c></rc>
    <rc><c>H </c><c>   1</c></rc>
    <rc><c>H </c><c>   1</c></rc>
    <rc><c>H </c><c>   1</c></rc>
    <rc><c>H </c><c>   1</c></rc>
    <rc><c>H </c><c>   1</c></rc>
    <rc><c>H </c><c>   1</c></rc>
    <rc><c>H </c><c>   1</c></rc>
    <rc><c>H </c><c>   1</c></rc>
    <rc><c>H </c><c>   1</c></rc>
    <rc><c>H </c><c>   1</c></rc>
    <rc><c>H </c><c>   1</c></rc>
    <rc><c>H </c><c>   1</c></rc>
    <rc><c>H </c><c>   1</c></rc>
    <rc><c>H </c><c>   1</c></rc>
    <rc><c>H </c><c>   1</c></rc>
    <rc><c>H </c><c>   1</c></rc>
    <rc><c>H </c><c>   1</c></rc>
    <rc><c>H </c><c>   1</c></rc>
    <rc><c>H </c><c>   1</c></rc>
    <rc><c>H </c><c>   1</c></rc>
    <rc><c>H </c><c>   1</c></rc>
    <rc><c>H </c><c>   1</c></rc>
    <rc><c>C </c><c>   2</c></rc>
    <rc><c>C </c><c>   2</c></rc>
    <rc><c>C </c><c>   2</c></rc>
    <rc><c>C </c><c>   2</c></rc>
    <rc><c>C </c><c>   2</c></rc>
    <rc><c>C </c><c>   2</c></rc>
    <rc><c>C </c><c>   2</c></rc>
    <rc><c>C </c><c>   2</c></rc>
    <rc><c>C </c><c>   2</c></rc>
    <rc><c>C </c><c>   2</c></rc>
    <rc><c>C </c><c>   2</c></rc>
    <rc><c>C </c><c>   2</c></rc>
    <rc><c>C </c><c>   2</c></rc>
    <rc><c>C </c><c>   2</c></rc>
    <rc><c>C </c><c>   2</c></rc>
    <rc><c>C </c><c>   2</c></rc>
    <rc><c>C </c><c>   2</c></rc>
    <rc><c>C </c><c>   2</c></rc>
    <rc><c>C </c><c>   2</c></rc>
    <rc><c>C </c><c>   2</c></rc>
    <rc><c>C </c><c>   2</c></rc>
    <rc><c>C </c><c>   2</c></rc>
    <rc><c>C </c><c>   2</c></rc>
    <rc><c>C </c><c>   2</c></rc>
    <rc><c>C </c><c>   2</c></rc>
    <rc><c>C </c><c>   2</c></rc>
    <rc><c>C </c><c>   2</c></rc>
    <rc><c>C </c><c>   2</c></rc>
    <rc><c>C </c><c>   2</c></rc>
    <rc><c>C </c><c>   2</c></rc>
    <rc><c>C </c><c>   2</c></rc>
    <rc><c>C </c><c>   2</c></rc>
    <rc><c>C </c><c>   2</c></rc>
    <rc><c>C </c><c>   2</c></rc>
    <rc><c>C </c><c>   2</c></rc>
    <rc><c>C </c><c>   2</c></rc>
    <rc><c>C </c><c>   2</c></rc>
    <rc><c>C </c><c>   2</c></rc>
    <rc><c>C </c><c>   2</c></rc>
    <rc><c>N </c><c>   3</c></rc>
    <rc><c>N </c><c>   3</c></rc>
    <rc><c>N </c><c>   3</c></rc>
    <rc><c>N </c><c>   3</c></rc>
    <rc><c>N </c><c>   3</c></rc>
    <rc><c>N </c><c>   3</c></rc>
    <rc><c>N </c><c>   3</c></rc>
    <rc><c>N </c><c>   3</c></rc>
    <rc><c>N </c><c>   3</c></rc>
    <rc><c>N </c><c>   3</c></rc>
    <rc><c>N </c><c>   3</c></rc>
    <rc><c>N </c><c>   3</c></rc>
    <rc><c>N </c><c>   3</c></rc>
    <rc><c>N </c><c>   3</c></rc>
    <rc><c>N </c><c>   3</c></rc>
    <rc><c>N </c><c>   3</c></rc>
    <rc><c>N </c><c>   3</c></rc>
    <rc><c>N </c><c>   3</c></rc>
    <rc><c>N </c><c>   3</c></rc>
    <rc><c>N </c><c>   3</c></rc>
    <rc><c>N </c><c>   3</c></rc>
    <rc><c>N </c><c>   3</c></rc>
    <rc><c>N </c><c>   3</c></rc>
    <rc><c>N </c><c>   3</c></rc>
    <rc><c>N </c><c>   3</c></rc>
    <rc><c>N </c><c>   3</c></rc>
    <rc><c>N </c><c>   3</c></rc>
    <rc><c>N </c><c>   3</c></rc>
    <rc><c>N </c><c>   3</c></rc>
    <rc><c>N </c><c>   3</c></rc>
    <rc><c>N </c><c>   3</c></rc>
    <rc><c>N </c><c>   3</c></rc>
    <rc><c>N </c><c>   3</c></rc>
    <rc><c>N </c><c>   3</c></rc>
    <rc><c>N </c><c>   3</c></rc>
    <rc><c>N </c><c>   3</c></rc>
    <rc><c>N </c><c>   3</c></rc>
    <rc><c>N </c><c>   3</c></rc>
    <rc><c>N </c><c>   3</c></rc>
    <rc><c>N </c><c>   3</c></rc>
    <rc><c>N </c><c>   3</c></rc>
    <rc><c>N </c><c>   3</c></rc>
    <rc><c>N </c><c>   3</c></rc>
    <rc><c>N </c><c>   3</c></rc>
    <rc><c>N </c><c>   3</c></rc>
    <rc><c>N </c><c>   3</c></rc>
    <rc><c>N </c><c>   3</c></rc>
    <rc><c>I </c><c>   4</c></rc>
    <rc><c>I </c><c>   4</c></rc>
    <rc><c>I </c><c>   4</c></rc>
    <rc><c>I </c><c>   4</c></rc>
    <rc><c>I </c><c>   4</c></rc>
    <rc><c>I </c><c>   4</c></rc>
    <rc><c>I </c><c>   4</c></rc>
    <rc><c>I </c><c>   4</c></rc>
    <rc><c>I </c><c>   4</c></rc>
    <rc><c>I </c><c>   4</c></rc>
    <rc><c>I </c><c>   4</c></rc>
    <rc><c>I </c><c>   4</c></rc>
    <rc><c>I </c><c>   4</c></rc>
    <rc><c>I </c><c>   4</c></rc>
    <rc><c>I </c><c>   4</c></rc>
    <rc><c>I </c><c>   4</c></rc>
    <rc><c>I </c><c>   4</c></rc>
    <rc><c>I </c><c>   4</c></rc>
    <rc><c>I </c><c>   4</c></rc>
    <rc><c>I </c><c>   4</c></rc>
    <rc><c>I </c><c>   4</c></rc>
    <rc><c>I </c><c>   4</c></rc>
    <rc><c>I </c><c>   4</c></rc>
    <rc><c>I </c><c>   4</c></rc>
    <rc><c>I </c><c>   4</c></rc>
    <rc><c>I </c><c>   4</c></rc>
    <rc><c>I </c><c>   4</c></rc>
    <rc><c>I </c><c>   4</c></rc>
    <rc><c>I </c><c>   4</c></rc>
    <rc><c>I </c><c>   4</c></rc>
    <rc><c>I </c><c>   4</c></rc>
    <rc><c>I </c><c>   4</c></rc>
    <rc><c>I </c><c>   4</c></rc>
    <rc><c>I </c><c>   4</c></rc>
    <rc><c>I </c><c>   4</c></rc>
    <rc><c>I </c><c>   4</c></rc>
    <rc><c>I </c><c>   4</c></rc>
    <rc><c>I </c><c>   4</c></rc>
    <rc><c>I </c><c>   4</c></rc>
    <rc><c>I </c><c>   4</c></rc>
    <rc><c>I </c><c>   4</c></rc>
    <rc><c>I </c><c>   4</c></rc>
    <rc><c>I </c><c>   4</c></rc>
    <rc><c>I </c><c>   4</c></rc>
    <rc><c>I </c><c>   4</c></rc>
    <rc><c>I </c><c>   4</c></rc>
    <rc><c>I </c><c>   4</c></rc>
    <rc><c>I </c><c>   4</c></rc>
    <rc><c>I </c><c>   4</c></rc>
    <rc><c>I </c><c>   4</c></rc>
    <rc><c>I </c><c>   4</c></rc>
    <rc><c>I </c><c>   4</c></rc>
    <rc><c>I </c><c>   4</c></rc>
    <rc><c>I </c><c>   4</c></rc>
    <rc><c>I </c><c>   4</c></rc>
    <rc><c>I </c><c>   4</c></rc>
    <rc><c>I </c><c>   4</c></rc>
    <rc><c>I </c><c>   4</c></rc>
    <rc><c>I </c><c>   4</c></rc>
    <rc><c>I </c><c>   4</c></rc>
    <rc><c>I </c><c>   4</c></rc>
    <rc><c>I </c><c>   4</c></rc>
    <rc><c>I </c><c>   4</c></rc>
    <rc><c>I </c><c>   4</c></rc>
    <rc><c>I </c><c>   4</c></rc>
    <rc><c>I </c><c>   4</c></rc>
    <rc><c>I </c><c>   4</c></rc>
    <rc><c>I </c><c>   4</c></rc>
    <rc><c>I </c><c>   4</c></rc>
    <rc><c>I </c><c>   4</c></rc>
    <rc><c>I </c><c>   4</c></rc>
    <rc><c>I </c><c>   4</c></rc>
    <rc><c>Pb</c><c>   5</c></rc>
    <rc><c>Pb</c><c>   5</c></rc>
    <rc><c>Pb</c><c>   5</c></rc>
    <rc><c>Pb</c><c>   5</c></rc>
    <rc><c>Pb</c><c>   5</c></rc>
    <rc><c>Pb</c><c>   5</c></rc>
    <rc><c>Pb</c><c>   5</c></rc>
    <rc><c>Pb</c><c>   5</c></rc>
    <rc><c>Pb</c><c>   5</c></rc>
    <rc><c>Pb</c><c>   5</c></rc>
    <rc><c>Pb</c><c>   5</c></rc>
    <rc><c>Pb</c><c>   5</c></rc>
    <rc><c>Pb</c><c>   5</c></rc>
    <rc><c>Pb</c><c>   5</c></rc>
    <rc><c>Pb</c><c>   5</c></rc>
    <rc><c>Pb</c><c>   5</c></rc>
    <rc><c>Pb</c><c>   5</c></rc>
    <rc><c>Pb</c><c>   5</c></rc>
    <rc><c>Pb</c><c>   5</c></rc>
    <rc><c>Pb</c><c>   5</c></rc>
    <rc><c>Pb</c><c>   5</c></rc>
    <rc><c>Pb</c><c>   5</c></rc>
    <rc><c>Pb</c><c>   5</c></rc>
    <rc><c>Pb</c><c>   5</c></rc>
   </set>
  </array>
  <array name="atomtypes" >
   <dimension dim="1">type</dimension>
   <field type="int">atomspertype</field>
   <field type="string">element</field>
   <field>mass</field>
   <field>valence</field>
   <field type="string">pseudopotential</field>
   <set>
    <rc><c> 143</c><c>H </c><c>      1.00000000</c><c>      1.00000000</c><c>  PAW_PBE H 15Jun2001                   </c></rc>
    <rc><c>  39</c><c>C </c><c>     12.01100000</c><c>      4.00000000</c><c>  PAW_PBE C 08Apr2002                   </c></rc>
    <rc><c>  47</c><c>N </c><c>     14.00100000</c><c>      5.00000000</c><c>  PAW_PBE N 08Apr2002                   </c></rc>
    <rc><c>  72</c><c>I </c><c>    126.90400000</c><c>      7.00000000</c><c>  PAW_PBE I 08Apr2002                   </c></rc>
    <rc><c>  24</c><c>Pb</c><c>    207.20000000</c><c>      4.00000000</c><c>  PAW_PBE Pb 08Apr2002                  </c></rc>
   </set>
  </array>
 </atominfo>
 <structure name="initialpos" >
  <crystal>
   <varray name="basis" >
    <v>      18.06080055       0.00000000       0.00000000 </v>
    <v>      -0.00491865      18.06279945       0.00000000 </v>
    <v>       0.00000000       0.00000000      62.48749924 </v>
   </varray>
   <i name="volume">  20385.21054034 </i>
   <varray name="rec_basis" >
    <v>       0.05536853       0.00001508      -0.00000000 </v>
    <v>       0.00000000       0.05536240       0.00000000 </v>
    <v>       0.00000000      -0.00000000       0.01600320 </v>
   </varray>
  </crystal>
  <varray name="positions" >
   <v>       0.46490561       0.33953804       0.56257132 </v>
   <v>       0.43730939       0.82249692       0.57488421 </v>
   <v>       0.92344178       0.28640679       0.57596908 </v>
   <v>       0.93392373       0.81772876       0.57256240 </v>
   <v>       0.32404746       0.07692533       0.57070491 </v>
   <v>       0.34841718       0.54388466       0.55634388 </v>
   <v>       0.80724511       0.09295920       0.56490394 </v>
   <v>       0.10874535       0.25065284       0.55620091 </v>
   <v>       0.07475001       0.67606714       0.57730211 </v>
   <v>       0.55210586       0.15591600       0.56091376 </v>
   <v>       0.50347091       0.64342570       0.55612246 </v>
   <v>       0.37806617       0.01256975       0.55728987 </v>
   <v>       0.29367926       0.62210699       0.55099546 </v>
   <v>       0.87712220       0.03263409       0.55589848 </v>
   <v>       0.06030864       0.29247203       0.57689621 </v>
   <v>       0.98586584       0.69752824       0.58547422 </v>
   <v>       0.57265108       0.24838418       0.56733686 </v>
   <v>       0.44585388       0.68444666       0.57491003 </v>
   <v>       0.27407350       0.43475754       0.57189637 </v>
   <v>       0.18916177       0.05709861       0.57221925 </v>
   <v>       0.68726733       0.03248824       0.57582477 </v>
   <v>       0.38141655       0.29678452       0.55506561 </v>
   <v>       0.49562907       0.86896149       0.55729250 </v>
   <v>       0.88243987       0.23554444       0.55527647 </v>
   <v>       0.98845741       0.86843045       0.55499705 </v>
   <v>       0.17849894       0.44345171       0.56938457 </v>
   <v>       0.15454197       0.97915392       0.55985203 </v>
   <v>       0.68194112       0.93721501       0.57009938 </v>
   <v>       0.43022075       0.18159087       0.55245620 </v>
   <v>       0.54302036       0.75982885       0.54263203 </v>
   <v>       0.99865557       0.20919413       0.53937229 </v>
   <v>       0.08423737       0.78051097       0.55520242 </v>
   <v>       0.18303641       0.56104101       0.55616507 </v>
   <v>       0.27261454       0.93834138       0.54894427 </v>
   <v>       0.79912262       0.92916457       0.55747936 </v>
   <v>       0.44126742       0.30133975       0.67130077 </v>
   <v>       0.45270918       0.80514554       0.67394736 </v>
   <v>       0.94761937       0.28565447       0.67464244 </v>
   <v>       0.91892597       0.73716786       0.66815384 </v>
   <v>       0.30109363       0.05221769       0.67255237 </v>
   <v>       0.29615527       0.56132796       0.67349372 </v>
   <v>       0.80540323       0.05770396       0.67343847 </v>
   <v>       0.84209555       0.46905812       0.66200295 </v>
   <v>       0.08438908       0.16753626       0.64777098 </v>
   <v>       0.11184075       0.70841529       0.65367237 </v>
   <v>       0.57906389       0.17169086       0.64987235 </v>
   <v>       0.57295702       0.66989276       0.64683689 </v>
   <v>       0.18443542       0.41249900       0.64960991 </v>
   <v>       0.16921044       0.92394855       0.64742741 </v>
   <v>       0.64136629       0.47368256       0.65536625 </v>
   <v>       0.67510989       0.91922884       0.65235784 </v>
   <v>       0.05223677       0.18619637       0.67343938 </v>
   <v>       0.03732872       0.66520422       0.66637852 </v>
   <v>       0.54341084       0.20177950       0.67430174 </v>
   <v>       0.55093445       0.69835083       0.67270108 </v>
   <v>       0.20472574       0.44919657       0.67456559 </v>
   <v>       0.19837956       0.95058169       0.67294466 </v>
   <v>       0.71350474       0.41353893       0.66241496 </v>
   <v>       0.70539795       0.95450425       0.67684540 </v>
   <v>       0.41954090       0.32666546       0.64523220 </v>
   <v>       0.42308854       0.83388401       0.64883931 </v>
   <v>       0.92414237       0.32162623       0.64955253 </v>
   <v>       0.91903124       0.82305684       0.65524922 </v>
   <v>       0.32812201       0.07951080       0.64703280 </v>
   <v>       0.32275073       0.58695074       0.64775590 </v>
   <v>       0.82893024       0.07911944       0.64705294 </v>
   <v>       0.84909674       0.55717173       0.65119110 </v>
   <v>       0.00817432       0.25093418       0.63107214 </v>
   <v>       0.04171145       0.81324365       0.64462796 </v>
   <v>       0.50462996       0.24889378       0.62972837 </v>
   <v>       0.49432374       0.75119399       0.63021712 </v>
   <v>       0.24777073       0.00191421       0.62955396 </v>
   <v>       0.25714834       0.49445297       0.63099584 </v>
   <v>       0.75029646       0.99417353       0.63208852 </v>
   <v>       0.72209078       0.57068519       0.64698365 </v>
   <v>       0.44874502       0.30128397       0.76888902 </v>
   <v>       0.44874501       0.80128391       0.76888902 </v>
   <v>       0.94874497       0.30128397       0.76888902 </v>
   <v>       0.94874501       0.80128391       0.76888902 </v>
   <v>       0.30127600       0.05129450       0.76887296 </v>
   <v>       0.30127601       0.55129450       0.76887296 </v>
   <v>       0.80127594       0.05129450       0.76887296 </v>
   <v>       0.80127598       0.55129450       0.76887296 </v>
   <v>       0.07877100       0.17118050       0.74344197 </v>
   <v>       0.07877101       0.67118045       0.74344197 </v>
   <v>       0.57877100       0.17118050       0.74344197 </v>
   <v>       0.57877099       0.67118045       0.74344197 </v>
   <v>       0.17119950       0.42117448       0.74342103 </v>
   <v>       0.17119950       0.92117451       0.74342103 </v>
   <v>       0.67119951       0.42117448       0.74342103 </v>
   <v>       0.67119950       0.92117451       0.74342103 </v>
   <v>       0.05125600       0.19871499       0.76888902 </v>
   <v>       0.05125600       0.69871493       0.76888902 </v>
   <v>       0.55125603       0.19871499       0.76888902 </v>
   <v>       0.55125602       0.69871493       0.76888902 </v>
   <v>       0.19872349       0.44870397       0.76887205 </v>
   <v>       0.19872349       0.94870397       0.76887205 </v>
   <v>       0.69872352       0.44870397       0.76887205 </v>
   <v>       0.69872351       0.94870397       0.76887205 </v>
   <v>       0.42123152       0.32881747       0.74344197 </v>
   <v>       0.42123151       0.82881744       0.74344197 </v>
   <v>       0.92123147       0.32881747       0.74344197 </v>
   <v>       0.92123151       0.82881744       0.74344197 </v>
   <v>       0.32880050       0.07882500       0.74342103 </v>
   <v>       0.32880049       0.57882496       0.74342103 </v>
   <v>       0.82880048       0.07882500       0.74342103 </v>
   <v>       0.82880052       0.57882496       0.74342103 </v>
   <v>       0.00000350       0.25000148       0.72582199 </v>
   <v>       0.00000350       0.75000145       0.72582199 </v>
   <v>       0.50000351       0.25000148       0.72582199 </v>
   <v>       0.50000350       0.75000145       0.72582199 </v>
   <v>       0.25000050       0.00000000       0.72580398 </v>
   <v>       0.25000052       0.50000000       0.72580398 </v>
   <v>       0.75000050       0.00000000       0.72580398 </v>
   <v>       0.75000049       0.50000000       0.72580398 </v>
   <v>       0.72010761       0.44513284       0.53859839 </v>
   <v>       0.74229158       0.49704328       0.51567089 </v>
   <v>       0.66303868       0.55306185       0.55587485 </v>
   <v>       0.71025987       0.63908573       0.55449427 </v>
   <v>       0.85392879       0.50964102       0.56707772 </v>
   <v>       0.79346521       0.57933087       0.57648371 </v>
   <v>       0.87888744       0.55948363       0.53077553 </v>
   <v>       0.80880937       0.61803454       0.52024798 </v>
   <v>       0.87285093       0.46193740       0.51740921 </v>
   <v>       0.86322444       0.42574742       0.54336008 </v>
   <v>       0.87311943       0.32598041       0.51857681 </v>
   <v>       0.78427225       0.32391261       0.52984145 </v>
   <v>       0.63861189       0.55273947       0.51715342 </v>
   <v>       0.69631566       0.63263828       0.51311258 </v>
   <v>       0.61394457       0.63888478       0.52814177 </v>
   <v>       0.76437634       0.46657467       0.59494328 </v>
   <v>       0.75519655       0.41403663       0.57132216 </v>
   <v>       0.68798224       0.48269149       0.57788933 </v>
   <v>       0.81846721       0.69236352       0.55610909 </v>
   <v>       0.89673607       0.69356018       0.53915184 </v>
   <v>       0.89797195       0.63565071       0.56196878 </v>
   <v>       0.82052137       0.38056505       0.48486657 </v>
   <v>       0.78692146       0.29193447       0.49129874 </v>
   <v>       0.66283711       0.30210642       0.51813073 </v>
   <v>       0.73233924       0.46046339       0.47054568 </v>
   <v>       0.53534266       0.35338807       0.51664600 </v>
   <v>       0.60454112       0.51020458       0.46863774 </v>
   <v>       0.50566852       0.45837720       0.49234631 </v>
   <v>       0.99561052       0.24031474       0.55426998 </v>
   <v>       0.03307596       0.77022530       0.56409903 </v>
   <v>       0.46707446       0.22687371       0.55705704 </v>
   <v>       0.50117616       0.75681135       0.55516756 </v>
   <v>       0.23493387       0.53179932       0.55905145 </v>
   <v>       0.26659248       0.99068213       0.55753107 </v>
   <v>       0.77940560       0.98320089       0.56275880 </v>
   <v>       0.00446864       0.24481767       0.64850984 </v>
   <v>       0.01667308       0.76792400       0.65368446 </v>
   <v>       0.49971905       0.24921104       0.64716338 </v>
   <v>       0.49750232       0.75146052       0.64765078 </v>
   <v>       0.25451771       0.49877578       0.64836180 </v>
   <v>       0.24858786       0.00150852       0.64706576 </v>
   <v>       0.74402957       0.51881098       0.65322581 </v>
   <v>       0.75202727       0.99907331       0.64953604 </v>
   <v>       0.49998898       0.24999498       0.74327702 </v>
   <v>       0.49998903       0.74999496       0.74327702 </v>
   <v>       0.99998898       0.24999498       0.74327702 </v>
   <v>       0.99998903       0.74999496       0.74327702 </v>
   <v>       0.25000050       0.00000100       0.74325596 </v>
   <v>       0.25000052       0.50000100       0.74325596 </v>
   <v>       0.75000050       0.00000100       0.74325596 </v>
   <v>       0.75000049       0.50000100       0.74325596 </v>
   <v>       0.70688470       0.37859979       0.49452747 </v>
   <v>       0.65010669       0.34817799       0.50727978 </v>
   <v>       0.68894709       0.43665342       0.48063926 </v>
   <v>       0.57819084       0.37665525       0.50637750 </v>
   <v>       0.61693744       0.46485764       0.47961052 </v>
   <v>       0.56145068       0.43538427       0.49263149 </v>
   <v>       0.76404482       0.47793378       0.53104140 </v>
   <v>       0.69911343       0.58737260       0.54585417 </v>
   <v>       0.79565544       0.52715502       0.56757391 </v>
   <v>       0.83293591       0.59617698       0.53506002 </v>
   <v>       0.83421916       0.43241672       0.52797169 </v>
   <v>       0.81950582       0.35525937       0.51875091 </v>
   <v>       0.66117231       0.60276518       0.52463203 </v>
   <v>       0.74731160       0.46947121       0.57811459 </v>
   <v>       0.86232212       0.65757728       0.54925494 </v>
   <v>       0.78557606       0.35041307       0.49620771 </v>
   <v>       0.05809515       0.26154889       0.56305238 </v>
   <v>       0.02968077       0.70965566       0.57549584 </v>
   <v>       0.53596460       0.21015759       0.56150800 </v>
   <v>       0.48120765       0.69123655       0.56212067 </v>
   <v>       0.43753122       0.29319805       0.55749890 </v>
   <v>       0.47432064       0.81939685       0.56246211 </v>
   <v>       0.92999544       0.25343362       0.56256845 </v>
   <v>       0.97864683       0.81843287       0.56230247 </v>
   <v>       0.22968087       0.46325496       0.56589047 </v>
   <v>       0.19993051       0.01001655       0.56356694 </v>
   <v>       0.71074419       0.98587959       0.56959000 </v>
   <v>       0.32626638       0.02984364       0.56155598 </v>
   <v>       0.29690313       0.56698856       0.55483674 </v>
   <v>       0.82423706       0.03994356       0.56135575 </v>
   <v>       0.04882355       0.19647377       0.65736512 </v>
   <v>       0.05655186       0.70911301       0.65769258 </v>
   <v>       0.54324841       0.20525756       0.65804025 </v>
   <v>       0.54236589       0.70330452       0.65649611 </v>
   <v>       0.21274011       0.45054497       0.65834609 </v>
   <v>       0.20262923       0.95614290       0.65671405 </v>
   <v>       0.69721599       0.46524913       0.65744967 </v>
   <v>       0.70877815       0.95482590       0.66051169 </v>
   <v>       0.45075739       0.29517226       0.65533853 </v>
   <v>       0.45567752       0.79948895       0.65770235 </v>
   <v>       0.95647180       0.28680227       0.65851874 </v>
   <v>       0.94713514       0.77629735       0.65945612 </v>
   <v>       0.29544261       0.04678020       0.65642872 </v>
   <v>       0.29345555       0.55179734       0.65735456 </v>
   <v>       0.79731810       0.04894736       0.65750492 </v>
   <v>       0.81620273       0.51396885       0.65558712 </v>
   <v>       0.04586250       0.20411950       0.75272599 </v>
   <v>       0.04586250       0.70411946       0.75272599 </v>
   <v>       0.54586251       0.20411950       0.75272599 </v>
   <v>       0.54586250       0.70411946       0.75272599 </v>
   <v>       0.20411900       0.45410100       0.75270499 </v>
   <v>       0.20411899       0.95410095       0.75270499 </v>
   <v>       0.70411898       0.45410100       0.75270499 </v>
   <v>       0.70411896       0.95410095       0.75270499 </v>
   <v>       0.45414002       0.29588849       0.75272697 </v>
   <v>       0.45414001       0.79588852       0.75272697 </v>
   <v>       0.95414002       0.29588849       0.75272697 </v>
[...]
   <v>       0.55210586       0.15591600       0.56091376 </v>
   <v>       0.50347091       0.64342570       0.55612246 </v>
   <v>       0.37806617       0.01256975       0.55728987 </v>
   <v>       0.29367926       0.62210699       0.55099546 </v>
   <v>       0.87712220       0.03263409       0.55589848 </v>
   <v>       0.06030864       0.29247203       0.57689621 </v>
   <v>       0.98586584       0.69752824       0.58547422 </v>
   <v>       0.57265108       0.24838418       0.56733686 </v>
   <v>       0.44585388       0.68444666       0.57491003 </v>
   <v>       0.27407350       0.43475754       0.57189637 </v>
   <v>       0.18916177       0.05709861       0.57221925 </v>
   <v>       0.68726733       0.03248824       0.57582477 </v>
   <v>       0.38141655       0.29678452       0.55506561 </v>
   <v>       0.49562907       0.86896149       0.55729250 </v>
   <v>       0.88243987       0.23554444       0.55527647 </v>
   <v>       0.98845741       0.86843045       0.55499705 </v>
   <v>       0.17849894       0.44345171       0.56938457 </v>
   <v>       0.15454197       0.97915392       0.55985203 </v>
   <v>       0.68194112       0.93721501       0.57009938 </v>
   <v>       0.43022075       0.18159087       0.55245620 </v>
   <v>       0.54302036       0.75982885       0.54263203 </v>
   <v>       0.99865557       0.20919413       0.53937229 </v>
   <v>       0.08423737       0.78051097       0.55520242 </v>
   <v>       0.18303641       0.56104101       0.55616507 </v>
   <v>       0.27261454       0.93834138       0.54894427 </v>
   <v>       0.79912262       0.92916457       0.55747936 </v>
   <v>       0.44126742       0.30133975       0.67130077 </v>
   <v>       0.45270918       0.80514554       0.67394736 </v>
   <v>       0.94761937       0.28565447       0.67464244 </v>
   <v>       0.91892597       0.73716786       0.66815384 </v>
   <v>       0.30109363       0.05221769       0.67255237 </v>
   <v>       0.29615527       0.56132796       0.67349372 </v>
   <v>       0.80540323       0.05770396       0.67343847 </v>
   <v>       0.84209555       0.46905812       0.66200295 </v>
   <v>       0.08438908       0.16753626       0.64777098 </v>
   <v>       0.11184075       0.70841529       0.65367237 </v>
   <v>       0.57906389       0.17169086       0.64987235 </v>
   <v>       0.57295702       0.66989276       0.64683689 </v>
   <v>       0.18443542       0.41249900       0.64960991 </v>
   <v>       0.16921044       0.92394855       0.64742741 </v>
   <v>       0.64136629       0.47368256       0.65536625 </v>
   <v>       0.67510989       0.91922884       0.65235784 </v>
   <v>       0.05223677       0.18619637       0.67343938 </v>
   <v>       0.03732872       0.66520422       0.66637852 </v>
   <v>       0.54341084       0.20177950       0.67430174 </v>
   <v>       0.55093445       0.69835083       0.67270108 </v>
   <v>       0.20472574       0.44919657       0.67456559 </v>
   <v>       0.19837956       0.95058169       0.67294466 </v>
   <v>       0.71350474       0.41353893       0.66241496 </v>
   <v>       0.70539795       0.95450425       0.67684540 </v>
   <v>       0.41954090       0.32666546       0.64523220 </v>
   <v>       0.42308854       0.83388401       0.64883931 </v>
   <v>       0.92414237       0.32162623       0.64955253 </v>
   <v>       0.91903124       0.82305684       0.65524922 </v>
   <v>       0.32812201       0.07951080       0.64703280 </v>
   <v>       0.32275073       0.58695074       0.64775590 </v>
   <v>       0.82893024       0.07911944       0.64705294 </v>
   <v>       0.84909674       0.55717173       0.65119110 </v>
   <v>       0.00817432       0.25093418       0.63107214 </v>
   <v>       0.04171145       0.81324365       0.64462796 </v>
   <v>       0.50462996       0.24889378       0.62972837 </v>
   <v>       0.49432374       0.75119399       0.63021712 </v>
   <v>       0.24777073       0.00191421       0.62955396 </v>
   <v>       0.25714834       0.49445297       0.63099584 </v>
   <v>       0.75029646       0.99417353       0.63208852 </v>
   <v>       0.72209078       0.57068519       0.64698365 </v>
   <v>       0.44874502       0.30128397       0.76888902 </v>
   <v>       0.44874501       0.80128391       0.76888902 </v>
   <v>       0.94874497       0.30128397       0.76888902 </v>
   <v>       0.94874501       0.80128391       0.76888902 </v>
   <v>       0.30127600       0.05129450       0.76887296 </v>
   <v>       0.30127601       0.55129450       0.76887296 </v>
   <v>       0.80127594       0.05129450       0.76887296 </v>
   <v>       0.80127598       0.55129450       0.76887296 </v>
   <v>       0.07877100       0.17118050       0.74344197 </v>
   <v>       0.07877101       0.67118045       0.74344197 </v>
   <v>       0.57877100       0.17118050       0.74344197 </v>
   <v>       0.57877099       0.67118045       0.74344197 </v>
   <v>       0.17119950       0.42117448       0.74342103 </v>
   <v>       0.17119950       0.92117451       0.74342103 </v>
   <v>       0.67119951       0.42117448       0.74342103 </v>
   <v>       0.67119950       0.92117451       0.74342103 </v>
   <v>       0.05125600       0.19871499       0.76888902 </v>
   <v>       0.05125600       0.69871493       0.76888902 </v>
   <v>       0.55125603       0.19871499       0.76888902 </v>
   <v>       0.55125602       0.69871493       0.76888902 </v>
   <v>       0.19872349       0.44870397       0.76887205 </v>
   <v>       0.19872349       0.94870397       0.76887205 </v>
   <v>       0.69872352       0.44870397       0.76887205 </v>
   <v>       0.69872351       0.94870397       0.76887205 </v>
   <v>       0.42123152       0.32881747       0.74344197 </v>
   <v>       0.42123151       0.82881744       0.74344197 </v>
   <v>       0.92123147       0.32881747       0.74344197 </v>
   <v>       0.92123151       0.82881744       0.74344197 </v>
   <v>       0.32880050       0.07882500       0.74342103 </v>
   <v>       0.32880049       0.57882496       0.74342103 </v>
   <v>       0.82880048       0.07882500       0.74342103 </v>
   <v>       0.82880052       0.57882496       0.74342103 </v>
   <v>       0.00000350       0.25000148       0.72582199 </v>
   <v>       0.00000350       0.75000145       0.72582199 </v>
   <v>       0.50000351       0.25000148       0.72582199 </v>
   <v>       0.50000350       0.75000145       0.72582199 </v>
   <v>       0.25000050       0.00000000       0.72580398 </v>
   <v>       0.25000052       0.50000000       0.72580398 </v>
   <v>       0.75000050       0.00000000       0.72580398 </v>
   <v>       0.75000049       0.50000000       0.72580398 </v>
   <v>       0.72010761       0.44513284       0.53859839 </v>
   <v>       0.74229158       0.49704328       0.51567089 </v>
   <v>       0.66303868       0.55306185       0.55587485 </v>
   <v>       0.71025987       0.63908573       0.55449427 </v>
   <v>       0.85392879       0.50964102       0.56707772 </v>
   <v>       0.79346521       0.57933087       0.57648371 </v>
   <v>       0.87888744       0.55948363       0.53077553 </v>
   <v>       0.80880937       0.61803454       0.52024798 </v>
   <v>       0.87285093       0.46193740       0.51740921 </v>
   <v>       0.86322444       0.42574742       0.54336008 </v>
   <v>       0.87311943       0.32598041       0.51857681 </v>
   <v>       0.78427225       0.32391261       0.52984145 </v>
   <v>       0.63861189       0.55273947       0.51715342 </v>
   <v>       0.69631566       0.63263828       0.51311258 </v>
   <v>       0.61394457       0.63888478       0.52814177 </v>
   <v>       0.76437634       0.46657467       0.59494328 </v>
   <v>       0.75519655       0.41403663       0.57132216 </v>
   <v>       0.68798224       0.48269149       0.57788933 </v>
   <v>       0.81846721       0.69236352       0.55610909 </v>
   <v>       0.89673607       0.69356018       0.53915184 </v>
   <v>       0.89797195       0.63565071       0.56196878 </v>
   <v>       0.82052137       0.38056505       0.48486657 </v>
   <v>       0.78692146       0.29193447       0.49129874 </v>
   <v>       0.66283711       0.30210642       0.51813073 </v>
   <v>       0.73233924       0.46046339       0.47054568 </v>
   <v>       0.53534266       0.35338807       0.51664600 </v>
   <v>       0.60454112       0.51020458       0.46863774 </v>
   <v>       0.50566852       0.45837720       0.49234631 </v>
   <v>       0.99561052       0.24031474       0.55426998 </v>
   <v>       0.03307596       0.77022530       0.56409903 </v>
   <v>       0.46707446       0.22687371       0.55705704 </v>
   <v>       0.50117616       0.75681135       0.55516756 </v>
   <v>       0.23493387       0.53179932       0.55905145 </v>
   <v>       0.26659248       0.99068213       0.55753107 </v>
   <v>       0.77940560       0.98320089       0.56275880 </v>
   <v>       0.00446864       0.24481767       0.64850984 </v>
   <v>       0.01667308       0.76792400       0.65368446 </v>
   <v>       0.49971905       0.24921104       0.64716338 </v>
   <v>       0.49750232       0.75146052       0.64765078 </v>
   <v>       0.25451771       0.49877578       0.64836180 </v>
   <v>       0.24858786       0.00150852       0.64706576 </v>
   <v>       0.74402957       0.51881098       0.65322581 </v>
   <v>       0.75202727       0.99907331       0.64953604 </v>
   <v>       0.49998898       0.24999498       0.74327702 </v>
   <v>       0.49998903       0.74999496       0.74327702 </v>
   <v>       0.99998898       0.24999498       0.74327702 </v>
   <v>       0.99998903       0.74999496       0.74327702 </v>
   <v>       0.25000050       0.00000100       0.74325596 </v>
   <v>       0.25000052       0.50000100       0.74325596 </v>
   <v>       0.75000050       0.00000100       0.74325596 </v>
   <v>       0.75000049       0.50000100       0.74325596 </v>
   <v>       0.70688470       0.37859979       0.49452747 </v>
   <v>       0.65010669       0.34817799       0.50727978 </v>
   <v>       0.68894709       0.43665342       0.48063926 </v>
   <v>       0.57819084       0.37665525       0.50637750 </v>
   <v>       0.61693744       0.46485764       0.47961052 </v>
   <v>       0.56145068       0.43538427       0.49263149 </v>
   <v>       0.76404482       0.47793378       0.53104140 </v>
   <v>       0.69911343       0.58737260       0.54585417 </v>
   <v>       0.79565544       0.52715502       0.56757391 </v>
   <v>       0.83293591       0.59617698       0.53506002 </v>
   <v>       0.83421916       0.43241672       0.52797169 </v>
   <v>       0.81950582       0.35525937       0.51875091 </v>
   <v>       0.66117231       0.60276518       0.52463203 </v>
   <v>       0.74731160       0.46947121       0.57811459 </v>
   <v>       0.86232212       0.65757728       0.54925494 </v>
   <v>       0.78557606       0.35041307       0.49620771 </v>
   <v>       0.05809515       0.26154889       0.56305238 </v>
   <v>       0.02968077       0.70965566       0.57549584 </v>
   <v>       0.53596460       0.21015759       0.56150800 </v>
   <v>       0.48120765       0.69123655       0.56212067 </v>
   <v>       0.43753122       0.29319805       0.55749890 </v>
   <v>       0.47432064       0.81939685       0.56246211 </v>
   <v>       0.92999544       0.25343362       0.56256845 </v>
   <v>       0.97864683       0.81843287       0.56230247 </v>
   <v>       0.22968087       0.46325496       0.56589047 </v>
   <v>       0.19993051       0.01001655       0.56356694 </v>
   <v>       0.71074419       0.98587959       0.56959000 </v>
   <v>       0.32626638       0.02984364       0.56155598 </v>
   <v>       0.29690313       0.56698856       0.55483674 </v>
   <v>       0.82423706       0.03994356       0.56135575 </v>
   <v>       0.04882355       0.19647377       0.65736512 </v>
   <v>       0.05655186       0.70911301       0.65769258 </v>
   <v>       0.54324841       0.20525756       0.65804025 </v>
   <v>       0.54236589       0.70330452       0.65649611 </v>
   <v>       0.21274011       0.45054497       0.65834609 </v>
   <v>       0.20262923       0.95614290       0.65671405 </v>
   <v>       0.69721599       0.46524913       0.65744967 </v>
   <v>       0.70877815       0.95482590       0.66051169 </v>
   <v>       0.45075739       0.29517226       0.65533853 </v>
   <v>       0.45567752       0.79948895       0.65770235 </v>
   <v>       0.95647180       0.28680227       0.65851874 </v>
   <v>       0.94713514       0.77629735       0.65945612 </v>
   <v>       0.29544261       0.04678020       0.65642872 </v>
   <v>       0.29345555       0.55179734       0.65735456 </v>
   <v>       0.79731810       0.04894736       0.65750492 </v>
   <v>       0.81620273       0.51396885       0.65558712 </v>
   <v>       0.04586250       0.20411950       0.75272599 </v>
   <v>       0.04586250       0.70411946       0.75272599 </v>
   <v>       0.54586251       0.20411950       0.75272599 </v>
   <v>       0.54586250       0.70411946       0.75272599 </v>
   <v>       0.20411900       0.45410100       0.75270499 </v>
   <v>       0.20411899       0.95410095       0.75270499 </v>
   <v>       0.70411898       0.45410100       0.75270499 </v>
   <v>       0.70411896       0.95410095       0.75270499 </v>
   <v>       0.45414002       0.29588849       0.75272697 </v>
   <v>       0.45414001       0.79588852       0.75272697 </v>
   <v>       0.95414002       0.29588849       0.75272697 </v>
   <v>       0.95414006       0.79588852       0.75272697 </v>
   <v>       0.29588249       0.04590050       0.75270499 </v>
   <v>       0.29588248       0.54590053       0.75270499 </v>
   <v>       0.79588244       0.04590050       0.75270499 </v>
   <v>       0.79588248       0.54590053       0.75270499 </v>
   <v>       0.77324255       0.54692528       0.54475630 </v>
   <v>       0.51894799       0.01092761       0.55331642 </v>
   <v>       0.48985133       0.49447161       0.55244857 </v>
   <v>       0.01200068       0.00793917       0.55040293 </v>
   <v>       0.02411970       0.49949478       0.55438505 </v>
   <v>       0.25161813       0.23175385       0.55297694 </v>
   <v>       0.25363566       0.76258272       0.55210036 </v>
   <v>       0.73484744       0.21261228       0.55581527 </v>
   <v>       0.69969904       0.79646633       0.55534228 </v>
   <v>       0.99921682       0.98688547       0.65382090 </v>
   <v>       0.01273827       0.49986896       0.65534824 </v>
   <v>       0.49455133       0.00416292       0.65504630 </v>
   <v>       0.49994029       0.49505175       0.65400587 </v>
   <v>       0.25215672       0.24658291       0.65465743 </v>
   <v>       0.25203548       0.75415125       0.65415641 </v>
   <v>       0.74742905       0.26960938       0.65502811 </v>
   <v>       0.74852425       0.73978657       0.65455756 </v>
   <v>       0.12999807       0.12175818       0.60718327 </v>
   <v>       0.15035544       0.60830488       0.60752746 </v>
   <v>       0.63884403       0.11464023       0.61180248 </v>
   <v>       0.63177146       0.61791950       0.60657188 </v>
   <v>       0.36085715       0.38984364       0.60528427 </v>
   <v>       0.36950233       0.88650363       0.60756183 </v>
   <v>       0.88858475       0.36730681       0.60759968 </v>
   <v>       0.86747596       0.88249254       0.60632977 </v>
   <v>       0.12145715       0.36630328       0.60906927 </v>
   <v>       0.12338024       0.87520746       0.60638111 </v>
   <v>       0.59751841       0.34892117       0.60125832 </v>
   <v>       0.61703484       0.86727333       0.61467879 </v>
   <v>       0.38768573       0.13479411       0.60725799 </v>
   <v>       0.38572364       0.63584189       0.60914869 </v>
   <v>       0.88298949       0.13606569       0.61091669 </v>
   <v>       0.89435513       0.63954311       0.61301476 </v>
   <v>       0.00000000       0.00000000       0.75492797 </v>
   <v>       0.00000000       0.50000000       0.75492797 </v>
   <v>       0.50000000       0.00000000       0.75492797 </v>
   <v>       0.49999999       0.50000000       0.75492797 </v>
   <v>       0.25000050       0.25000000       0.75493902 </v>
   <v>       0.25000051       0.74999997       0.75493902 </v>
   <v>       0.75000047       0.25000000       0.75493902 </v>
   <v>       0.75000046       0.74999997       0.75493902 </v>
   <v>       0.13579050       0.11421000       0.70478299 </v>
   <v>       0.13579050       0.61420998       0.70478299 </v>
   <v>       0.63579045       0.11421000       0.70478299 </v>
   <v>       0.63579049       0.61420998       0.70478299 </v>
   <v>       0.36420952       0.38578999       0.70478299 </v>
   <v>       0.36420950       0.88578996       0.70478299 </v>
   <v>       0.86420954       0.38578999       0.70478299 </v>
   <v>       0.86420953       0.88578996       0.70478299 </v>
   <v>       0.11421799       0.36421899       0.70478098 </v>
   <v>       0.11421799       0.86421899       0.70478098 </v>
   <v>       0.61421800       0.36421899       0.70478098 </v>
   <v>       0.61421799       0.86421899       0.70478098 </v>
   <v>       0.38578201       0.13578149       0.70478202 </v>
   <v>       0.38578200       0.63578149       0.70478202 </v>
   <v>       0.88578199       0.13578149       0.70478202 </v>
   <v>       0.88578203       0.63578149       0.70478202 </v>
   <v>       0.13466700       0.11533200       0.80125603 </v>
   <v>       0.13466699       0.61533199       0.80125603 </v>
   <v>       0.63466699       0.11533200       0.80125603 </v>
   <v>       0.63466698       0.61533199       0.80125603 </v>
   <v>       0.36533300       0.38466799       0.80125603 </v>
   <v>       0.36533299       0.88466796       0.80125603 </v>
   <v>       0.86533295       0.38466799       0.80125603 </v>
   <v>       0.86533294       0.88466796       0.80125603 </v>
   <v>       0.11532850       0.36533700       0.80126500 </v>
   <v>       0.11532850       0.86533698       0.80126500 </v>
   <v>       0.61532850       0.36533700       0.80126500 </v>
   <v>       0.61532849       0.86533698       0.80126500 </v>
   <v>       0.38467151       0.13466300       0.80126500 </v>
   <v>       0.38467150       0.63466297       0.80126500 </v>
   <v>       0.88467149       0.13466300       0.80126500 </v>
   <v>       0.88467153       0.63466297       0.80126500 </v>
   <v>       0.99815483       0.00375212       0.60378483 </v>
   <v>       0.00511319       0.50449646       0.60415032 </v>
   <v>       0.50481548       0.00081390       0.60542889 </v>
   <v>       0.50233897       0.49842219       0.60330487 </v>
   <v>       0.25294792       0.24867248       0.60431600 </v>
   <v>       0.25135644       0.75345183       0.60305024 </v>
   <v>       0.74682684       0.25104436       0.60505431 </v>
   <v>       0.74346262       0.75594441       0.60377225 </v>
   <v>       0.00000050       0.00000050       0.70482896 </v>
   <v>       0.00000050       0.50000048       0.70482896 </v>
   <v>       0.50000048       0.00000050       0.70482896 </v>
   <v>       0.50000046       0.50000048       0.70482896 </v>
   <v>       0.24999999       0.24999947       0.70482499 </v>
   <v>       0.25000001       0.74999950       0.70482499 </v>
   <v>       0.74999999       0.24999947       0.70482499 </v>
   <v>       0.74999998       0.74999950       0.70482499 </v>
   <v>       0.00000000       0.00000000       0.80731797 </v>
   <v>       0.00000000       0.50000000       0.80731797 </v>
   <v>       0.50000000       0.00000000       0.80731797 </v>
   <v>       0.49999999       0.50000000       0.80731797 </v>
   <v>       0.24999999       0.25000000       0.80731797 </v>
   <v>       0.25000001       0.74999997       0.80731797 </v>
   <v>       0.74999999       0.25000000       0.80731797 </v>
   <v>       0.74999998       0.74999997       0.80731797 </v>
  </varray>
 </structure>
</modeling>
