 vasp.6.2.1 16May21 (build Nov 15 2021 14:57:28) complex                         
 executed on             LinuxPGI date 2023.07.30  12:57:23
 running on    4 total cores
 distrk:  each k-point on    4 cores,    1 groups
 distr:  one band on NCORE=   1 cores,    4 groups


--------------------------------------------------------------------------------------------------------


 INCAR:
   SYSTEM = PSC
   ISTART = 1
   ICHARG = 1
   PREC = Normal
   ENCUT = 500
   GGA_COMPAT = F
   NELM = 600
   ISYM = 0
   LREAL = Auto
   ISMEAR = 0
   SIGMA = 0.05
   AMIN = 0.01
   BMIX = 0.01
   LVTOT = T
   LWAVE = F
   LDIPOL = T
   IDIPOL = 3
   LVDW = T
   IVDW = 12

 POTCAR:    PAW_PBE H 15Jun2001                   
 POTCAR:    PAW_PBE C 08Apr2002                   
 POTCAR:    PAW_PBE N 08Apr2002                   
 POTCAR:    PAW_PBE I 08Apr2002                   
 POTCAR:    PAW_PBE Pb 08Apr2002                  
 WARNING: For LVTOT=.TRUE., VASP.5.x writes the TOTAL local potential to the
     file LOCPOT. If you want only the Hartree contributions, use LVHAR=.TRUE.
     instead. 

 POTCAR:    PAW_PBE H 15Jun2001                   
   SHA256 =  030f79b5d3ab3cf0e668861823c8fb652ff669f3e15e46930bd03bfd63a607b6 H/POTCAR              
   COPYR  = (c) Copyright 15Jun2001 Georg Kresse                                                    
   COPYR  = This file is part of the software VASP. Any use, copying, and all other rights are regul
   COPYR  = If you do not have a valid VASP license, you may not use, copy or distribute this file. 
   VRHFIN =H: ultrasoft test                                                                        
   LEXCH  = PE                                                                                      
   EATOM  =    12.4884 eV,    0.9179 Ry                                                             
                                                                                                    
   TITEL  = PAW_PBE H 15Jun2001                                                                     
   LULTRA =        F    use ultrasoft PP ?                                                          
   IUNSCR =        0    unscreen: 0-lin 1-nonlin 2-no                                               
   RPACOR =    0.000    partial core radius                                                         
   POMASS =    1.000; ZVAL   =    1.000    mass and valenz                                          
   RCORE  =    1.100    outmost cutoff radius                                                       
   RWIGS  =    0.700; RWIGS  =    0.370    wigner-seitz radius (au A)                               
   ENMAX  =  250.000; ENMIN  =  200.000 eV                                                          
   RCLOC  =    0.701    cutoff for local pot                                                        
   LCOR   =        T    correct aug charges                                                         
   LPAW   =        T    paw PP                                                                      
   EAUG   =  400.000                                                                                
   RMAX   =    1.123    core radius for proj-oper                                                   
   RAUG   =    1.200    factor for augmentation sphere                                              
   RDEP   =    1.112    radius for radial grids                                                     
   RDEPT  =    0.926    core radius for aug-charge                                                  
                                                                                                    
   Atomic configuration                                                                             
    2 entries                                                                                       
     n  l   j            E        occ.                                                              
     1  0  0.50        -6.4927   1.0000                                                             
     2  1  0.50        -3.4015   0.0000                                                             
   Description                                                                                      
     l       E           TYP  RCUT    TYP  RCUT                                                     
     0     -6.4927494     23  1.100                                                                 
     0      6.8029130     23  1.100                                                                 
     1     -4.0817478     23  1.100                                                                 
  local pseudopotential read in
  atomic valenz-charges read in
  non local Contribution for L=            0  read in
    real space projection operators read in
  non local Contribution for L=            0  read in
    real space projection operators read in
  non local Contribution for L=            1  read in
    real space projection operators read in
    PAW grid and wavefunctions read in
 
   number of l-projection  operators is LMAX  =            3
   number of lm-projection operators is LMMAX =            5
 
 POTCAR:    PAW_PBE C 08Apr2002                   
   SHA256 =  253f7b50bb8d59471dbedb8285d89021f4a42ed1a2c5d38a03a736e69125dd95 C/POTCAR              
   COPYR  = (c) Copyright 08Apr2002 Georg Kresse                                                    
   COPYR  = This file is part of the software VASP. Any use, copying, and all other rights are regul
   COPYR  = If you do not have a valid VASP license, you may not use, copy or distribute this file. 
   VRHFIN =C: s2p2                                                                                  
   LEXCH  = PE                                                                                      
   EATOM  =   147.1560 eV,   10.8157 Ry                                                             
                                                                                                    
   TITEL  = PAW_PBE C 08Apr2002                                                                     
   LULTRA =        F    use ultrasoft PP ?                                                          
   IUNSCR =        1    unscreen: 0-lin 1-nonlin 2-no                                               
   RPACOR =    1.200    partial core radius                                                         
   POMASS =   12.011; ZVAL   =    4.000    mass and valenz                                          
   RCORE  =    1.500    outmost cutoff radius                                                       
   RWIGS  =    1.630; RWIGS  =    0.863    wigner-seitz radius (au A)                               
   ENMAX  =  400.000; ENMIN  =  300.000 eV                                                          
   ICORE  =        2    local potential                                                             
   LCOR   =        T    correct aug charges                                                         
   LPAW   =        T    paw PP                                                                      
   EAUG   =  644.873                                                                                
   DEXC   =    0.000                                                                                
   RMAX   =    1.529    core radius for proj-oper                                                   
   RAUG   =    1.300    factor for augmentation sphere                                              
   RDEP   =    1.501    radius for radial grids                                                     
   RDEPT  =    1.300    core radius for aug-charge                                                  
                                                                                                    
   Atomic configuration                                                                             
    4 entries                                                                                       
     n  l   j            E        occ.                                                              
     1  0  0.50      -273.3789   2.0000                                                             
     2  0  0.50       -13.7508   2.0000                                                             
     2  1  0.50        -5.2854   2.0000                                                             
     3  2  1.50        -5.4423   0.0000                                                             
   Description                                                                                      
     l       E           TYP  RCUT    TYP  RCUT                                                     
     0    -13.7508458     23  1.200                                                                 
     0     -8.2022199     23  1.200                                                                 
     1     -5.2854383     23  1.500                                                                 
     1     34.0145650     23  1.500                                                                 
     2     -5.4423304      7  1.500                                                                 
  local pseudopotential read in
  partial core-charges read in
  partial kinetic energy density read in
  atomic valenz-charges read in
  non local Contribution for L=            0  read in
    real space projection operators read in
  non local Contribution for L=            0  read in
    real space projection operators read in
  non local Contribution for L=            1  read in
    real space projection operators read in
  non local Contribution for L=            1  read in
    real space projection operators read in
    PAW grid and wavefunctions read in
 
   number of l-projection  operators is LMAX  =            4
   number of lm-projection operators is LMMAX =            8
 
 POTCAR:    PAW_PBE N 08Apr2002                   
   SHA256 =  e053789ff3a61a86a1b75d8a110fcc91f86041011e7b0817c7c99e4e8a6349d7 N/POTCAR              
   COPYR  = (c) Copyright 08Apr2002 Georg Kresse                                                    
   COPYR  = This file is part of the software VASP. Any use, copying, and all other rights are regul
   COPYR  = If you do not have a valid VASP license, you may not use, copy or distribute this file. 
   VRHFIN =N: s2p3                                                                                  
   LEXCH  = PE                                                                                      
   EATOM  =   264.5486 eV,   19.4438 Ry                                                             
                                                                                                    
   TITEL  = PAW_PBE N 08Apr2002                                                                     
   LULTRA =        F    use ultrasoft PP ?                                                          
   IUNSCR =        1    unscreen: 0-lin 1-nonlin 2-no                                               
   RPACOR =    1.200    partial core radius                                                         
   POMASS =   14.001; ZVAL   =    5.000    mass and valenz                                          
   RCORE  =    1.500    outmost cutoff radius                                                       
   RWIGS  =    1.400; RWIGS  =    0.741    wigner-seitz radius (au A)                               
   ENMAX  =  400.000; ENMIN  =  300.000 eV                                                          
   ICORE  =        2    local potential                                                             
   LCOR   =        T    correct aug charges                                                         
   LPAW   =        T    paw PP                                                                      
   EAUG   =  627.112                                                                                
   DEXC   =    0.000                                                                                
   RMAX   =    1.529    core radius for proj-oper                                                   
   RAUG   =    1.300    factor for augmentation sphere                                              
   RDEP   =    1.514    radius for radial grids                                                     
   RDEPT  =    1.338    core radius for aug-charge                                                  
                                                                                                    
   Atomic configuration                                                                             
    4 entries                                                                                       
     n  l   j            E        occ.                                                              
     1  0  0.50      -384.7179   2.0000                                                             
     2  0  0.50       -18.5828   2.0000                                                             
     2  1  0.50        -7.0898   3.0000                                                             
     3  2  1.50        -6.8029   0.0000                                                             
   Description                                                                                      
     l       E           TYP  RCUT    TYP  RCUT                                                     
     0    -18.5828119     23  1.200                                                                 
     0    -13.5018863     23  1.200                                                                 
     1     -7.0897853     23  1.500                                                                 
     1      9.5240782     23  1.500                                                                 
     2     -6.8029130      7  1.500                                                                 
  local pseudopotential read in
  partial core-charges read in
  partial kinetic energy density read in
  atomic valenz-charges read in
  non local Contribution for L=            0  read in
    real space projection operators read in
  non local Contribution for L=            0  read in
    real space projection operators read in
  non local Contribution for L=            1  read in
    real space projection operators read in
  non local Contribution for L=            1  read in
    real space projection operators read in
    PAW grid and wavefunctions read in
 
   number of l-projection  operators is LMAX  =            4
   number of lm-projection operators is LMMAX =            8
 
 POTCAR:    PAW_PBE I 08Apr2002                   
   SHA256 =  e40f3f59b681c1fc3e3091736183c4589116986673d2b852a5012aec72758799 I/POTCAR              
   COPYR  = (c) Copyright 08Apr2002 Georg Kresse                                                    
   COPYR  = This file is part of the software VASP. Any use, copying, and all other rights are regul
   COPYR  = If you do not have a valid VASP license, you may not use, copy or distribute this file. 
   VRHFIN =I : s2p5                                                                                 
   LEXCH  = PE                                                                                      
   EATOM  =   315.8678 eV,   23.2156 Ry                                                             
                                                                                                    
   TITEL  = PAW_PBE I 08Apr2002                                                                     
   LULTRA =        F    use ultrasoft PP ?                                                          
   IUNSCR =        1    unscreen: 0-lin 1-nonlin 2-no                                               
   RPACOR =    2.200    partial core radius                                                         
   POMASS =  126.904; ZVAL   =    7.000    mass and valenz                                          
   RCORE  =    2.300    outmost cutoff radius                                                       
   RWIGS  =    2.810; RWIGS  =    1.487    wigner-seitz radius (au A)                               
   ENMAX  =  175.647; ENMIN  =  131.735 eV                                                          
   ICORE  =        3    local potential                                                             
   LCOR   =        T    correct aug charges                                                         
   LPAW   =        T    paw PP                                                                      
   EAUG   =  370.139                                                                                
   DEXC   =    0.000                                                                                
   RMAX   =    2.359    core radius for proj-oper                                                   
   RAUG   =    1.300    factor for augmentation sphere                                              
   RDEP   =    2.392    radius for radial grids                                                     
   RDEPT  =    2.170    core radius for aug-charge                                                  
                                                                                                    
   Atomic configuration                                                                             
   13 entries                                                                                       
     n  l   j            E        occ.                                                              
     1  0  0.50    -32976.3739   2.0000                                                             
     2  0  0.50     -5094.5933   2.0000                                                             
     2  1  1.50     -4572.0131   6.0000                                                             
     3  0  0.50     -1028.2813   2.0000                                                             
     3  1  1.50      -859.0250   6.0000                                                             
     3  2  2.50      -605.7620  10.0000                                                             
     4  0  0.50      -180.5540   2.0000                                                             
     4  1  1.50      -127.5306   6.0000                                                             
     4  2  2.50       -50.2720  10.0000                                                             
     5  0  0.50       -17.4058   2.0000                                                             
     5  1  0.50        -7.0851   5.0000                                                             
     5  2  1.50        -7.0750   0.0000                                                             
     4  3  2.50        -7.0750   0.0000                                                             
   Description                                                                                      
     l       E           TYP  RCUT    TYP  RCUT                                                     
     0    -17.4058016     23  2.300                                                                 
     0    -18.7663842     23  2.300                                                                 
     1     -7.0850686     23  2.300                                                                 
     1     -4.2150896     23  2.300                                                                 
     2     -7.0750295     23  2.300                                                                 
     3     -1.3605826     23  2.300                                                                 
  local pseudopotential read in
  partial core-charges read in
  partial kinetic energy density read in
  atomic valenz-charges read in
  non local Contribution for L=            0  read in
    real space projection operators read in
  non local Contribution for L=            0  read in
    real space projection operators read in
  non local Contribution for L=            1  read in
    real space projection operators read in
  non local Contribution for L=            1  read in
    real space projection operators read in
  non local Contribution for L=            2  read in
    real space projection operators read in
    PAW grid and wavefunctions read in
 
   number of l-projection  operators is LMAX  =            5
   number of lm-projection operators is LMMAX =           13
 
 POTCAR:    PAW_PBE Pb 08Apr2002                  
   SHA256 =  797118a27cf1bcd06b9881c67a26cdde129e3cd1a551dd4a281f9681ce847303 Pb/POTCAR             
   COPYR  = (c) Copyright 08Apr2002 Georg Kresse                                                    
   COPYR  = This file is part of the software VASP. Any use, copying, and all other rights are regul
   COPYR  = If you do not have a valid VASP license, you may not use, copy or distribute this file. 
   VRHFIN =Pb:                                                                                      
   LEXCH  = PE                                                                                      
   EATOM  =    96.9868 eV,    7.1283 Ry                                                             
                                                                                                    
   TITEL  = PAW_PBE Pb 08Apr2002                                                                    
   LULTRA =        F    use ultrasoft PP ?                                                          
   IUNSCR =        1    unscreen: 0-lin 1-nonlin 2-no                                               
   RPACOR =    2.200    partial core radius                                                         
   POMASS =  207.200; ZVAL   =    4.000    mass and valenz                                          
   RCORE  =    3.100    outmost cutoff radius                                                       
   RWIGS  =    3.260; RWIGS  =    1.725    wigner-seitz radius (au A)                               
   ENMAX  =   97.973; ENMIN  =   73.480 eV                                                          
   ICORE  =        3    local potential                                                             
   LCOR   =        T    correct aug charges                                                         
   LPAW   =        T    paw PP                                                                      
   EAUG   =  234.873                                                                                
   DEXC   =    0.000                                                                                
   RMAX   =    3.158    core radius for proj-oper                                                   
   RAUG   =    1.300    factor for augmentation sphere                                              
   RDEP   =    3.202    radius for radial grids                                                     
   RDEPT  =    2.659    core radius for aug-charge                                                  
                                                                                                    
   Atomic configuration                                                                             
   17 entries                                                                                       
     n  l   j            E        occ.                                                              
     1  0  0.50    -88091.8466   2.0000                                                             
     2  0  0.50    -15753.4197   2.0000                                                             
     2  1  1.50    -13508.1797   6.0000                                                             
     3  0  0.50     -3781.7194   2.0000                                                             
     3  1  1.50     -3138.2529   6.0000                                                             
     3  2  2.50     -2483.2977  10.0000                                                             
     4  0  0.50      -856.2895   2.0000                                                             
     4  1  1.50      -645.4943   6.0000                                                             
     4  2  2.50      -401.8768  10.0000                                                             
     4  3  3.50      -132.9059  14.0000                                                             
     5  0  0.50      -144.0950   2.0000                                                             
     5  1  1.50       -85.7879   6.0000                                                             
     5  2  2.50       -21.1769  10.0000                                                             
     6  0  0.50       -12.0372   2.0000                                                             
     6  1  1.50        -3.4971   2.0000                                                             
     6  2  2.50        -1.3606   0.0000                                                             
     5  3  2.50        -2.7212   0.0000                                                             
   Description                                                                                      
     l       E           TYP  RCUT    TYP  RCUT                                                     
     0    -12.0371566     23  3.100                                                                 
     0    -13.3977392     23  3.100                                                                 
     1     -3.4971341     23  3.100                                                                 
     1     -5.4423304     23  3.100                                                                 
     2     -1.3605826     23  3.100                                                                 
     3     -1.3605826     23  3.100                                                                 
  local pseudopotential read in
  partial core-charges read in
  partial kinetic energy density read in
  atomic valenz-charges read in
  non local Contribution for L=            0  read in
    real space projection operators read in
  non local Contribution for L=            0  read in
    real space projection operators read in
  non local Contribution for L=            1  read in
    real space projection operators read in
  non local Contribution for L=            1  read in
    real space projection operators read in
  non local Contribution for L=            2  read in
    real space projection operators read in
    PAW grid and wavefunctions read in
 
   number of l-projection  operators is LMAX  =            5
   number of lm-projection operators is LMMAX =           13
 
 Optimization of the real space projectors (new method)

 maximal supplied QI-value         = 34.20
 optimisation between [QCUT,QGAM] = [ 11.29, 22.57] = [ 35.68,142.71] Ry 
 Optimized for a Real-space Cutoff    1.16 Angstroem

   l    n(q)    QCUT    max X(q) W(low)/X(q) W(high)/X(q)  e(spline) 
   0      8    11.287    19.460    0.40E-03    0.73E-03    0.16E-06
   0      8    11.287    12.209    0.38E-03    0.70E-03    0.15E-06
   1      7    11.287     4.655    0.22E-03    0.25E-04    0.22E-06
 Optimization of the real space projectors (new method)

 maximal supplied QI-value         = 25.13
 optimisation between [QCUT,QGAM] = [ 11.31, 22.87] = [ 35.82,146.48] Ry 
 Optimized for a Real-space Cutoff    1.00 Angstroem

   l    n(q)    QCUT    max X(q) W(low)/X(q) W(high)/X(q)  e(spline) 
   0      7    11.310   115.676    0.43E-03    0.13E-02    0.19E-06
   0      7    11.310    87.132    0.43E-03    0.13E-02    0.18E-06
   1      6    11.310     4.429    0.42E-03    0.74E-03    0.11E-06
   1      6    11.310     2.733    0.34E-03    0.55E-03    0.92E-07
 Optimization of the real space projectors (new method)

 maximal supplied QI-value         = 25.13
 optimisation between [QCUT,QGAM] = [ 11.31, 22.87] = [ 35.82,146.48] Ry 
 Optimized for a Real-space Cutoff    1.27 Angstroem

   l    n(q)    QCUT    max X(q) W(low)/X(q) W(high)/X(q)  e(spline) 
   0      9    11.310    79.467    0.75E-04    0.16E-03    0.36E-06
   0      9    11.310    66.151    0.74E-04    0.16E-03    0.36E-06
   1      8    11.310    17.416    0.35E-03    0.12E-03    0.95E-06
   1      8    11.310    12.382    0.37E-03    0.13E-03    0.98E-06
 Optimization of the real space projectors (new method)

 maximal supplied QI-value         = 16.25
 optimisation between [QCUT,QGAM] = [ 11.38, 22.75] = [ 36.24,144.96] Ry 
 Optimized for a Real-space Cutoff    1.31 Angstroem

   l    n(q)    QCUT    max X(q) W(low)/X(q) W(high)/X(q)  e(spline) 
   0      9    11.376   194.483    0.24E-03    0.23E-03    0.67E-07
   0      9    11.376   190.334    0.23E-03    0.22E-03    0.65E-07
   1      8    11.376   116.687    0.25E-03    0.63E-04    0.16E-06
   1      8    11.376    88.696    0.25E-03    0.61E-04    0.16E-06
   2      8    11.376     4.877    0.17E-03    0.14E-03    0.29E-07
 Optimization of the real space projectors (new method)

 maximal supplied QI-value         = 12.09
 optimisation between [QCUT,QGAM] = [ 11.37, 22.86] = [ 36.19,146.31] Ry 
 Optimized for a Real-space Cutoff    1.66 Angstroem

   l    n(q)    QCUT    max X(q) W(low)/X(q) W(high)/X(q)  e(spline) 
   0     11    11.369   135.111    0.12E-03    0.69E-04    0.19E-05
   0     11    11.369   146.850    0.11E-03    0.65E-04    0.18E-05
   1     11    11.369   148.016    0.17E-03    0.32E-03    0.89E-06
   1     11    11.369   122.989    0.17E-03    0.32E-03    0.91E-06
   2     10    11.369     8.916    0.12E-03    0.45E-04    0.33E-06
  PAW_PBE H 15Jun2001                   :
 energy of atom  1       EATOM=  -12.4884
 kinetic energy error for atom=    0.0020 (will be added to EATOM!!)
  PAW_PBE C 08Apr2002                   :
 energy of atom  2       EATOM= -147.1560
 kinetic energy error for atom=    0.0076 (will be added to EATOM!!)
  PAW_PBE N 08Apr2002                   :
 energy of atom  3       EATOM= -264.5486
 kinetic energy error for atom=    0.0138 (will be added to EATOM!!)
  PAW_PBE I 08Apr2002                   :
 energy of atom  4       EATOM= -315.8678
 kinetic energy error for atom=    0.0009 (will be added to EATOM!!)
  PAW_PBE Pb 08Apr2002                  :
 energy of atom  5       EATOM=  -96.9868
 kinetic energy error for atom=    0.0000 (will be added to EATOM!!)
 
 
 POSCAR:  H  C  N  I Pb
  positions in cartesian coordinates
  No initial velocities read in
 exchange correlation table for  LEXCH =        8
   RHO(1)=    0.500       N(1)  =     2000
   RHO(2)=  100.500       N(2)  =     4000
 


--------------------------------------------------------------------------------------------------------


 ion  position               nearest neighbor table
   1  0.414  0.270  0.570- 187 1.02
   2  0.410  0.710  0.574- 188 1.02
   3  0.927  0.284  0.581- 189 1.03
   4  0.933  0.812  0.574- 190 1.03
   5  0.324  0.087  0.568- 194 1.02
   6  0.315  0.578  0.570- 195 1.01
   7  0.800  0.091  0.572- 196 1.01
   8  0.110  0.239  0.563- 183 1.02
   9  0.083  0.679  0.569- 184 1.01
  10  0.598  0.192  0.566- 185 1.01
  11  0.602  0.738  0.560- 186 1.04
  12  0.380  0.018  0.557- 194 1.03
  13  0.253  0.623  0.554- 195 1.04
  14  0.873  0.040  0.561- 196 1.03
  15  0.062  0.285  0.583- 183 1.03
  16  0.998  0.691  0.581- 184 1.03
  17  0.508  0.172  0.574- 185 1.02
  18  0.545  0.684  0.576- 186 1.04
  19  0.303  0.442  0.575- 191 1.01
  20  0.189  0.062  0.570- 192 1.01
  21  0.677  0.029  0.572- 193 1.01
  22  0.447  0.354  0.560- 187 1.03
  23  0.380  0.779  0.557- 188 1.02
  24  0.884  0.233  0.561- 189 1.02
  25  0.979  0.873  0.558- 190 1.03
  26  0.231  0.399  0.561- 191 1.02
  27  0.156  0.985  0.557- 192 1.03
  28  0.674  0.940  0.562- 193 1.02
  29  0.564  0.310  0.554- 146 1.09
  30  0.504  0.806  0.546- 147 1.09
  31  1.000  0.197  0.547- 144 1.09
  32  0.078  0.793  0.552- 145 1.08
  33  0.189  0.511  0.546- 148 1.09
  34  0.277  0.945  0.548- 149 1.09
  35  0.797  0.940  0.553- 150 1.09
  36  0.456  0.289  0.676- 205 1.03
  37  0.436  0.814  0.672- 206 1.02
  38  0.964  0.281  0.679- 207 1.02
  39  0.921  0.751  0.671- 208 1.01
  40  0.300  0.043  0.675- 209 1.02
  41  0.310  0.551  0.674- 210 1.03
  42  0.791  0.054  0.676- 211 1.02
  43  0.821  0.519  0.672- 212 1.03
  44  0.088  0.170  0.646- 197 1.01
  45  0.101  0.692  0.651- 198 1.01
  46  0.575  0.169  0.644- 199 1.01
  47  0.571  0.677  0.653- 200 1.02
  48  0.182  0.413  0.651- 201 1.02
  49  0.164  0.929  0.646- 202 1.03
  50  0.648  0.449  0.650- 203 1.03
  51  0.676  0.916  0.648- 204 1.03
  52  0.067  0.185  0.673- 197 1.03
  53  0.029  0.662  0.668- 198 1.02
  54  0.546  0.181  0.670- 199 1.02
  55  0.536  0.713  0.677- 200 1.01
  56  0.217  0.442  0.676- 201 1.02
  57  0.186  0.952  0.672- 202 1.02
  58  0.705  0.439  0.672- 203 1.01
  59  0.695  0.947  0.674- 204 1.02
  60  0.438  0.341  0.653- 205 1.01
  61  0.415  0.833  0.645- 206 1.02
  62  0.926  0.320  0.656- 207 1.02
  63  0.931  0.833  0.657- 208 1.02
  64  0.341  0.063  0.650- 209 1.03
  65  0.323  0.585  0.648- 210 1.02
  66  0.826  0.080  0.651- 211 1.02
  67  0.833  0.576  0.650- 212 1.03
  68  0.001  0.253  0.633- 151 1.09
  69  0.044  0.802  0.642- 152 1.09
  70  0.512  0.270  0.631- 153 1.09
  71  0.499  0.749  0.631- 154 1.09
  72  0.258  0.993  0.630- 156 1.10
  73  0.245  0.502  0.632- 155 1.09
  74  0.758  0.996  0.632- 158 1.10
  75  0.722  0.537  0.634- 157 1.11
  76  0.449  0.301  0.769- 221 1.02
  77  0.449  0.801  0.769- 222 1.02
  78  0.949  0.301  0.769- 223 1.02
  79  0.949  0.801  0.769- 224 1.02
  80  0.301  0.051  0.769- 225 1.02
  81  0.301  0.551  0.769- 226 1.02
  82  0.801  0.051  0.769- 227 1.02
  83  0.801  0.551  0.769- 228 1.02
  84  0.079  0.171  0.743- 213 1.02
  85  0.079  0.671  0.743- 214 1.02
  86  0.579  0.171  0.743- 215 1.02
  87  0.579  0.671  0.743- 216 1.02
  88  0.171  0.421  0.743- 217 1.02
  89  0.171  0.921  0.743- 218 1.02
  90  0.671  0.421  0.743- 219 1.02
  91  0.671  0.921  0.743- 220 1.02
  92  0.051  0.199  0.769- 213 1.02
  93  0.051  0.699  0.769- 214 1.02
  94  0.551  0.199  0.769- 215 1.02
  95  0.551  0.699  0.769- 216 1.02
  96  0.199  0.449  0.769- 217 1.02
  97  0.199  0.949  0.769- 218 1.02
  98  0.699  0.449  0.769- 219 1.02
  99  0.699  0.949  0.769- 220 1.02
 100  0.421  0.329  0.743- 221 1.02
 101  0.421  0.829  0.743- 222 1.02
 102  0.921  0.329  0.743- 223 1.02
 103  0.921  0.829  0.743- 224 1.02
 104  0.329  0.079  0.743- 225 1.02
 105  0.329  0.579  0.743- 226 1.02
 106  0.829  0.079  0.743- 227 1.02
 107  0.829  0.579  0.743- 228 1.02
 108  0.000  0.250  0.726- 161 1.09
 109  0.000  0.750  0.726- 162 1.09
 110  0.500  0.250  0.726- 159 1.09
 111  0.500  0.750  0.726- 160 1.09
 112  0.250  0.000  0.726- 163 1.09
 113  0.250  0.500  0.726- 164 1.09
 114  0.750  0.000  0.726- 165 1.09
 115  0.750  0.500  0.726- 166 1.09
 116  0.799  0.511  0.515- 173 1.11
 117  0.879  0.501  0.532- 173 1.10
 118  0.764  0.625  0.534- 174 1.09
 119  0.766  0.629  0.562- 174 1.09
 120  0.685  0.451  0.552- 175 1.10
 121  0.672  0.544  0.560- 175 1.10
 122  0.800  0.428  0.568- 176 1.10
 123  0.868  0.499  0.569- 176 1.10
 124  0.860  0.377  0.540- 177 1.10
 125  0.764  0.379  0.535- 177 1.10
 126  0.780  0.381  0.496- 178 1.10
 127  0.873  0.411  0.498- 178 1.12
 128  0.898  0.618  0.531- 179 1.10
 129  0.910  0.606  0.559- 179 1.09
 130  0.873  0.690  0.548- 179 1.10
 131  0.601  0.517  0.528- 180 1.09
 132  0.678  0.489  0.513- 180 1.09
 133  0.669  0.583  0.521- 180 1.10
 134  0.712  0.503  0.590- 181 1.10
 135  0.778  0.577  0.591- 181 1.09
 136  0.799  0.491  0.603- 181 1.10
 137  0.824  0.257  0.514- 182 1.10
 138  0.845  0.275  0.487- 182 1.10
 139  0.925  0.162  0.498- 168 1.11
 140  0.972  0.387  0.517- 169 1.09
 141  0.058  0.131  0.503- 170 1.09
 142  0.103  0.357  0.522- 171 1.10
 143  0.149  0.229  0.514- 172 1.09
 144  0.997  0.233  0.561-  31 1.09 183 1.31 189 1.31
 145  0.031  0.775  0.561-  32 1.08 184 1.31 190 1.32
 146  0.522  0.273  0.561-  29 1.09 187 1.29 185 1.31
 147  0.492  0.761  0.557-  30 1.09 188 1.31 186 1.32
 148  0.238  0.511  0.557-  33 1.09 195 1.31 191 1.31
 149  0.269  0.998  0.556-  34 1.09 194 1.31 192 1.31
 150  0.774  0.989  0.561-  35 1.09 196 1.31 193 1.31
 151  0.007  0.245  0.651-  68 1.09 207 1.31 197 1.32
 152  0.016  0.764  0.653-  69 1.09 208 1.30 198 1.32
 153  0.507  0.256  0.648-  70 1.09 205 1.30 199 1.32
 154  0.493  0.755  0.649-  71 1.09 206 1.31 200 1.32
 155  0.253  0.499  0.649-  73 1.09 210 1.30 201 1.32
 156  0.252  0.996  0.648-  72 1.10 202 1.31 209 1.31
 157  0.740  0.513  0.649-  75 1.11 203 1.30 212 1.32
 158  0.752  0.998  0.649-  74 1.10 211 1.30 204 1.32
 159  0.500  0.250  0.743- 110 1.09 221 1.31 215 1.31
 160  0.500  0.750  0.743- 111 1.09 222 1.31 216 1.31
 161  1.000  0.250  0.743- 108 1.09 223 1.31 213 1.31
 162  1.000  0.750  0.743- 109 1.09 224 1.31 214 1.31
 163  0.250  0.000  0.743- 112 1.09 225 1.31 218 1.31
 164  0.250  0.500  0.743- 113 1.09 226 1.31 217 1.31
 165  0.750  0.000  0.743- 114 1.09 227 1.31 220 1.31
 166  0.750  0.500  0.743- 115 1.09 228 1.31 219 1.31
 167  0.938  0.277  0.507- 169 1.40 168 1.41 182 1.52
 168  0.965  0.205  0.503- 139 1.11 170 1.39 167 1.41
 169  0.990  0.331  0.514- 140 1.09 167 1.40 171 1.40
 170  0.039  0.187  0.506- 141 1.09 168 1.39 172 1.40
 171  0.065  0.314  0.516- 142 1.10 172 1.40 169 1.40
 172  0.090  0.242  0.512- 143 1.09 171 1.40 170 1.40
 173  0.821  0.485  0.530- 117 1.10 116 1.11 177 1.53 229 1.53
 174  0.793  0.605  0.548- 118 1.09 119 1.09 179 1.52 229 1.53
 175  0.696  0.509  0.547- 120 1.10 121 1.10 180 1.51 229 1.52
 176  0.808  0.489  0.569- 123 1.10 122 1.10 181 1.51 229 1.51
 177  0.817  0.400  0.529- 125 1.10 124 1.10 173 1.53 178 1.54
 178  0.832  0.374  0.506- 126 1.10 127 1.12 182 1.54 177 1.54
 179  0.874  0.630  0.546- 129 1.09 128 1.10 130 1.10 174 1.52
 180  0.660  0.526  0.526- 131 1.09 132 1.09 133 1.10 175 1.51
 181  0.771  0.518  0.589- 135 1.09 136 1.10 134 1.10 176 1.51
 182  0.857  0.293  0.503- 137 1.10 138 1.10 167 1.52 178 1.54
 183  0.059  0.252  0.570-   8 1.02  15 1.03 144 1.31
 184  0.036  0.709  0.570-   9 1.01  16 1.03 145 1.31
 185  0.543  0.206  0.566-  10 1.01  17 1.02 146 1.31
 186  0.549  0.722  0.564-  11 1.04  18 1.04 147 1.32
 187  0.455  0.299  0.562-   1 1.02  22 1.03 146 1.29
 188  0.423  0.749  0.563-   2 1.02  23 1.02 147 1.31
 189  0.932  0.254  0.567-  24 1.02   3 1.03 144 1.31
 190  0.974  0.820  0.563-  25 1.03   4 1.03 145 1.32
 191  0.259  0.447  0.565-  19 1.01  26 1.02 148 1.31
 192  0.201  0.017  0.561-  20 1.01  27 1.03 149 1.31
 193  0.702  0.988  0.564-  21 1.01  28 1.02 150 1.31
 194  0.327  0.039  0.560-   5 1.02  12 1.03 149 1.31
 195  0.272  0.573  0.560-   6 1.01  13 1.04 148 1.31
 196  0.818  0.045  0.565-   7 1.01  14 1.03 150 1.31
 197  0.057  0.197  0.657-  44 1.01  52 1.03 151 1.32
 198  0.050  0.701  0.658-  45 1.01  53 1.02 152 1.32
 199  0.544  0.198  0.654-  46 1.01  54 1.02 153 1.32
 200  0.536  0.713  0.661-  55 1.01  47 1.02 154 1.32
 201  0.216  0.449  0.660-  56 1.02  48 1.02 155 1.32
 202  0.197  0.958  0.656-  57 1.02  49 1.03 156 1.31
 203  0.696  0.464  0.658-  58 1.01  50 1.03 157 1.30
 204  0.705  0.951  0.658-  59 1.02  51 1.03 158 1.32
 205  0.465  0.297  0.660-  60 1.01  36 1.03 153 1.30
 206  0.446  0.804  0.656-  61 1.02  37 1.02 154 1.31
 207  0.963  0.284  0.663-  38 1.02  62 1.02 151 1.31
 208  0.951  0.783  0.661-  39 1.01  63 1.02 152 1.30
 209  0.299  0.036  0.659-  40 1.02  64 1.03 156 1.31
 210  0.298  0.548  0.658-  65 1.02  41 1.03 155 1.30
 211  0.792  0.047  0.659-  66 1.02  42 1.02 158 1.30
 212  0.803  0.536  0.658-  43 1.03  67 1.03 157 1.32
 213  0.046  0.204  0.753-  92 1.02  84 1.02 161 1.31
 214  0.046  0.704  0.753-  93 1.02  85 1.02 162 1.31
 215  0.546  0.204  0.753-  94 1.02  86 1.02 159 1.31
 216  0.546  0.704  0.753-  95 1.02  87 1.02 160 1.31
 217  0.204  0.454  0.753-  96 1.02  88 1.02 164 1.31
 218  0.204  0.954  0.753-  97 1.02  89 1.02 163 1.31
 219  0.704  0.454  0.753-  98 1.02  90 1.02 166 1.31
 220  0.704  0.954  0.753-  99 1.02  91 1.02 165 1.31
 221  0.454  0.296  0.753-  76 1.02 100 1.02 159 1.31
 222  0.454  0.796  0.753-  77 1.02 101 1.02 160 1.31
 223  0.954  0.296  0.753-  78 1.02 102 1.02 161 1.31
 224  0.954  0.796  0.753-  79 1.02 103 1.02 162 1.31
 225  0.296  0.046  0.753-  80 1.02 104 1.02 163 1.31
 226  0.296  0.546  0.753-  81 1.02 105 1.02 164 1.31
 227  0.796  0.046  0.753-  82 1.02 106 1.02 165 1.31
 228  0.796  0.546  0.753-  83 1.02 107 1.02 166 1.31
 229  0.779  0.522  0.549- 176 1.51 175 1.52 174 1.53 173 1.53
 230  0.509  0.978  0.553- 304 3.17
 231  0.462  0.495  0.555- 305 3.14
 232  0.004  0.012  0.552- 302 3.30
 233  0.036  0.495  0.555- 303 3.17
 234  0.253  0.244  0.555- 306 3.19
 235  0.234  0.773  0.551- 307 3.30
 236  0.739  0.221  0.555- 308 3.23
 237  0.721  0.797  0.553- 309 3.22
 238  0.994  0.986  0.655- 302 3.14 310 3.15
 239  0.004  0.502  0.655- 311 3.10 303 3.15
 240  0.497  0.003  0.655- 312 3.15 304 3.17
 241  0.497  0.502  0.655- 313 3.12 305 3.19
 242  0.262  0.239  0.655- 314 3.10 306 3.11
 243  0.247  0.755  0.654- 307 3.15 315 3.18
 244  0.742  0.259  0.656- 316 3.07 308 3.10
 245  0.752  0.743  0.654- 309 3.18 317 3.20
 246  0.141  0.113  0.609- 302 3.19 306 3.24
 247  0.145  0.610  0.609- 303 3.14 307 3.22
 248  0.642  0.108  0.609- 308 3.24 304 3.26
 249  0.615  0.633  0.611- 305 3.21 309 3.38
 250  0.367  0.385  0.611- 306 3.17 305 3.19
 251  0.364  0.885  0.607- 307 3.17 304 3.19
 252  0.889  0.362  0.614- 308 3.25 303 3.39
 253  0.864  0.889  0.606- 309 3.13 302 3.25
 254  0.125  0.369  0.613- 306 3.20 303 3.27
 255  0.118  0.875  0.607- 307 3.13 302 3.21
 256  0.621  0.373  0.603- 305 3.19 308 3.20
 257  0.620  0.867  0.613- 309 3.10 304 3.18
 258  0.400  0.144  0.604- 306 3.26 304 3.27
 259  0.376  0.632  0.607- 305 3.25 307 3.28
 260  0.884  0.134  0.613- 302 3.15 308 3.25
 261  0.906  0.653  0.612- 303 3.29 309 3.46
 262  0.000  0.000  0.755- 310 3.13 318 3.27
 263  0.000  0.500  0.755- 311 3.13 319 3.27
 264  0.500  0.000  0.755- 312 3.13 320 3.27
 265  0.500  0.500  0.755- 313 3.13 321 3.27
 266  0.250  0.250  0.755- 314 3.13 322 3.27
 267  0.250  0.750  0.755- 315 3.13 323 3.27
 268  0.750  0.250  0.755- 316 3.13 324 3.27
 269  0.750  0.750  0.755- 317 3.13 325 3.27
 270  0.136  0.114  0.705- 310 3.20 314 3.20
 271  0.136  0.614  0.705- 311 3.20 315 3.20
 272  0.636  0.114  0.705- 312 3.20 316 3.20
 273  0.636  0.614  0.705- 313 3.20 317 3.20
 274  0.364  0.386  0.705- 313 3.20 314 3.20
 275  0.364  0.886  0.705- 312 3.20 315 3.20
 276  0.864  0.386  0.705- 311 3.20 316 3.20
 277  0.864  0.886  0.705- 310 3.20 317 3.20
 278  0.114  0.364  0.705- 314 3.21 311 3.21
 279  0.114  0.864  0.705- 315 3.21 310 3.21
 280  0.614  0.364  0.705- 316 3.21 313 3.21
 281  0.614  0.864  0.705- 317 3.21 312 3.21
 282  0.386  0.136  0.705- 314 3.21 312 3.21
 283  0.386  0.636  0.705- 315 3.21 313 3.21
 284  0.886  0.136  0.705- 316 3.21 310 3.21
 285  0.886  0.636  0.705- 317 3.21 311 3.21
 286  0.135  0.115  0.801- 318 3.22 322 3.22
 287  0.135  0.615  0.801- 319 3.22 323 3.22
 288  0.635  0.115  0.801- 320 3.22 324 3.22
 289  0.635  0.615  0.801- 321 3.22 325 3.22
 290  0.365  0.385  0.801- 321 3.22 322 3.22
 291  0.365  0.885  0.801- 320 3.22 323 3.22
 292  0.865  0.385  0.801- 319 3.22 324 3.22
 293  0.865  0.885  0.801- 318 3.22 325 3.22
 294  0.115  0.365  0.801- 319 3.23 322 3.23
 295  0.115  0.865  0.801- 318 3.23 323 3.23
 296  0.615  0.365  0.801- 321 3.23 324 3.23
 297  0.615  0.865  0.801- 320 3.23 325 3.23
 298  0.385  0.135  0.801- 320 3.23 322 3.23
 299  0.385  0.635  0.801- 321 3.23 323 3.23
 300  0.885  0.135  0.801- 318 3.23 324 3.23
 301  0.885  0.635  0.801- 319 3.23 325 3.23
 302  1.000  0.007  0.605- 238 3.14 260 3.15 246 3.19 255 3.21 253 3.25 232 3.30
 303  0.007  0.504  0.605- 247 3.14 239 3.15 233 3.17 254 3.27 261 3.29 252 3.39
 304  0.502  0.995  0.604- 240 3.17 230 3.17 257 3.18 251 3.19 248 3.26 258 3.27
 305  0.498  0.500  0.604- 231 3.14 256 3.19 250 3.19 241 3.19 249 3.21 259 3.25
 306  0.255  0.251  0.606- 242 3.11 250 3.17 234 3.19 254 3.20 246 3.24 258 3.26
 307  0.245  0.757  0.604- 255 3.13 243 3.15 251 3.17 247 3.22 259 3.28 235 3.30
 308  0.749  0.251  0.606- 244 3.10 256 3.20 236 3.23 248 3.24 260 3.25 252 3.25
 309  0.749  0.760  0.603- 257 3.10 253 3.13 245 3.18 237 3.22 249 3.38 261 3.46
 310  0.000  0.000  0.705- 262 3.13 238 3.15 270 3.20 277 3.20 279 3.21 284 3.21
 311  0.000  0.500  0.705- 239 3.10 263 3.13 271 3.20 276 3.20 278 3.21 285 3.21
 312  0.500  0.000  0.705- 264 3.13 240 3.15 272 3.20 275 3.20 281 3.21 282 3.21
 313  0.500  0.500  0.705- 241 3.12 265 3.13 273 3.20 274 3.20 280 3.21 283 3.21
 314  0.250  0.250  0.705- 242 3.10 266 3.13 270 3.20 274 3.20 282 3.21 278 3.21
 315  0.250  0.750  0.705- 267 3.13 243 3.18 271 3.20 275 3.20 283 3.21 279 3.21
 316  0.750  0.250  0.705- 244 3.07 268 3.13 272 3.20 276 3.20 284 3.21 280 3.21
 317  0.750  0.750  0.705- 269 3.13 245 3.20 273 3.20 277 3.20 285 3.21 281 3.21
 318  0.000  0.000  0.807- 286 3.22 293 3.22 300 3.23 295 3.23 262 3.27
 319  0.000  0.500  0.807- 287 3.22 292 3.22 301 3.23 294 3.23 263 3.27
 320  0.500  0.000  0.807- 288 3.22 291 3.22 298 3.23 297 3.23 264 3.27
 321  0.500  0.500  0.807- 289 3.22 290 3.22 299 3.23 296 3.23 265 3.27
 322  0.250  0.250  0.807- 290 3.22 286 3.22 294 3.23 298 3.23 266 3.27
 323  0.250  0.750  0.807- 291 3.22 287 3.22 299 3.23 295 3.23 267 3.27
 324  0.750  0.250  0.807- 292 3.22 288 3.22 296 3.23 300 3.23 268 3.27
 325  0.750  0.750  0.807- 293 3.22 289 3.22 297 3.23 301 3.23 269 3.27
 

IMPORTANT INFORMATION: All symmetrisations will be switched off!
NOSYMM: (Re-)initialisation of all symmetry stuff for point group C_1.


----------------------------------------------------------------------------------------

                                     Primitive cell                                     

  volume of cell :   20385.2105

  direct lattice vectors                    reciprocal lattice vectors
    18.060800552  0.000000000  0.000000000     0.055368531  0.000015077 -0.000000000
    -0.004918649 18.062799454  0.000000000     0.000000000  0.055362404  0.000000000
     0.000000000  0.000000000 62.487499237     0.000000000 -0.000000000  0.016003201

  length of vectors
    18.060800552 18.062800123 62.487499237     0.055368533  0.055362404  0.016003201

  position of ions in fractional coordinates (direct lattice)
     0.414399812  0.270028201  0.569813860
     0.409834006  0.710294728  0.573723516
     0.927075177  0.283623003  0.581393263
     0.933358598  0.812202584  0.574374953
     0.324107192  0.086678081  0.568384375
     0.315359254  0.578377398  0.570291189
     0.800200266  0.090790309  0.572347448
     0.109505838  0.238661720  0.563233442
     0.083147000  0.679392867  0.568902972
     0.597647129  0.192384982  0.565847307
     0.602242261  0.737829628  0.559648741
     0.379511035  0.018184354  0.556746000
     0.253123306  0.622587607  0.553556580
     0.873193071  0.039924719  0.561008082
     0.061610573  0.285123698  0.583079758
     0.998032180  0.691252603  0.581491977
     0.508090245  0.171794459  0.574455474
     0.545240005  0.684377867  0.576191173
     0.302684885  0.441734171  0.574687393
     0.189376038  0.061756833  0.570213049
     0.676652871  0.029396448  0.572452815
     0.447275751  0.354184123  0.559607900
     0.380158417  0.779333480  0.556641242
     0.884085876  0.232506722  0.561152398
     0.979415794  0.873239051  0.557583203
     0.230587134  0.399367975  0.560929576
     0.155941456  0.984939851  0.556807657
     0.673723427  0.940175200  0.561559645
     0.563986699  0.309624710  0.554095201
     0.503642429  0.805565543  0.545692458
     0.999829019  0.196592695  0.546594677
     0.077743906  0.792536443  0.551553799
     0.189030142  0.511072629  0.546452742
     0.276805172  0.945346319  0.547786505
     0.797150146  0.940226295  0.552840433
     0.455512970  0.288546230  0.675921570
     0.436262927  0.814148179  0.671517246
     0.964001215  0.280652973  0.679232168
     0.921406477  0.750817176  0.670760320
     0.300056094  0.043316496  0.674702393
     0.310187566  0.551416884  0.673752679
     0.791478170  0.053927828  0.675658883
     0.821435224  0.518749573  0.672380578
     0.087998303  0.169696463  0.646417377
     0.101263449  0.691928836  0.651471428
     0.575341479  0.168901659  0.643744296
     0.571434864  0.676901237  0.653141928
     0.182189744  0.413438747  0.651491940
     0.163638382  0.928676580  0.645944688
     0.648383014  0.449362198  0.650182840
     0.675783429  0.916437511  0.648275903
     0.067076088  0.185238364  0.673206061
     0.028621436  0.662325006  0.667767290
     0.546323849  0.180647630  0.669968536
     0.536202062  0.713333395  0.676754866
     0.216843212  0.441573323  0.676102026
     0.185740684  0.951911308  0.672191759
     0.704914266  0.439231666  0.672439184
     0.694704182  0.946980405  0.674143016
     0.437945386  0.341274398  0.653457665
     0.414538034  0.832632761  0.644949615
     0.926461995  0.319949432  0.656155653
     0.930583497  0.833420344  0.656698853
     0.340817895  0.063085230  0.650299746
     0.323117868  0.585275259  0.648064557
     0.826007458  0.080466141  0.650817488
     0.833069034  0.576238668  0.649791526
     0.001046349  0.253134652  0.633398416
     0.043824678  0.801813527  0.642365480
     0.512007590  0.270323393  0.630995408
     0.498872026  0.748856481  0.631307238
     0.258275921  0.993195044  0.630330419
     0.245448295  0.501835248  0.632008062
     0.757743344  0.996101710  0.631803981
     0.722283474  0.537375652  0.634067739
     0.448745018  0.301283966  0.768889017
     0.448745007  0.801283913  0.768889017
     0.948744965  0.301283966  0.768889017
     0.948745007  0.801283913  0.768889017
     0.301275995  0.051294496  0.768872961
     0.301276011  0.551294499  0.768872961
     0.801275943  0.051294496  0.768872961
     0.801275984  0.551294499  0.768872961
     0.078771004  0.171180501  0.743441971
     0.078771006  0.671180448  0.743441971
     0.578771004  0.171180501  0.743441971
     0.578770992  0.671180448  0.743441971
     0.171199499  0.421174482  0.743421032
     0.171199501  0.921174508  0.743421032
     0.671199512  0.421174482  0.743421032
     0.671199501  0.921174508  0.743421032
     0.051256000  0.198714991  0.768889017
     0.051256002  0.698714925  0.768889017
     0.551256027  0.198714991  0.768889017
     0.551256016  0.698714925  0.768889017
     0.198723491  0.448703970  0.768872046
     0.198723493  0.948703970  0.768872046
     0.698723518  0.448703970  0.768872046
     0.698723507  0.948703970  0.768872046
     0.421231519  0.328817467  0.743441971
     0.421231508  0.828817440  0.743441971
     0.921231466  0.328817467  0.743441971
     0.921231508  0.828817440  0.743441971
     0.328800503  0.078824997  0.743421032
     0.328800492  0.578824964  0.743421032
     0.828800477  0.078824997  0.743421032
     0.828800519  0.578824964  0.743421032
     0.000003500  0.250001478  0.725821992
     0.000003500  0.750001452  0.725821992
     0.500003506  0.250001478  0.725821992
     0.500003495  0.750001452  0.725821992
     0.250000502  0.000000000  0.725803983
     0.250000517  0.500000000  0.725803983
     0.750000502  0.000000000  0.725803983
     0.750000490  0.500000000  0.725803983
     0.798533229  0.510647607  0.515254852
     0.878915863  0.500978025  0.531887878
     0.763596864  0.625016829  0.533771739
     0.765770724  0.629442808  0.561748160
     0.684952977  0.451189791  0.551569244
     0.671526718  0.543648706  0.559788967
     0.800042827  0.428429916  0.568216128
     0.867705971  0.498594314  0.568936304
     0.859706201  0.376712190  0.539519959
     0.763674708  0.379011820  0.534610713
     0.780390406  0.380937036  0.496499117
     0.872987289  0.411199174  0.497958332
     0.898344265  0.617982327  0.530807523
     0.910136797  0.606427181  0.558583464
     0.872564851  0.690363279  0.548299669
     0.600869547  0.516867229  0.528126750
     0.677752447  0.488704671  0.513076987
     0.668790732  0.583313085  0.520761324
     0.711859525  0.503247745  0.590068888
     0.778065612  0.577304179  0.591469192
     0.798521934  0.490501957  0.602929492
     0.823834983  0.256982470  0.513704310
     0.844654137  0.274758664  0.486742527
     0.925174698  0.161954815  0.498123709
     0.972090027  0.387299080  0.517099703
     0.058183376  0.131432305  0.502884641
     0.102641260  0.357281738  0.521823854
     0.148613052  0.229197652  0.513929941
     0.997103332  0.232772057  0.560608955
     0.031097603  0.774821705  0.561212896
     0.522016090  0.272879251  0.560831778
     0.491796007  0.760586124  0.556896725
     0.238238141  0.510603151  0.556514386
     0.268648502  0.998178501  0.555953910
     0.773639027  0.989195907  0.560509997
     0.006867801  0.244898105  0.650630378
     0.015627130  0.763626110  0.653170620
     0.506557051  0.255786364  0.647819330
     0.493493739  0.755323144  0.648594082
     0.253063687  0.499261519  0.649312182
     0.251697929  0.995559095  0.647816034
     0.739867607  0.512838237  0.649460650
     0.751583126  0.998242377  0.649256080
     0.499988984  0.249994984  0.743277021
     0.499989025  0.749994958  0.743277021
     0.999988984  0.249994984  0.743277021
     0.999989025  0.749994958  0.743277021
     0.250000502  0.000001000  0.743255960
     0.250000517  0.500001003  0.743255960
     0.750000502  0.000001000  0.743255960
     0.750000491  0.500001003  0.743255960
     0.938387402  0.277475317  0.507026704
     0.964691062  0.204947509  0.503440355
     0.989521920  0.330938430  0.513732575
     0.039233590  0.187396338  0.506085720
     0.064803628  0.313911434  0.516162260
     0.089964774  0.241949644  0.512268292
     0.820530630  0.484564222  0.530004384
     0.793217701  0.605052223  0.547819593
     0.695876752  0.508925399  0.547205761
     0.807793626  0.488841522  0.569215596
     0.817138992  0.400173720  0.528947288
     0.831642261  0.373933420  0.505831580
     0.873529709  0.629986149  0.546436320
     0.660167185  0.525962584  0.525877399
     0.771117101  0.517633852  0.589297798
     0.856749573  0.292955234  0.503250467
     0.059396087  0.251735276  0.569815264
     0.035939409  0.709424358  0.570239482
     0.543187819  0.206141621  0.566301378
     0.548937679  0.721993485  0.563704728
     0.455474384  0.298872827  0.562476943
     0.423155341  0.748894126  0.562559418
     0.931879377  0.253865082  0.567462926
     0.973817641  0.819627630  0.562889318
     0.259123009  0.446750243  0.564539551
     0.200506655  0.017108353  0.560905096
     0.702067286  0.988351843  0.564276314
     0.327196682  0.038523831  0.560047258
     0.272465456  0.573146518  0.559916128
     0.817767346  0.044741915  0.564711399
     0.056898746  0.196776022  0.657400348
     0.050290861  0.701218750  0.657722861
     0.544295037  0.197537866  0.654380640
     0.536454038  0.713128012  0.660514191
     0.215640376  0.448610148  0.659929357
     0.197380862  0.957557237  0.656245637
     0.696101547  0.463786848  0.658064177
     0.704919550  0.951420118  0.658127483
     0.464635019  0.297169336  0.659903351
     0.445614965  0.803589747  0.655687481
     0.963270737  0.284019936  0.663017072
     0.951283873  0.783066541  0.660751665
     0.299420536  0.035993128  0.658555486
     0.297946866  0.547757264  0.657727562
     0.791762672  0.046936389  0.659401664
     0.802950509  0.536432685  0.657723289
     0.045862501  0.204119496  0.752725994
     0.045862500  0.704119456  0.752725994
     0.545862507  0.204119496  0.752725994
     0.545862496  0.704119456  0.752725994
     0.204119002  0.454101003  0.752704994
     0.204118991  0.954100951  0.752704994
     0.704118976  0.454101003  0.752704994
     0.704118964  0.954100951  0.752704994
     0.454140018  0.295888490  0.752726971
     0.454140007  0.795888516  0.752726971
     0.954140018  0.295888490  0.752726971
     0.954140060  0.795888516  0.752726971
     0.295882492  0.045900498  0.752704994
     0.295882481  0.545900528  0.752704994
     0.795882439  0.045900498  0.752704994
     0.795882481  0.545900528  0.752704994
     0.778975508  0.521603975  0.548510832
     0.508723031  0.977667667  0.553287361
     0.461640797  0.494947841  0.554636203
     0.004208215  0.011627936  0.551858242
     0.035591833  0.495285007  0.554769347
     0.253488772  0.244161445  0.554799626
     0.234058607  0.773318501  0.551045274
     0.738685175  0.221222480  0.555443676
     0.720915374  0.796750914  0.553257936
     0.994099612  0.986283074  0.654532160
     0.003541846  0.501680868  0.655299037
     0.497200572  0.003118678  0.654511342
     0.497067175  0.502136987  0.654835321
     0.262075037  0.238780488  0.655466062
     0.246752122  0.754867816  0.653902517
     0.742437382  0.259173759  0.655779235
     0.751893760  0.743323915  0.653623836
     0.140814181  0.112775207  0.608904259
     0.144646260  0.610027245  0.608841380
     0.642321440  0.107761774  0.609053947
     0.614650778  0.632550428  0.610525250
     0.367140024  0.384785698  0.611027792
     0.363969425  0.885370802  0.606661379
     0.889032291  0.361796021  0.613985109
     0.864438012  0.888700542  0.606314447
     0.125031343  0.369423256  0.612770022
     0.118341085  0.874761368  0.606929071
     0.620670060  0.373106767  0.603015752
     0.619920220  0.867414726  0.612715324
     0.400275431  0.144244525  0.604294817
     0.376473705  0.632360567  0.607310251
     0.883546893  0.133949699  0.612532060
     0.905508373  0.653027964  0.611957482
     0.000000000  0.000000000  0.754927972
     0.000000000  0.500000000  0.754927972
     0.500000000  0.000000000  0.754927972
     0.499999989  0.500000000  0.754927972
     0.250000496  0.250000000  0.754939022
     0.250000511  0.749999974  0.754939022
     0.750000470  0.250000000  0.754939022
     0.750000458  0.749999974  0.754939022
     0.135790500  0.114209997  0.704782994
     0.135790502  0.614209984  0.704782994
     0.635790447  0.114209997  0.704782994
     0.635790488  0.614209984  0.704782994
     0.364209516  0.385789989  0.704782994
     0.364209505  0.885789963  0.704782994
     0.864209542  0.385789989  0.704782994
     0.864209531  0.885789963  0.704782994
     0.114217990  0.364218986  0.704780979
     0.114217992  0.864218986  0.704780979
     0.614218004  0.364218986  0.704780979
     0.614217992  0.864218986  0.704780979
     0.385782012  0.135781489  0.704782017
     0.385782001  0.635781489  0.704782017
     0.885781985  0.135781489  0.704782017
     0.885782027  0.635781489  0.704782017
     0.134667000  0.115332001  0.801256025
     0.134666989  0.615331988  0.801256025
     0.634666987  0.115332001  0.801256025
     0.634666976  0.615331988  0.801256025
     0.365333002  0.384667985  0.801256025
     0.365332990  0.884667959  0.801256025
     0.865332949  0.384667985  0.801256025
     0.865332938  0.884667959  0.801256025
     0.115328503  0.365337004  0.801264999
     0.115328505  0.865336978  0.801264999
     0.615328503  0.365337004  0.801264999
     0.615328492  0.865336978  0.801264999
     0.384671513  0.134662996  0.801264999
     0.384671501  0.634662970  0.801264999
     0.884671486  0.134662996  0.801264999
     0.884671528  0.634662970  0.801264999
     0.999980641  0.006967154  0.604627097
     0.007459178  0.504006448  0.604860665
     0.502460839  0.994894710  0.603816449
     0.498338584  0.500216312  0.603720056
     0.254956801  0.251085547  0.605829486
     0.244667115  0.756687700  0.603551015
     0.749186668  0.251380528  0.606310601
     0.749370177  0.759625364  0.603023078
     0.000000500  0.000000500  0.704828963
     0.000000500  0.500000475  0.704828963
     0.500000475  0.000000500  0.704828963
     0.500000464  0.500000475  0.704828963
     0.249999994  0.249999472  0.704824995
     0.250000010  0.749999498  0.704824995
     0.749999994  0.249999472  0.704824995
     0.749999983  0.749999498  0.704824995
     0.000000000  0.000000000  0.807317968
     0.000000000  0.500000000  0.807317968
     0.500000000  0.000000000  0.807317968
     0.499999989  0.500000000  0.807317968
     0.249999994  0.250000000  0.807317968
     0.250000010  0.749999974  0.807317968
     0.749999994  0.250000000  0.807317968
     0.749999983  0.749999974  0.807317968

  ion indices of the primitive-cell ions
   primitive index   ion index
                 1           1
                 2           2
                 3           3
                 4           4
                 5           5
                 6           6
                 7           7
                 8           8
                 9           9
                10          10
                11          11
                12          12
                13          13
                14          14
                15          15
                16          16
                17          17
                18          18
                19          19
                20          20
                21          21
                22          22
                23          23
                24          24
                25          25
                26          26
                27          27
                28          28
                29          29
                30          30
                31          31
                32          32
                33          33
                34          34
                35          35
                36          36
                37          37
                38          38
                39          39
                40          40
                41          41
                42          42
                43          43
                44          44
                45          45
                46          46
                47          47
                48          48
                49          49
                50          50
                51          51
                52          52
                53          53
                54          54
                55          55
                56          56
                57          57
                58          58
                59          59
                60          60
                61          61
                62          62
                63          63
                64          64
                65          65
                66          66
                67          67
                68          68
                69          69
                70          70
                71          71
                72          72
                73          73
                74          74
                75          75
                76          76
                77          77
                78          78
                79          79
                80          80
                81          81
                82          82
                83          83
                84          84
                85          85
                86          86
                87          87
                88          88
                89          89
                90          90
                91          91
                92          92
                93          93
                94          94
                95          95
                96          96
                97          97
                98          98
                99          99
               100         100
               101         101
               102         102
               103         103
               104         104
               105         105
               106         106
               107         107
               108         108
               109         109
               110         110
               111         111
               112         112
               113         113
               114         114
               115         115
               116         116
               117         117
               118         118
               119         119
               120         120
               121         121
               122         122
               123         123
               124         124
               125         125
               126         126
               127         127
               128         128
               129         129
               130         130
               131         131
               132         132
               133         133
               134         134
               135         135
               136         136
               137         137
               138         138
               139         139
               140         140
               141         141
               142         142
               143         143
               144         144
               145         145
               146         146
               147         147
               148         148
               149         149
               150         150
               151         151
               152         152
               153         153
               154         154
               155         155
               156         156
               157         157
               158         158
               159         159
               160         160
               161         161
               162         162
               163         163
               164         164
               165         165
               166         166
               167         167
               168         168
               169         169
               170         170
               171         171
               172         172
               173         173
               174         174
               175         175
               176         176
               177         177
               178         178
               179         179
               180         180
               181         181
               182         182
               183         183
               184         184
               185         185
               186         186
               187         187
               188         188
               189         189
               190         190
               191         191
               192         192
               193         193
               194         194
               195         195
               196         196
               197         197
               198         198
               199         199
               200         200
               201         201
               202         202
               203         203
               204         204
               205         205
               206         206
               207         207
               208         208
               209         209
               210         210
               211         211
               212         212
               213         213
               214         214
               215         215
               216         216
               217         217
               218         218
               219         219
               220         220
               221         221
               222         222
               223         223
               224         224
               225         225
               226         226
               227         227
               228         228
               229         229
               230         230
               231         231
               232         232
               233         233
               234         234
               235         235
               236         236
               237         237
               238         238
               239         239
               240         240
               241         241
               242         242
               243         243
               244         244
               245         245
               246         246
               247         247
               248         248
               249         249
               250         250
               251         251
               252         252
               253         253
               254         254
               255         255
               256         256
               257         257
               258         258
               259         259
               260         260
               261         261
               262         262
               263         263
               264         264
               265         265
               266         266
               267         267
               268         268
               269         269
               270         270
               271         271
               272         272
               273         273
               274         274
               275         275
               276         276
               277         277
               278         278
               279         279
               280         280
               281         281
               282         282
               283         283
               284         284
               285         285
               286         286
               287         287
               288         288
               289         289
               290         290
               291         291
               292         292
               293         293
               294         294
               295         295
               296         296
               297         297
               298         298
               299         299
               300         300
               301         301
               302         302
               303         303
               304         304
               305         305
               306         306
               307         307
               308         308
               309         309
               310         310
               311         311
               312         312
               313         313
               314         314
               315         315
               316         316
               317         317
               318         318
               319         319
               320         320
               321         321
               322         322
               323         323
               324         324
               325         325

----------------------------------------------------------------------------------------

 
 
 KPOINTS: Automatic Mesh                          

Automatic generation of k-mesh.
 Grid dimensions read from file:
 generate k-points for:    3    3    1

 Generating k-lattice:

  Cartesian coordinates                     Fractional coordinates (reciprocal lattice)
     0.018456177  0.000005026 -0.000000000     0.333333333  0.000000000  0.000000000
     0.000000000  0.018454135  0.000000000     0.000000000  0.333333333  0.000000000
     0.000000000 -0.000000000  0.016003201     0.000000000  0.000000000  1.000000000

  Length of vectors
     0.018456178  0.018454135  0.016003201

  Shift w.r.t. Gamma in fractional coordinates (k-lattice)
     0.000000000  0.000000000  0.000000000

 
 Subroutine IBZKPT returns following result:
 ===========================================
 
 Found      5 irreducible k-points:
 
 Following reciprocal coordinates:
            Coordinates               Weight
  0.000000  0.000000  0.000000      1.000000
  0.333333  0.000000  0.000000      2.000000
  0.000000  0.333333  0.000000      2.000000
  0.333333  0.333333  0.000000      2.000000
 -0.333333  0.333333  0.000000      2.000000
 
 Following cartesian coordinates:
            Coordinates               Weight
  0.000000  0.000000  0.000000      1.000000
  0.018456  0.000005  0.000000      2.000000
  0.000000  0.018454  0.000000      2.000000
  0.018456  0.018459  0.000000      2.000000
 -0.018456  0.018449  0.000000      2.000000
 


--------------------------------------------------------------------------------------------------------




 Dimension of arrays:
   k-points           NKPTS =      5   k-points in BZ     NKDIM =      5   number of bands    NBANDS=    732
   number of dos      NEDOS =    301   number of ions     NIONS =    325
   non local maximal  LDIM  =      5   non local SUM 2l+1 LMDIM =     13
   total plane-waves  NPLWV = ******
   max r-space proj   IRMAX =   3336   max aug-charges    IRDMAX=  19845
   dimension x,y,z NGX =   100 NGY =  100 NGZ =  350
   dimension x,y,z NGXF=   200 NGYF=  200 NGZF=  700
   support grid    NGXF=   200 NGYF=  200 NGZF=  700
   ions per type =             143  39  47  72  24
   NGX,Y,Z   is equivalent  to a cutoff of   9.20,  9.20,  9.31 a.u.
   NGXF,Y,Z  is equivalent  to a cutoff of  18.41, 18.41, 18.62 a.u.

 SYSTEM =  PSC                                     
 POSCAR =   H  C  N  I Pb                          

 Startparameter for this run:
   NWRITE =      2    write-flag & timer
   PREC   = normal    normal or accurate (medium, high low for compatibility)
   ISTART =      0    job   : 0-new  1-cont  2-samecut
   ICHARG =      1    charge: 1-file 2-atom 10-const
   ISPIN  =      1    spin polarized calculation?
   LNONCOLLINEAR =      F non collinear calculations
   LSORBIT =      F    spin-orbit coupling
   INIWAV =      1    electr: 0-lowe 1-rand  2-diag
   LASPH  =      F    aspherical Exc in radial PAW
 Electronic Relaxation 1
   ENCUT  =  500.0 eV  36.75 Ry    6.06 a.u.  32.93 32.93113.93*2*pi/ulx,y,z
   ENINI  =  500.0     initial cutoff
   ENAUG  =  644.9 eV  augmentation charge cutoff
   NELM   =    600;   NELMIN=  2; NELMDL=  0     # of ELM steps 
   EDIFF  = 0.1E-03   stopping-criterion for ELM
   LREAL  =      T    real-space projection
   NLSPLINE    = F    spline interpolate recip. space projectors
   LCOMPAT=      F    compatible to vasp.4.4
   GGA_COMPAT  = F    GGA compatible to vasp.4.4-vasp.4.6
   LMAXPAW     = -100 max onsite density
   LMAXMIX     =    2 max onsite mixed and CHGCAR
   VOSKOWN=      0    Vosko Wilk Nusair interpolation
   ROPT   =   -0.00050  -0.00050  -0.00050  -0.00050
   ROPT   =   -0.00050
 Ionic relaxation
   EDIFFG = 0.1E-02   stopping-criterion for IOM
   NSW    =      0    number of steps for IOM
   NBLOCK =      1;   KBLOCK =      1    inner block; outer block 
   IBRION =     -1    ionic relax: 0-MD 1-quasi-New 2-CG
   NFREE  =      0    steps in history (QN), initial steepest desc. (CG)
   ISIF   =      2    stress and relaxation
   IWAVPR =     10    prediction:  0-non 1-charg 2-wave 3-comb
   ISYM   =      0    0-nonsym 1-usesym 2-fastsym
   LCORR  =      T    Harris-Foulkes like correction to forces

   POTIM  = 0.5000    time-step for ionic-motion
   TEIN   =    0.0    initial temperature
   TEBEG  =    0.0;   TEEND  =   0.0 temperature during run
   SMASS  =  -3.00    Nose mass-parameter (am)
   estimated Nose-frequenzy (Omega)   =  0.10E-29 period in steps = 0.13E+47 mass=  -0.745E-26a.u.
   SCALEE = 1.0000    scale energy and forces
   NPACO  =    256;   APACO  = 16.0  distance and # of slots for P.C.
   PSTRESS=    0.0 pullay stress

  Mass of Ions in am
   POMASS =   1.00 12.01 14.00126.90207.20
  Ionic Valenz
   ZVAL   =   1.00  4.00  5.00  7.00  4.00
  Atomic Wigner-Seitz radii
   RWIGS  =  -1.00 -1.00 -1.00 -1.00 -1.00
  virtual crystal weights 
   VCA    =   1.00  1.00  1.00  1.00  1.00
   NELECT =    1134.0000    total number of electrons
   NUPDOWN=      -1.0000    fix difference up-down

 DOS related values:
   EMIN   =  10.00;   EMAX   =-10.00  energy-range for DOS
   EFERMI =   0.00
   ISMEAR =     0;   SIGMA  =   0.05  broadening in eV -4-tet -1-fermi 0-gaus

 Electronic relaxation 2 (details)
   IALGO  =     38    algorithm
   LDIAG  =      T    sub-space diagonalisation (order eigenvalues)
   LSUBROT=      F    optimize rotation matrix (better conditioning)
   TURBO    =      0    0=normal 1=particle mesh
   IRESTART =      0    0=no restart 2=restart with 2 vectors
   NREBOOT  =      0    no. of reboots
   NMIN     =      0    reboot dimension
   EREF     =   0.00    reference energy to select bands
   IMIX   =      4    mixing-type and parameters
     AMIX     =   0.40;   BMIX     =  0.01
     AMIX_MAG =   1.60;   BMIX_MAG =  0.01
     AMIN     =   0.01
     WC   =   100.;   INIMIX=   1;  MIXPRE=   1;  MAXMIX= -45

 Intra band minimization:
   WEIMIN = 0.0000     energy-eigenvalue tresh-hold
   EBREAK =  0.34E-07  absolut break condition
   DEPER  =   0.30     relativ break condition  

   TIME   =   0.40     timestep for ELM

  volume/ion in A,a.u.               =      62.72       423.28
  Fermi-wavevector in a.u.,A,eV,Ry     =   0.624944  1.180972  5.313816  0.390554
  Thomas-Fermi vector in A             =   1.685677
 
 Write flags
   LWAVE        =      F    write WAVECAR
   LDOWNSAMPLE  =      F    k-point downsampling of WAVECAR
   LCHARG       =      T    write CHGCAR
   LVTOT        =      T    write LOCPOT, total local potential
   LVHAR        =      F    write LOCPOT, Hartree potential only
   LELF         =      F    write electronic localiz. function (ELF)
   LORBIT       =      0    0 simple, 1 ext, 2 COOP (PROOUT), +10 PAW based schemes


 Dipole corrections
   LMONO  =      F    monopole corrections only (constant potential shift)
   LDIPOL =      T    correct potential (dipole corrections)
   IDIPOL =      3    1-x, 2-y, 3-z, 4-all directions 
   EPSILON=  1.0000000 bulk dielectric constant

 Exchange correlation treatment:
   GGA     =    --    GGA type
   LEXCH   =     8    internal setting for exchange type
   VOSKOWN=      0    Vosko Wilk Nusair interpolation
   LHFCALC =     F    Hartree Fock is set to
   LHFONE  =     F    Hartree Fock one center treatment
   AEXX    =    0.0000 exact exchange contribution

 Linear response parameters
   LEPSILON=     F    determine dielectric tensor
   LRPA    =     F    only Hartree local field effects (RPA)
   LNABLA  =     F    use nabla operator in PAW spheres
   LVEL    =     F    velocity operator in full k-point grid
   LINTERFAST=   F  fast interpolation
   KINTER  =     0    interpolate to denser k-point grid
   CSHIFT  =0.1000    complex shift for real part using Kramers Kronig
   OMEGAMAX=  -1.0    maximum frequency
   DEG_THRESHOLD= 0.2000000E-02 threshold for treating states as degnerate
   RTIME   =   -0.100 relaxation time in fs
  (WPLASMAI=    0.000 imaginary part of plasma frequency in eV, 0.658/RTIME)
   DFIELD  = 0.0000000 0.0000000 0.0000000 field for delta impulse in time
 
 Orbital magnetization related:
   ORBITALMAG=     F  switch on orbital magnetization
   LCHIMAG   =     F  perturbation theory with respect to B field
   DQ        =  0.001000  dq finite difference perturbation B field
   LLRAUG    =     F  two centre corrections for induced B field



--------------------------------------------------------------------------------------------------------


 Static calculation
 charge density and potential will be updated during run
 non-spin polarized calculation
 Variant of blocked Davidson
 Davidson routine will perform the subspace rotation
 perform sub-space diagonalisation
    after iterative eigenvector-optimisation
 modified Broyden-mixing scheme, WC =      100.0
 initial mixing is a Kerker type mixing with AMIX =  0.4000 and BMIX =      0.0100
 Hartree-type preconditioning will be used
 using additional bands           165
 real space projection scheme for non local part
[...]
     13.54561      0.00000     45.35368         0.002651     -0.008173      0.011060
     13.54315      9.03140     45.35368        -0.009329      0.002881      0.006106
     14.41964      9.22373     32.19699         0.127259     -0.175365      0.266760
     15.87146      9.04907     33.23634        -0.144948      0.070522     -0.027167
     13.78810     11.28955     33.35406        -0.141618      0.087638     -0.135270
     13.82734     11.36950     35.10224        -0.038203     -0.146710      0.062472
     12.36858      8.14975     34.46618         0.142849     -0.063364      0.119101
     12.12564      9.81982     34.97981         0.023288     -0.022054     -0.012936
     14.44731      7.73864     35.50640        -0.052308      0.147775     -0.096580
     15.66901      9.00601     35.55141         0.083314      0.050995      0.089978
     15.52513      6.80448     33.71325        -0.034675      0.008265      0.082565
     13.79071      6.84601     33.40649        -0.033916     -0.124766     -0.053841
     14.09260      6.88079     31.02499        -0.029720      0.070299      0.027220
     15.76483      7.42741     31.11617        -0.267680     -0.302724      0.239593
     16.22178     11.16249     33.16883        -0.009489      0.015330     -0.029674
     16.43482     10.95377     34.90448        -0.071234     -0.013590      0.154418
     15.75582     12.46989     34.26188         0.014231      0.061600      0.038165
     10.84964      9.33607     33.00132        -0.252272      0.096230      0.000368
     12.23835      8.82737     32.06090         0.128174     -0.099810     -0.100384
     12.07603     10.53627     32.54107        -0.086845      0.054142     -0.046116
     12.85428      9.09006     36.87193         0.254020      0.038731      0.015063
     14.04965     10.42773     36.95943        -0.001451      0.010940     -0.000546
     14.41953      8.85984     37.67556        -0.043712      0.016297     -0.094918
     14.87786      4.64182     32.10010        -0.150825     -0.086892      0.120122
     15.25378      4.96291     30.41532        -0.075426      0.064857      0.077641
     16.70860      2.92536     31.12650         0.279464      0.253563      0.155816
     17.55482      6.99571     32.31227        -0.067028      0.127880      0.043886
      1.05019      2.37404     31.42400         0.046452     -0.172329      0.014958
      1.85203      6.45351     32.60747        -0.098953     -0.188532     -0.125541
      2.68294      4.13995     32.11420         0.023861     -0.071571      0.053524
     18.00734      4.20451     35.03105         0.096469     -0.173449     -0.176277
      0.55784     13.99545     35.06879        -0.339349     -0.091513      0.228316
      9.42669      4.92896     35.04498         1.068867     -0.082069     -0.164172
      8.87849     13.73831     34.79908         0.612819      0.004722     -0.166877
      4.30026      9.22292     34.77519         0.069551     -0.320648     -0.045643
      4.84710     18.02990     34.74017        -0.071770      0.001770     -0.082172
     13.96767     17.86765     35.02487        -0.109144      0.049789     -0.094348
      0.12283      4.42355     40.65627         0.458600     -0.424110      0.229092
      0.27848     13.79323     40.81500         0.724816     -0.615925      0.127306
      9.14757      4.62022     40.48061         0.516972     -0.648801      0.099520
      8.90918     13.64325     40.52902         0.310277     -0.300032      0.085401
      4.56808      9.01806     40.57389        -0.306494     -0.324388      0.097262
      4.54097     17.98258     40.48040         0.217778      0.176438      0.065359
     13.36008      9.26329     40.58317         0.558733      0.636268     -0.318798
     13.56928     18.03105     40.57039        -0.370548     -0.412799     -0.115375
      9.02897      4.51561     46.44552         0.013235      0.000961      0.033540
      9.02651     13.54701     46.44552         0.024474     -0.009169      0.046156
     18.05937      4.51561     46.44552         0.012599      0.003679      0.048782
     18.05691     13.54701     46.44552         0.017497      0.001292      0.014063
      4.51521      0.00002     46.44421        -0.004075     -0.005520      0.056680
      4.51275      9.03142     46.44421        -0.006198     -0.004241      0.036200
     13.54561      0.00002     46.44421        -0.003197     -0.005448      0.034516
     13.54315      9.03142     46.44421        -0.017787     -0.013720      0.030787
     16.94666      5.01198     31.68283         0.003440     -0.242814      0.085662
     17.42208      3.70193     31.45873        -0.380741     -0.044420     -0.088577
     17.86993      5.97767     32.10186         0.124369     -0.061979     -0.097995
      0.70767      3.38490     31.62403         0.055070      0.075213     -0.097783
      1.16886      5.67012     32.25369        -0.088092     -0.092259      0.154814
      1.62365      4.37029     32.01036        -0.013758      0.253042     -0.012865
     14.81706      8.75259     33.11865        -0.019447      0.331181     -0.151621
     14.32317     10.92894     34.23188         0.155507     -0.092877     -0.140702
     12.56559      9.19262     34.19352        -0.086815      0.047564     -0.016846
     14.58700      8.82985     35.56886         0.038482     -0.268429      0.225937
     14.75622      7.22826     33.05259         0.068332      0.003961     -0.095901
     15.01829      6.75428     31.60815         0.124883      0.196173     -0.372431
     15.77355     11.37931     34.14544        -0.132956     -0.076755     -0.147887
     11.92056      9.50036     32.86076         0.129229      0.000669     -0.006039
     13.92445      9.34992     36.82375        -0.163553     -0.041906     -0.023385
     15.47214      5.29159     31.44686         0.273289      0.363425     -0.093945
      1.07150      4.54704     35.60633         0.065341      0.112693      0.073373
      0.64561     12.81419     35.63284        -0.236414      0.079605      0.163655
      9.80939      3.72349     35.38676        -0.379241     -0.228008      0.126186
      9.91070     13.04122     35.22450        -0.142424     -0.282278      0.399781
      8.22476      5.39848     35.14778        -0.754862      0.343895      0.131567
      7.63884     13.52712     35.15293        -0.094720      0.241744     -0.238253
     16.82924      4.58551     35.45934        -0.112177     -0.105513      0.021440
     17.58389     14.80477     35.17355        -0.158280     -0.068915      0.295112
      4.67777      8.06956     35.27666        -0.511136     -0.115746     -0.290797
      3.62123      0.30902     35.04956        -0.115697     -0.457579     -0.255579
     12.67504     17.85240     35.26022         0.312390     -0.533445     -0.187571
      5.90924      0.69585     34.99595         0.019010     -0.307270     -0.137893
      4.91813     10.35263     34.98776        -0.323754      1.035198     -0.431561
     14.76931      0.80816     35.28740         0.351577     -0.395081     -0.219212
      1.02667      3.55433     41.07930        -0.610577      0.540490     -0.006078
      0.90484     12.66597     41.09946        -0.544125      0.450065      0.015289
      9.82943      3.56809     40.89061        -0.373749      0.511290      0.239168
      9.68528     12.88109     41.27388        -0.100298      0.066962     -0.278430
      3.89243      8.10316     41.23734        -0.026972     -0.017190     -0.283002
      3.56015     17.29616     41.00715        -0.493766     -0.418318     -0.280592
     12.56987      8.37729     41.12078        -0.516863     -0.255405     -0.306194
     12.72673     17.18531     41.12474         0.058574     -0.004870     -0.273228
      8.39022      5.36771     41.23571        -0.287495      0.164145      0.507778
      8.04421     14.51508     40.97227        -0.127152      0.094122      0.076563
     17.39604      5.13020     41.43028        -0.106532      0.104857     -0.143350
     17.17710     14.14437     41.28872        -0.105260      0.306156     -0.159693
      5.40760      0.65014     41.15149         0.550036      0.379106     -0.595310
      5.37846      9.89403     41.09975         0.266424      0.259076      0.523868
     14.29964      0.84780     41.20436         0.199951      0.302449      0.422319
     14.49929      9.68948     41.09948        -0.214968      0.004790     -0.120195
      0.82731      3.68697     47.03596         0.019025     -0.024552     -0.099184
      0.82485     12.71837     47.03596         0.018743     -0.020165     -0.066804
      9.85771      3.68697     47.03596         0.019440     -0.022496     -0.087816
      9.85525     12.71837     47.03596         0.009421     -0.011479     -0.085388
      3.68432      8.20234     47.03465        -0.008866     -0.012744     -0.071076
      3.68186     17.23373     47.03465        -0.006701     -0.005357     -0.068490
     12.71472      8.20234     47.03465        -0.001488     -0.005517     -0.066736
     12.71226     17.23373     47.03465        -0.013554     -0.010019     -0.068765
      8.20068      5.34457     47.03603        -0.023585      0.020060     -0.093267
      8.19822     14.37597     47.03603        -0.028681      0.024738     -0.089439
     17.23108      5.34457     47.03603        -0.022371      0.018216     -0.105064
     17.22862     14.37597     47.03603        -0.023763      0.021448     -0.070925
      5.34365      0.82909     47.03465         0.010429      0.012132     -0.074909
      5.34119      9.86049     47.03465         0.016416      0.014892     -0.065673
     14.37405      0.82909     47.03465         0.014284      0.016315     -0.068650
     14.37159      9.86049     47.03465         0.025384      0.024081     -0.073226
     14.06636      9.42163     34.27507         0.260882     -0.179950     -0.130297
      9.18314     17.65942     34.57354         0.023733     -0.022677      0.010676
      8.33517      8.94014     34.65783         0.131170      0.050469     -0.046980
      0.07595      0.21003     34.48424         0.065595      0.018197      0.013230
      0.64038      8.94623     34.66615        -0.111260     -0.056410      0.032556
      4.57701      4.41024     34.66804         0.002903     -0.008795      0.039281
      4.22348     13.96830     34.43344         0.000048     -0.066196      0.031916
     13.34016      3.99590     34.70829        -0.005493      0.100193     -0.022012
     13.01639     14.39155     34.57170         0.173166     -0.139415     -0.128074
     17.94938     17.81503     40.90008         0.019528     -0.008319     -0.032992
      0.06150      9.06176     40.94800         0.012323     -0.004400      0.079734
      8.97983      0.05633     40.89878        -0.003550      0.004030      0.056985
      8.97496      9.07000     40.91902         0.012567     -0.017286     -0.046163
      4.73211      4.31304     40.95844         0.010192     -0.003615      0.019051
      4.45283     13.63503     40.86073        -0.004133     -0.032283     -0.003353
     13.40774      4.68140     40.97800         0.004239     -0.012890     -0.086647
     13.57615     13.42651     40.84332         0.000382      0.002477      0.105317
      2.54266      2.03704     38.04890        -0.001040      0.047411      0.001728
      2.60943     11.01880     38.04498         0.008041      0.002118     -0.044873
     11.60031      1.94648     38.05826         0.001733      0.018376     -0.014094
     11.09797     11.42563     38.15020         0.090599      0.016253     -0.118974
      6.62895      6.95031     38.18160         0.003545     -0.005534     -0.006168
      6.56922     15.99228     37.90875         0.040789      0.036217     -0.016206
     16.05486      6.53505     38.36639        -0.042253      0.154039     -0.177607
     15.60807     16.05242     37.88707        -0.013746     -0.017689     -0.007485
      2.25635      6.67282     38.29047        -0.007654     -0.052212     -0.056940
      2.13303     15.80064     37.92548        -0.008435     -0.022382     -0.034083
     11.20796      6.73935     37.68095        -0.014405     -0.027749      0.022642
     11.19199     15.66794     38.28705        -0.102081     -0.013869     -0.063936
      7.22859      2.60546     37.76087        -0.023981     -0.018119      0.015024
      6.79631     11.42220     37.94930         0.044550      0.009944      0.003910
     15.95691      2.41951     38.27560        -0.027287      0.019337      0.049263
     16.35099     11.79551     38.23969         0.025874     -0.016292     -0.188320
      0.00000      0.00000     47.17356         0.000837      0.004525      0.385099
     -0.00246      9.03140     47.17356        -0.004307     -0.003337      0.467678
      9.03040      0.00000     47.17356        -0.001655     -0.002086      0.429675
      9.02794      9.03140     47.17356        -0.004296     -0.000081      0.445159
      4.51398      4.51570     47.17425        -0.000454     -0.005428      0.453014
      4.51152     13.54710     47.17425         0.003566      0.002613      0.358815
     13.54438      4.51570     47.17425         0.002292     -0.000121      0.454954
     13.54192     13.54710     47.17425        -0.000144     -0.002691      0.375010
      2.45192      2.06295     44.04013         0.009514     -0.038459     -0.012793
      2.44946     11.09435     44.04013         0.040499     -0.022648      0.002176
     11.48232      2.06295     44.04013        -0.022556     -0.001559     -0.083160
     11.47986     11.09435     44.04013        -0.027876      0.016626     -0.020059
      6.57602      6.96845     44.04013        -0.029174     -0.003408     -0.032440
      6.57356     15.99985     44.04013         0.014844     -0.007094     -0.040455
     15.60642      6.96845     44.04013        -0.045331      0.058351     -0.051655
     15.60396     15.99985     44.04013        -0.051546      0.027469      0.003310
      2.06108      6.57881     44.04000         0.012989     -0.048498     -0.027741
      2.05862     15.61021     44.04000         0.053495      0.067950     -0.032491
     11.09148      6.57881     44.04000         0.003773      0.019573     -0.011588
     11.08902     15.61021     44.04000        -0.010612     -0.002209     -0.043521
      6.96686      2.45259     44.04007         0.031705     -0.016465     -0.008311
      6.96440     11.48399     44.04007        -0.009264      0.011752     -0.044995
     15.99726      2.45259     44.04007         0.017707      0.020361     -0.037017
     15.99481     11.48399     44.04007         0.035797      0.024018     -0.086729
      2.43163      2.08322     50.06849         0.003822     -0.016135      0.020683
      2.42917     11.11462     50.06849         0.018135     -0.003272      0.024314
     11.46203      2.08322     50.06849         0.007084     -0.013514      0.022239
     11.45957     11.11462     50.06849         0.014126     -0.005723      0.023369
      6.59631      6.94818     50.06849        -0.011173      0.009029      0.022715
      6.59385     15.97958     50.06849        -0.014533      0.006416      0.021853
     15.62671      6.94818     50.06849        -0.010765      0.007896      0.021496
     15.62425     15.97958     50.06849        -0.010210      0.012106      0.024225
      2.08113      6.59901     50.06905        -0.009961     -0.012175      0.022569
      2.07867     15.63041     50.06905        -0.009009     -0.010077      0.022858
     11.11153      6.59901     50.06905        -0.010894     -0.010094      0.023236
     11.10907     15.63041     50.06905        -0.007851     -0.013441      0.022830
      6.94681      2.43239     50.06905         0.011934      0.006024      0.022012
      6.94435     11.46379     50.06905         0.003038      0.017378      0.023345
     15.97721      2.43239     50.06905         0.016282      0.004128      0.022466
     15.97475     11.46379     50.06905         0.003650      0.015206      0.023169
     18.06042      0.12585     37.78164        -0.006911     -0.011603     -0.016823
      0.13224      9.10377     37.79623         0.023558     -0.000028     -0.054444
      9.06995     17.97058     37.73098        -0.003930     -0.033187     -0.041766
      8.99793      9.03531     37.72496        -0.048026     -0.009582     -0.013543
      4.60349      4.53531     37.85677        -0.029782      0.005176     -0.002141
      4.41516     13.66790     37.71439        -0.039802     -0.000871     -0.015244
     13.52967      4.54064     37.88683         0.017013      0.001522     -0.010880
     13.53049     13.72096     37.68140         0.049190     -0.051247      0.134286
      0.00001      0.00001     44.04300        -0.046964     -0.104076      0.134879
     -0.00245      9.03141     44.04300         0.118989      0.005910      0.161881
      9.03041      0.00001     44.04300         0.008119      0.001579      0.070066
      9.02795      9.03141     44.04300         0.084828      0.009342      0.143275
      4.51397      4.51569     44.04275         0.013618      0.031738      0.153298
      4.51151     13.54709     44.04275        -0.106744     -0.023673      0.093688
     13.54437      4.51569     44.04275        -0.052624     -0.014121      0.241675
     13.54191     13.54709     44.04275        -0.042309      0.016569      0.004924
      0.00000      0.00000     50.44728        -0.002073      0.003968     -0.623795
     -0.00246      9.03140     50.44728        -0.001489     -0.004661     -0.644407
      9.03040      0.00000     50.44728         0.001459      0.006260     -0.634491
      9.02794      9.03140     50.44728         0.000448     -0.006672     -0.640617
      4.51397      4.51570     50.44728         0.002095      0.005804     -0.639265
      4.51151     13.54710     50.44728         0.000455     -0.006710     -0.618302
     13.54437      4.51570     50.44728        -0.003283      0.005041     -0.639968
     13.54191     13.54710     50.44728        -0.000630     -0.005670     -0.623267
 -----------------------------------------------------------------------------------
    total drift:                                0.114963      0.090256      0.646530


--------------------------------------------------------------------------------------------------------



  FREE ENERGIE OF THE ION-ELECTRON SYSTEM (eV)
  ---------------------------------------------------
  free  energy   TOTEN  =     -1575.80975041 eV

  energy  without entropy=    -1575.80975041  energy(sigma->0) =    -1575.80975041
 


--------------------------------------------------------------------------------------------------------


    POTLOK:  cpu time    0.5010: real time    0.5008


--------------------------------------------------------------------------------------------------------


     LOOP+:  cpu time  286.1886: real time  287.2106
 vacuum level on the upper side and lower side of the slab         2.308         1.557
    4ORBIT:  cpu time    0.0000: real time    0.0000

 total amount of memory used by VASP MPI-rank0  8653580. kBytes
=======================================================================

   base      :      30000. kBytes
   nonlr-proj:      53618. kBytes
   fftplans  :     249280. kBytes
   grid      :     701440. kBytes
   one-center:       2636. kBytes
   wavefun   :    7616606. kBytes
 
  
  
 General timing and accounting informations for this job:
 ========================================================
  
                  Total CPU time used (sec):      497.534
                            User time (sec):      403.378
                          System time (sec):       94.155
                         Elapsed time (sec):      500.767
  
                   Maximum memory used (kb):    10327456.
                   Average memory used (kb):          N/A
  
                          Minor page faults:      3657278
                          Major page faults:           12
                 Voluntary context switches:        10840
