 vasp.6.2.1 16May21 (build Nov 15 2021 14:57:28) complex                         
 executed on             LinuxPGI date 2023.07.25  03:17:59
 running on    4 total cores
 distrk:  each k-point on    4 cores,    1 groups
 distr:  one band on NCORE=   1 cores,    4 groups


--------------------------------------------------------------------------------------------------------


 INCAR:
   SYSTEM = PSC
   ISTART = 1
   ICHARG = 1
   PREC = Normal
   ENCUT = 500
   GGA_COMPAT = F
   NELM = 600
   ISYM = 0
   LREAL = Auto
   ISMEAR = 0
   SIGMA = 0.05
   AMIN = 0.01
   BMIX = 0.01
   LVTOT = T
   LWAVE = F
   LDIPOL = T
   IDIPOL = 3
   LVDW = T
   IVDW = 12

 POTCAR:    PAW_PBE H 15Jun2001                   
 POTCAR:    PAW_PBE C 08Apr2002                   
 POTCAR:    PAW_PBE N 08Apr2002                   
 POTCAR:    PAW_PBE I 08Apr2002                   
 POTCAR:    PAW_PBE Pb 08Apr2002                  
 WARNING: For LVTOT=.TRUE., VASP.5.x writes the TOTAL local potential to the
     file LOCPOT. If you want only the Hartree contributions, use LVHAR=.TRUE.
     instead. 

 POTCAR:    PAW_PBE H 15Jun2001                   
   SHA256 =  030f79b5d3ab3cf0e668861823c8fb652ff669f3e15e46930bd03bfd63a607b6 H/POTCAR              
   COPYR  = (c) Copyright 15Jun2001 Georg Kresse                                                    
   COPYR  = This file is part of the software VASP. Any use, copying, and all other rights are regul
   COPYR  = If you do not have a valid VASP license, you may not use, copy or distribute this file. 
   VRHFIN =H: ultrasoft test                                                                        
   LEXCH  = PE                                                                                      
   EATOM  =    12.4884 eV,    0.9179 Ry                                                             
                                                                                                    
   TITEL  = PAW_PBE H 15Jun2001                                                                     
   LULTRA =        F    use ultrasoft PP ?                                                          
   IUNSCR =        0    unscreen: 0-lin 1-nonlin 2-no                                               
   RPACOR =    0.000    partial core radius                                                         
   POMASS =    1.000; ZVAL   =    1.000    mass and valenz                                          
   RCORE  =    1.100    outmost cutoff radius                                                       
   RWIGS  =    0.700; RWIGS  =    0.370    wigner-seitz radius (au A)                               
   ENMAX  =  250.000; ENMIN  =  200.000 eV                                                          
   RCLOC  =    0.701    cutoff for local pot                                                        
   LCOR   =        T    correct aug charges                                                         
   LPAW   =        T    paw PP                                                                      
   EAUG   =  400.000                                                                                
   RMAX   =    1.123    core radius for proj-oper                                                   
   RAUG   =    1.200    factor for augmentation sphere                                              
   RDEP   =    1.112    radius for radial grids                                                     
   RDEPT  =    0.926    core radius for aug-charge                                                  
                                                                                                    
   Atomic configuration                                                                             
    2 entries                                                                                       
     n  l   j            E        occ.                                                              
     1  0  0.50        -6.4927   1.0000                                                             
     2  1  0.50        -3.4015   0.0000                                                             
   Description                                                                                      
     l       E           TYP  RCUT    TYP  RCUT                                                     
     0     -6.4927494     23  1.100                                                                 
     0      6.8029130     23  1.100                                                                 
     1     -4.0817478     23  1.100                                                                 
  local pseudopotential read in
  atomic valenz-charges read in
  non local Contribution for L=            0  read in
    real space projection operators read in
  non local Contribution for L=            0  read in
    real space projection operators read in
  non local Contribution for L=            1  read in
    real space projection operators read in
    PAW grid and wavefunctions read in
 
   number of l-projection  operators is LMAX  =            3
   number of lm-projection operators is LMMAX =            5
 
 POTCAR:    PAW_PBE C 08Apr2002                   
   SHA256 =  253f7b50bb8d59471dbedb8285d89021f4a42ed1a2c5d38a03a736e69125dd95 C/POTCAR              
   COPYR  = (c) Copyright 08Apr2002 Georg Kresse                                                    
   COPYR  = This file is part of the software VASP. Any use, copying, and all other rights are regul
   COPYR  = If you do not have a valid VASP license, you may not use, copy or distribute this file. 
   VRHFIN =C: s2p2                                                                                  
   LEXCH  = PE                                                                                      
   EATOM  =   147.1560 eV,   10.8157 Ry                                                             
                                                                                                    
   TITEL  = PAW_PBE C 08Apr2002                                                                     
   LULTRA =        F    use ultrasoft PP ?                                                          
   IUNSCR =        1    unscreen: 0-lin 1-nonlin 2-no                                               
   RPACOR =    1.200    partial core radius                                                         
   POMASS =   12.011; ZVAL   =    4.000    mass and valenz                                          
   RCORE  =    1.500    outmost cutoff radius                                                       
   RWIGS  =    1.630; RWIGS  =    0.863    wigner-seitz radius (au A)                               
   ENMAX  =  400.000; ENMIN  =  300.000 eV                                                          
   ICORE  =        2    local potential                                                             
   LCOR   =        T    correct aug charges                                                         
   LPAW   =        T    paw PP                                                                      
   EAUG   =  644.873                                                                                
   DEXC   =    0.000                                                                                
   RMAX   =    1.529    core radius for proj-oper                                                   
   RAUG   =    1.300    factor for augmentation sphere                                              
   RDEP   =    1.501    radius for radial grids                                                     
   RDEPT  =    1.300    core radius for aug-charge                                                  
                                                                                                    
   Atomic configuration                                                                             
    4 entries                                                                                       
     n  l   j            E        occ.                                                              
     1  0  0.50      -273.3789   2.0000                                                             
     2  0  0.50       -13.7508   2.0000                                                             
     2  1  0.50        -5.2854   2.0000                                                             
     3  2  1.50        -5.4423   0.0000                                                             
   Description                                                                                      
     l       E           TYP  RCUT    TYP  RCUT                                                     
     0    -13.7508458     23  1.200                                                                 
     0     -8.2022199     23  1.200                                                                 
     1     -5.2854383     23  1.500                                                                 
     1     34.0145650     23  1.500                                                                 
     2     -5.4423304      7  1.500                                                                 
  local pseudopotential read in
  partial core-charges read in
  partial kinetic energy density read in
  atomic valenz-charges read in
  non local Contribution for L=            0  read in
    real space projection operators read in
  non local Contribution for L=            0  read in
    real space projection operators read in
  non local Contribution for L=            1  read in
    real space projection operators read in
  non local Contribution for L=            1  read in
    real space projection operators read in
    PAW grid and wavefunctions read in
 
   number of l-projection  operators is LMAX  =            4
   number of lm-projection operators is LMMAX =            8
 
 POTCAR:    PAW_PBE N 08Apr2002                   
   SHA256 =  e053789ff3a61a86a1b75d8a110fcc91f86041011e7b0817c7c99e4e8a6349d7 N/POTCAR              
   COPYR  = (c) Copyright 08Apr2002 Georg Kresse                                                    
   COPYR  = This file is part of the software VASP. Any use, copying, and all other rights are regul
   COPYR  = If you do not have a valid VASP license, you may not use, copy or distribute this file. 
   VRHFIN =N: s2p3                                                                                  
   LEXCH  = PE                                                                                      
   EATOM  =   264.5486 eV,   19.4438 Ry                                                             
                                                                                                    
   TITEL  = PAW_PBE N 08Apr2002                                                                     
   LULTRA =        F    use ultrasoft PP ?                                                          
   IUNSCR =        1    unscreen: 0-lin 1-nonlin 2-no                                               
   RPACOR =    1.200    partial core radius                                                         
   POMASS =   14.001; ZVAL   =    5.000    mass and valenz                                          
   RCORE  =    1.500    outmost cutoff radius                                                       
   RWIGS  =    1.400; RWIGS  =    0.741    wigner-seitz radius (au A)                               
   ENMAX  =  400.000; ENMIN  =  300.000 eV                                                          
   ICORE  =        2    local potential                                                             
   LCOR   =        T    correct aug charges                                                         
   LPAW   =        T    paw PP                                                                      
   EAUG   =  627.112                                                                                
   DEXC   =    0.000                                                                                
   RMAX   =    1.529    core radius for proj-oper                                                   
   RAUG   =    1.300    factor for augmentation sphere                                              
   RDEP   =    1.514    radius for radial grids                                                     
   RDEPT  =    1.338    core radius for aug-charge                                                  
                                                                                                    
   Atomic configuration                                                                             
    4 entries                                                                                       
     n  l   j            E        occ.                                                              
     1  0  0.50      -384.7179   2.0000                                                             
     2  0  0.50       -18.5828   2.0000                                                             
     2  1  0.50        -7.0898   3.0000                                                             
     3  2  1.50        -6.8029   0.0000                                                             
   Description                                                                                      
     l       E           TYP  RCUT    TYP  RCUT                                                     
     0    -18.5828119     23  1.200                                                                 
     0    -13.5018863     23  1.200                                                                 
     1     -7.0897853     23  1.500                                                                 
     1      9.5240782     23  1.500                                                                 
     2     -6.8029130      7  1.500                                                                 
  local pseudopotential read in
  partial core-charges read in
  partial kinetic energy density read in
  atomic valenz-charges read in
  non local Contribution for L=            0  read in
    real space projection operators read in
  non local Contribution for L=            0  read in
    real space projection operators read in
  non local Contribution for L=            1  read in
    real space projection operators read in
  non local Contribution for L=            1  read in
    real space projection operators read in
    PAW grid and wavefunctions read in
 
   number of l-projection  operators is LMAX  =            4
   number of lm-projection operators is LMMAX =            8
 
 POTCAR:    PAW_PBE I 08Apr2002                   
   SHA256 =  e40f3f59b681c1fc3e3091736183c4589116986673d2b852a5012aec72758799 I/POTCAR              
   COPYR  = (c) Copyright 08Apr2002 Georg Kresse                                                    
   COPYR  = This file is part of the software VASP. Any use, copying, and all other rights are regul
   COPYR  = If you do not have a valid VASP license, you may not use, copy or distribute this file. 
   VRHFIN =I : s2p5                                                                                 
   LEXCH  = PE                                                                                      
   EATOM  =   315.8678 eV,   23.2156 Ry                                                             
                                                                                                    
   TITEL  = PAW_PBE I 08Apr2002                                                                     
   LULTRA =        F    use ultrasoft PP ?                                                          
   IUNSCR =        1    unscreen: 0-lin 1-nonlin 2-no                                               
   RPACOR =    2.200    partial core radius                                                         
   POMASS =  126.904; ZVAL   =    7.000    mass and valenz                                          
   RCORE  =    2.300    outmost cutoff radius                                                       
   RWIGS  =    2.810; RWIGS  =    1.487    wigner-seitz radius (au A)                               
   ENMAX  =  175.647; ENMIN  =  131.735 eV                                                          
   ICORE  =        3    local potential                                                             
   LCOR   =        T    correct aug charges                                                         
   LPAW   =        T    paw PP                                                                      
   EAUG   =  370.139                                                                                
   DEXC   =    0.000                                                                                
   RMAX   =    2.359    core radius for proj-oper                                                   
   RAUG   =    1.300    factor for augmentation sphere                                              
   RDEP   =    2.392    radius for radial grids                                                     
   RDEPT  =    2.170    core radius for aug-charge                                                  
                                                                                                    
   Atomic configuration                                                                             
   13 entries                                                                                       
     n  l   j            E        occ.                                                              
     1  0  0.50    -32976.3739   2.0000                                                             
     2  0  0.50     -5094.5933   2.0000                                                             
     2  1  1.50     -4572.0131   6.0000                                                             
     3  0  0.50     -1028.2813   2.0000                                                             
     3  1  1.50      -859.0250   6.0000                                                             
     3  2  2.50      -605.7620  10.0000                                                             
     4  0  0.50      -180.5540   2.0000                                                             
     4  1  1.50      -127.5306   6.0000                                                             
     4  2  2.50       -50.2720  10.0000                                                             
     5  0  0.50       -17.4058   2.0000                                                             
     5  1  0.50        -7.0851   5.0000                                                             
     5  2  1.50        -7.0750   0.0000                                                             
     4  3  2.50        -7.0750   0.0000                                                             
   Description                                                                                      
     l       E           TYP  RCUT    TYP  RCUT                                                     
     0    -17.4058016     23  2.300                                                                 
     0    -18.7663842     23  2.300                                                                 
     1     -7.0850686     23  2.300                                                                 
     1     -4.2150896     23  2.300                                                                 
     2     -7.0750295     23  2.300                                                                 
     3     -1.3605826     23  2.300                                                                 
  local pseudopotential read in
  partial core-charges read in
  partial kinetic energy density read in
  atomic valenz-charges read in
  non local Contribution for L=            0  read in
    real space projection operators read in
  non local Contribution for L=            0  read in
    real space projection operators read in
  non local Contribution for L=            1  read in
    real space projection operators read in
  non local Contribution for L=            1  read in
    real space projection operators read in
  non local Contribution for L=            2  read in
    real space projection operators read in
    PAW grid and wavefunctions read in
 
   number of l-projection  operators is LMAX  =            5
   number of lm-projection operators is LMMAX =           13
 
 POTCAR:    PAW_PBE Pb 08Apr2002                  
   SHA256 =  797118a27cf1bcd06b9881c67a26cdde129e3cd1a551dd4a281f9681ce847303 Pb/POTCAR             
   COPYR  = (c) Copyright 08Apr2002 Georg Kresse                                                    
   COPYR  = This file is part of the software VASP. Any use, copying, and all other rights are regul
   COPYR  = If you do not have a valid VASP license, you may not use, copy or distribute this file. 
   VRHFIN =Pb:                                                                                      
   LEXCH  = PE                                                                                      
   EATOM  =    96.9868 eV,    7.1283 Ry                                                             
                                                                                                    
   TITEL  = PAW_PBE Pb 08Apr2002                                                                    
   LULTRA =        F    use ultrasoft PP ?                                                          
   IUNSCR =        1    unscreen: 0-lin 1-nonlin 2-no                                               
   RPACOR =    2.200    partial core radius                                                         
   POMASS =  207.200; ZVAL   =    4.000    mass and valenz                                          
   RCORE  =    3.100    outmost cutoff radius                                                       
   RWIGS  =    3.260; RWIGS  =    1.725    wigner-seitz radius (au A)                               
   ENMAX  =   97.973; ENMIN  =   73.480 eV                                                          
   ICORE  =        3    local potential                                                             
   LCOR   =        T    correct aug charges                                                         
   LPAW   =        T    paw PP                                                                      
   EAUG   =  234.873                                                                                
   DEXC   =    0.000                                                                                
   RMAX   =    3.158    core radius for proj-oper                                                   
   RAUG   =    1.300    factor for augmentation sphere                                              
   RDEP   =    3.202    radius for radial grids                                                     
   RDEPT  =    2.659    core radius for aug-charge                                                  
                                                                                                    
   Atomic configuration                                                                             
   17 entries                                                                                       
     n  l   j            E        occ.                                                              
     1  0  0.50    -88091.8466   2.0000                                                             
     2  0  0.50    -15753.4197   2.0000                                                             
     2  1  1.50    -13508.1797   6.0000                                                             
     3  0  0.50     -3781.7194   2.0000                                                             
     3  1  1.50     -3138.2529   6.0000                                                             
     3  2  2.50     -2483.2977  10.0000                                                             
     4  0  0.50      -856.2895   2.0000                                                             
     4  1  1.50      -645.4943   6.0000                                                             
     4  2  2.50      -401.8768  10.0000                                                             
     4  3  3.50      -132.9059  14.0000                                                             
     5  0  0.50      -144.0950   2.0000                                                             
     5  1  1.50       -85.7879   6.0000                                                             
     5  2  2.50       -21.1769  10.0000                                                             
     6  0  0.50       -12.0372   2.0000                                                             
     6  1  1.50        -3.4971   2.0000                                                             
     6  2  2.50        -1.3606   0.0000                                                             
     5  3  2.50        -2.7212   0.0000                                                             
   Description                                                                                      
     l       E           TYP  RCUT    TYP  RCUT                                                     
     0    -12.0371566     23  3.100                                                                 
     0    -13.3977392     23  3.100                                                                 
     1     -3.4971341     23  3.100                                                                 
     1     -5.4423304     23  3.100                                                                 
     2     -1.3605826     23  3.100                                                                 
     3     -1.3605826     23  3.100                                                                 
  local pseudopotential read in
  partial core-charges read in
  partial kinetic energy density read in
  atomic valenz-charges read in
  non local Contribution for L=            0  read in
    real space projection operators read in
  non local Contribution for L=            0  read in
    real space projection operators read in
  non local Contribution for L=            1  read in
    real space projection operators read in
  non local Contribution for L=            1  read in
    real space projection operators read in
  non local Contribution for L=            2  read in
    real space projection operators read in
    PAW grid and wavefunctions read in
 
   number of l-projection  operators is LMAX  =            5
   number of lm-projection operators is LMMAX =           13
 
 Optimization of the real space projectors (new method)

 maximal supplied QI-value         = 34.20
 optimisation between [QCUT,QGAM] = [ 11.29, 22.57] = [ 35.68,142.71] Ry 
 Optimized for a Real-space Cutoff    1.16 Angstroem

   l    n(q)    QCUT    max X(q) W(low)/X(q) W(high)/X(q)  e(spline) 
   0      8    11.287    19.460    0.40E-03    0.73E-03    0.16E-06
   0      8    11.287    12.209    0.38E-03    0.70E-03    0.15E-06
   1      7    11.287     4.655    0.22E-03    0.25E-04    0.22E-06
 Optimization of the real space projectors (new method)

 maximal supplied QI-value         = 25.13
 optimisation between [QCUT,QGAM] = [ 11.31, 22.87] = [ 35.82,146.48] Ry 
 Optimized for a Real-space Cutoff    1.00 Angstroem

   l    n(q)    QCUT    max X(q) W(low)/X(q) W(high)/X(q)  e(spline) 
   0      7    11.310   115.676    0.43E-03    0.13E-02    0.19E-06
   0      7    11.310    87.132    0.43E-03    0.13E-02    0.18E-06
   1      6    11.310     4.429    0.42E-03    0.74E-03    0.11E-06
   1      6    11.310     2.733    0.34E-03    0.55E-03    0.92E-07
 Optimization of the real space projectors (new method)

 maximal supplied QI-value         = 25.13
 optimisation between [QCUT,QGAM] = [ 11.31, 22.87] = [ 35.82,146.48] Ry 
 Optimized for a Real-space Cutoff    1.27 Angstroem

   l    n(q)    QCUT    max X(q) W(low)/X(q) W(high)/X(q)  e(spline) 
   0      9    11.310    79.467    0.75E-04    0.16E-03    0.36E-06
   0      9    11.310    66.151    0.74E-04    0.16E-03    0.36E-06
   1      8    11.310    17.416    0.35E-03    0.12E-03    0.95E-06
   1      8    11.310    12.382    0.37E-03    0.13E-03    0.98E-06
 Optimization of the real space projectors (new method)

 maximal supplied QI-value         = 16.25
 optimisation between [QCUT,QGAM] = [ 11.38, 22.75] = [ 36.24,144.96] Ry 
 Optimized for a Real-space Cutoff    1.31 Angstroem

   l    n(q)    QCUT    max X(q) W(low)/X(q) W(high)/X(q)  e(spline) 
   0      9    11.376   194.483    0.24E-03    0.23E-03    0.67E-07
   0      9    11.376   190.334    0.23E-03    0.22E-03    0.65E-07
   1      8    11.376   116.687    0.25E-03    0.63E-04    0.16E-06
   1      8    11.376    88.696    0.25E-03    0.61E-04    0.16E-06
   2      8    11.376     4.877    0.17E-03    0.14E-03    0.29E-07
 Optimization of the real space projectors (new method)

 maximal supplied QI-value         = 12.09
 optimisation between [QCUT,QGAM] = [ 11.37, 22.86] = [ 36.19,146.31] Ry 
 Optimized for a Real-space Cutoff    1.66 Angstroem

   l    n(q)    QCUT    max X(q) W(low)/X(q) W(high)/X(q)  e(spline) 
   0     11    11.369   135.111    0.12E-03    0.69E-04    0.19E-05
   0     11    11.369   146.850    0.11E-03    0.65E-04    0.18E-05
   1     11    11.369   148.016    0.17E-03    0.32E-03    0.89E-06
   1     11    11.369   122.989    0.17E-03    0.32E-03    0.91E-06
   2     10    11.369     8.916    0.12E-03    0.45E-04    0.33E-06
  PAW_PBE H 15Jun2001                   :
 energy of atom  1       EATOM=  -12.4884
 kinetic energy error for atom=    0.0020 (will be added to EATOM!!)
  PAW_PBE C 08Apr2002                   :
 energy of atom  2       EATOM= -147.1560
 kinetic energy error for atom=    0.0076 (will be added to EATOM!!)
  PAW_PBE N 08Apr2002                   :
 energy of atom  3       EATOM= -264.5486
 kinetic energy error for atom=    0.0138 (will be added to EATOM!!)
  PAW_PBE I 08Apr2002                   :
 energy of atom  4       EATOM= -315.8678
 kinetic energy error for atom=    0.0009 (will be added to EATOM!!)
  PAW_PBE Pb 08Apr2002                  :
 energy of atom  5       EATOM=  -96.9868
 kinetic energy error for atom=    0.0000 (will be added to EATOM!!)
 
 
 POSCAR:  H  C  N  I Pb
  positions in cartesian coordinates
  No initial velocities read in
 exchange correlation table for  LEXCH =        8
   RHO(1)=    0.500       N(1)  =     2000
   RHO(2)=  100.500       N(2)  =     4000
 


--------------------------------------------------------------------------------------------------------


 ion  position               nearest neighbor table
   1  0.453  0.336  0.563- 187 1.02
   2  0.444  0.828  0.573- 188 1.03
   3  0.963  0.328  0.575- 189 1.04
   4  0.939  0.818  0.573- 190 1.03
   5  0.337  0.951  0.572- 194 1.03
   6  0.352  0.548  0.558- 195 1.03
   7  0.807  0.089  0.561- 196 1.03
   8  0.014  0.142  0.559- 183 1.03
   9  0.076  0.671  0.571- 184 1.02
  10  0.551  0.160  0.560- 185 1.02
  11  0.496  0.641  0.558- 186 1.03
  12  0.371  0.026  0.558- 194 1.02
  13  0.297  0.627  0.553- 195 1.02
  14  0.879  0.027  0.554- 196 1.02
  15  0.957  0.190  0.577- 183 1.03
  16  0.991  0.693  0.582- 184 1.03
  17  0.566  0.252  0.567- 185 1.02
  18  0.443  0.690  0.576- 186 1.03
  19  0.279  0.437  0.572- 191 1.03
  20  0.203  0.930  0.572- 192 1.02
  21  0.687  0.029  0.571- 193 1.02
  22  0.372  0.290  0.556- 187 1.03
  23  0.505  0.866  0.554- 188 1.02
  24  0.023  0.368  0.556- 189 1.03
  25  0.990  0.869  0.554- 190 1.03
  26  0.183  0.446  0.569- 191 1.02
  27  0.148  0.995  0.560- 192 1.02
  28  0.683  0.932  0.567- 193 1.02
  29  0.429  0.178  0.551- 146 1.09
  30  0.545  0.750  0.542- 147 1.09
  31  0.064  0.250  0.544- 144 1.09
  32  0.082  0.780  0.551- 145 1.10
  33  0.187  0.565  0.557- 148 1.09
  34  0.249  0.066  0.549- 149 1.09
  35  0.803  0.923  0.556- 150 1.09
  36  0.486  0.339  0.658- 205 1.02
  37  0.448  0.808  0.674- 206 1.02
  38  0.963  0.288  0.676- 207 1.02
  39  0.928  0.725  0.672- 208 1.03
  40  0.304  0.057  0.670- 209 1.02
  41  0.297  0.549  0.675- 210 1.02
  42  0.801  0.058  0.674- 211 1.01
  43  0.773  0.596  0.655- 212 1.03
  44  0.085  0.163  0.645- 197 1.02
  45  0.117  0.723  0.653- 198 1.03
  46  0.562  0.151  0.656- 199 1.02
  47  0.568  0.668  0.649- 200 1.02
  48  0.176  0.416  0.648- 201 1.03
  49  0.171  0.920  0.650- 202 1.02
  50  0.692  0.410  0.656- 203 1.02
  51  0.675  0.921  0.651- 204 1.02
  52  0.063  0.184  0.672- 197 1.03
  53  0.058  0.677  0.670- 198 1.02
  54  0.592  0.243  0.658- 199 1.02
  55  0.541  0.697  0.675- 200 1.02
  56  0.199  0.444  0.673- 201 1.02
  57  0.203  0.954  0.674- 202 1.02
  58  0.665  0.503  0.656- 203 1.02
  59  0.699  0.959  0.676- 204 1.02
  60  0.398  0.300  0.656- 205 1.02
  61  0.428  0.841  0.648- 206 1.02
  62  0.934  0.325  0.651- 207 1.02
  63  0.905  0.797  0.655- 208 1.02
  64  0.326  0.078  0.644- 209 1.02
  65  0.328  0.578  0.650- 210 1.02
  66  0.834  0.077  0.648- 211 1.02
  67  0.861  0.555  0.655- 212 1.02
  68  0.007  0.251  0.631- 151 1.10
  69  0.024  0.804  0.641- 152 1.09
  70  0.439  0.180  0.654- 153 1.09
  71  0.502  0.755  0.631- 154 1.10
  72  0.244  0.994  0.629- 156 1.10
  73  0.255  0.496  0.631- 155 1.09
  74  0.759  0.992  0.632- 158 1.09
  75  0.816  0.436  0.655- 157 1.09
  76  0.449  0.301  0.769- 221 1.02
  77  0.449  0.801  0.769- 222 1.02
  78  0.949  0.301  0.769- 223 1.02
  79  0.949  0.801  0.769- 224 1.02
  80  0.301  0.051  0.769- 225 1.02
  81  0.301  0.551  0.769- 226 1.02
  82  0.801  0.051  0.769- 227 1.02
  83  0.801  0.551  0.769- 228 1.02
  84  0.079  0.171  0.743- 213 1.02
  85  0.079  0.671  0.743- 214 1.02
  86  0.579  0.171  0.743- 215 1.02
  87  0.579  0.671  0.743- 216 1.02
  88  0.171  0.421  0.743- 217 1.02
  89  0.171  0.921  0.743- 218 1.02
  90  0.671  0.421  0.743- 219 1.02
  91  0.671  0.921  0.743- 220 1.02
  92  0.051  0.199  0.769- 213 1.02
  93  0.051  0.699  0.769- 214 1.02
  94  0.551  0.199  0.769- 215 1.02
  95  0.551  0.699  0.769- 216 1.02
  96  0.199  0.449  0.769- 217 1.02
  97  0.199  0.949  0.769- 218 1.02
  98  0.699  0.449  0.769- 219 1.02
  99  0.699  0.949  0.769- 220 1.02
 100  0.421  0.329  0.743- 221 1.02
 101  0.421  0.829  0.743- 222 1.02
 102  0.921  0.329  0.743- 223 1.02
 103  0.921  0.829  0.743- 224 1.02
 104  0.329  0.079  0.743- 225 1.02
 105  0.329  0.579  0.743- 226 1.02
 106  0.829  0.079  0.743- 227 1.02
 107  0.829  0.579  0.743- 228 1.02
 108  0.000  0.250  0.726- 161 1.09
 109  0.000  0.750  0.726- 162 1.09
 110  0.500  0.250  0.726- 159 1.09
 111  0.500  0.750  0.726- 160 1.09
 112  0.250  0.000  0.726- 163 1.09
 113  0.250  0.500  0.726- 164 1.09
 114  0.750  0.000  0.726- 165 1.09
 115  0.750  0.500  0.726- 166 1.09
 116  0.775  0.556  0.518- 173 1.10
 117  0.718  0.479  0.524- 173 1.09
 118  0.869  0.502  0.537- 174 1.09
 119  0.861  0.486  0.565- 174 1.10
 120  0.743  0.642  0.559- 175 1.09
 121  0.813  0.599  0.574- 175 1.09
 122  0.666  0.547  0.568- 176 1.10
 123  0.682  0.455  0.559- 176 1.10
 124  0.616  0.562  0.536- 177 1.10
 125  0.674  0.640  0.533- 177 1.10
 126  0.605  0.645  0.502- 178 1.10
 127  0.687  0.601  0.493- 178 1.10
 128  0.790  0.390  0.529- 179 1.10
 129  0.777  0.374  0.557- 179 1.09
 130  0.866  0.368  0.546- 179 1.10
 131  0.861  0.698  0.551- 180 1.10
 132  0.835  0.651  0.528- 180 1.09
 133  0.905  0.613  0.545- 180 1.10
 134  0.770  0.532  0.596- 181 1.10
 135  0.776  0.438  0.588- 181 1.09
 136  0.694  0.473  0.599- 181 1.10
 137  0.539  0.526  0.505- 182 1.10
 138  0.573  0.543  0.478- 182 1.10
 139  0.705  0.479  0.470- 168 1.09
 140  0.556  0.409  0.520- 169 1.10
 141  0.769  0.358  0.471- 170 1.09
 142  0.622  0.288  0.522- 171 1.09
 143  0.729  0.262  0.498- 172 1.09
 144  0.021  0.254  0.557-  31 1.09 183 1.31 189 1.31
 145  0.034  0.769  0.561-  32 1.10 184 1.31 190 1.32
 146  0.463  0.225  0.557-  29 1.09 185 1.31 187 1.32
 147  0.502  0.753  0.555-  30 1.09 188 1.31 186 1.31
 148  0.239  0.536  0.560-  33 1.09 195 1.31 191 1.31
 149  0.258  0.015  0.558-  34 1.09 192 1.31 194 1.31
 150  0.782  0.978  0.560-  35 1.09 193 1.31 196 1.31
 151  0.010  0.244  0.648-  68 1.10 197 1.31 207 1.31
 152  0.012  0.762  0.653-  69 1.09 198 1.31 208 1.31
 153  0.480  0.225  0.656-  70 1.09 199 1.31 205 1.31
 154  0.498  0.754  0.649-  71 1.10 200 1.31 206 1.31
 155  0.252  0.496  0.648-  73 1.09 201 1.31 210 1.31
 156  0.248  0.999  0.647-  72 1.10 202 1.31 209 1.32
 157  0.777  0.482  0.655-  75 1.09 203 1.31 212 1.31
 158  0.755  0.999  0.649-  74 1.09 204 1.31 211 1.32
 159  0.500  0.250  0.743- 110 1.09 221 1.31 215 1.31
 160  0.500  0.750  0.743- 111 1.09 222 1.31 216 1.31
 161  1.000  0.250  0.743- 108 1.09 223 1.31 213 1.31
 162  1.000  0.750  0.743- 109 1.09 224 1.31 214 1.31
 163  0.250  0.000  0.743- 112 1.09 225 1.31 218 1.31
 164  0.250  0.500  0.743- 113 1.09 226 1.31 217 1.31
 165  0.750  0.000  0.743- 114 1.09 227 1.31 220 1.31
 166  0.750  0.500  0.743- 115 1.09 228 1.31 219 1.31
 167  0.627  0.454  0.495- 168 1.41 169 1.41 182 1.52
 168  0.686  0.438  0.481- 139 1.09 170 1.40 167 1.41
 169  0.603  0.398  0.509- 140 1.10 171 1.40 167 1.41
 170  0.722  0.369  0.482- 141 1.09 172 1.40 168 1.40
 171  0.640  0.330  0.510- 142 1.09 172 1.40 169 1.40
 172  0.700  0.315  0.497- 143 1.09 170 1.40 171 1.40
 173  0.731  0.536  0.529- 117 1.09 116 1.10 229 1.52 177 1.53
 174  0.832  0.479  0.550- 118 1.09 119 1.10 179 1.51 229 1.52
 175  0.792  0.607  0.558- 121 1.09 120 1.09 229 1.51 180 1.51
 176  0.708  0.504  0.567- 122 1.10 123 1.10 181 1.51 229 1.53
 177  0.663  0.585  0.527- 125 1.10 124 1.10 173 1.53 178 1.54
 178  0.638  0.593  0.503- 127 1.10 126 1.10 177 1.54 182 1.55
 179  0.814  0.399  0.545- 129 1.09 128 1.10 130 1.10 174 1.51
 180  0.852  0.642  0.544- 132 1.09 131 1.10 133 1.10 175 1.51
 181  0.740  0.486  0.588- 135 1.09 136 1.10 134 1.10 176 1.51
 182  0.590  0.529  0.495- 137 1.10 138 1.10 167 1.52 178 1.55
 183  0.995  0.192  0.564-  15 1.03   8 1.03 144 1.31
 184  0.033  0.707  0.571-   9 1.02  16 1.03 145 1.31
 185  0.533  0.213  0.561-  17 1.02  10 1.02 146 1.31
 186  0.477  0.692  0.563-  11 1.03  18 1.03 147 1.31
 187  0.429  0.290  0.558-   1 1.02  22 1.03 146 1.32
 188  0.481  0.820  0.560-  23 1.02   2 1.03 147 1.31
 189  0.999  0.321  0.562-  24 1.03   3 1.04 144 1.31
 190  0.981  0.819  0.561-  25 1.03   4 1.03 145 1.32
 191  0.234  0.467  0.566-  26 1.02  19 1.03 148 1.31
 192  0.200  0.976  0.563-  20 1.02  27 1.02 149 1.31
 193  0.712  0.981  0.566-  21 1.02  28 1.02 150 1.31
 194  0.326  0.995  0.562-  12 1.02   5 1.03 149 1.31
 195  0.301  0.572  0.556-  13 1.02   6 1.03 148 1.31
 196  0.826  0.035  0.559-  14 1.02   7 1.03 150 1.31
 197  0.055  0.194  0.656-  44 1.02  52 1.03 151 1.31
 198  0.064  0.716  0.658-  53 1.02  45 1.03 152 1.31
 199  0.550  0.206  0.657-  46 1.02  54 1.02 153 1.31
 200  0.537  0.703  0.658-  55 1.02  47 1.02 154 1.31
 201  0.206  0.450  0.657-  56 1.02  48 1.03 155 1.31
 202  0.205  0.955  0.658-  49 1.02  57 1.02 156 1.31
 203  0.706  0.465  0.655-  58 1.02  50 1.02 157 1.31
 204  0.707  0.957  0.660-  59 1.02  51 1.02 158 1.31
 205  0.454  0.293  0.657-  36 1.02  60 1.02 153 1.31
 206  0.456  0.804  0.658-  61 1.02  37 1.02 154 1.31
 207  0.967  0.288  0.659-  62 1.02  38 1.02 151 1.31
 208  0.944  0.762  0.661-  63 1.02  39 1.03 152 1.31
 209  0.296  0.047  0.654-  40 1.02  64 1.02 156 1.32
 210  0.295  0.543  0.659-  41 1.02  65 1.02 155 1.31
 211  0.799  0.048  0.658-  42 1.01  66 1.02 158 1.32
 212  0.805  0.549  0.655-  67 1.02  43 1.03 157 1.31
 213  0.046  0.204  0.753-  92 1.02  84 1.02 161 1.31
 214  0.046  0.704  0.753-  93 1.02  85 1.02 162 1.31
 215  0.546  0.204  0.753-  94 1.02  86 1.02 159 1.31
 216  0.546  0.704  0.753-  95 1.02  87 1.02 160 1.31
 217  0.204  0.454  0.753-  96 1.02  88 1.02 164 1.31
 218  0.204  0.954  0.753-  97 1.02  89 1.02 163 1.31
 219  0.704  0.454  0.753-  98 1.02  90 1.02 166 1.31
 220  0.704  0.954  0.753-  99 1.02  91 1.02 165 1.31
 221  0.454  0.296  0.753-  76 1.02 100 1.02 159 1.31
 222  0.454  0.796  0.753-  77 1.02 101 1.02 160 1.31
 223  0.954  0.296  0.753-  78 1.02 102 1.02 161 1.31
 224  0.954  0.796  0.753-  79 1.02 103 1.02 162 1.31
 225  0.296  0.046  0.753-  80 1.02 104 1.02 163 1.31
 226  0.296  0.546  0.753-  81 1.02 105 1.02 164 1.31
 227  0.796  0.046  0.753-  82 1.02 106 1.02 165 1.31
 228  0.796  0.546  0.753-  83 1.02 107 1.02 166 1.31
 229  0.766  0.531  0.551- 175 1.51 173 1.52 174 1.52 176 1.53
 230  0.518  0.015  0.553- 304 3.22
 231  0.484  0.495  0.554- 305 3.15
 232  0.016  0.006  0.548- 302 3.53
 233  0.036  0.509  0.553- 303 3.23
 234  0.237  0.241  0.552- 306 3.15
 235  0.253  0.766  0.553- 307 3.15
 236  0.739  0.208  0.554- 308 3.11
 237  0.701  0.791  0.554- 309 3.18
 238  1.000  0.985  0.654- 302 3.07 310 3.21
 239  0.999  0.506  0.655- 311 3.13 303 3.17
 240  0.496  0.009  0.655- 312 3.14 304 3.17
 241  0.507  0.489  0.655- 313 3.14 305 3.16
 242  0.258  0.247  0.654- 314 3.17 306 3.23
 243  0.259  0.754  0.654- 315 3.15 307 3.20
 244  0.744  0.266  0.654- 316 3.18 308 3.25
 245  0.744  0.741  0.654- 317 3.17 309 3.24
 246  0.134  0.112  0.607- 302 3.18 306 3.20
 247  0.146  0.609  0.608- 307 3.16 303 3.19
 248  0.648  0.106  0.610- 308 3.13 304 3.14
 249  0.616  0.628  0.608- 309 3.20 305 3.27
 250  0.357  0.388  0.605- 305 3.17 306 3.23
 251  0.375  0.880  0.607- 307 3.28 304 3.31
 252  0.890  0.364  0.608- 303 3.28 308 3.38
 253  0.867  0.880  0.605- 302 3.22 309 3.24
 254  0.120  0.367  0.609- 306 3.19 303 3.26
 255  0.124  0.868  0.608- 307 3.20 302 3.26
 256  0.594  0.339  0.601- 308 3.22 305 3.24
 257  0.616  0.871  0.613- 309 3.11 304 3.23
 258  0.386  0.135  0.606- 304 3.16 306 3.23
 259  0.384  0.629  0.610- 307 3.22 305 3.26
 260  0.886  0.133  0.610- 302 3.20 308 3.29
 261  0.895  0.646  0.609- 303 3.24 309 3.47
 262  0.000  0.000  0.755- 310 3.13 318 3.27
 263  0.000  0.500  0.755- 311 3.13 319 3.27
 264  0.500  0.000  0.755- 312 3.13 320 3.27
 265  0.500  0.500  0.755- 313 3.13 321 3.27
 266  0.250  0.250  0.755- 314 3.13 322 3.27
 267  0.250  0.750  0.755- 315 3.13 323 3.27
 268  0.750  0.250  0.755- 316 3.13 324 3.27
 269  0.750  0.750  0.755- 317 3.13 325 3.27
 270  0.136  0.114  0.705- 310 3.20 314 3.20
 271  0.136  0.614  0.705- 311 3.20 315 3.20
 272  0.636  0.114  0.705- 312 3.20 316 3.20
 273  0.636  0.614  0.705- 313 3.20 317 3.20
 274  0.364  0.386  0.705- 313 3.20 314 3.20
 275  0.364  0.886  0.705- 312 3.20 315 3.20
 276  0.864  0.386  0.705- 311 3.20 316 3.20
 277  0.864  0.886  0.705- 310 3.20 317 3.20
 278  0.114  0.364  0.705- 314 3.21 311 3.21
 279  0.114  0.864  0.705- 315 3.21 310 3.21
 280  0.614  0.364  0.705- 316 3.21 313 3.21
 281  0.614  0.864  0.705- 317 3.21 312 3.21
 282  0.386  0.136  0.705- 314 3.21 312 3.21
 283  0.386  0.636  0.705- 315 3.21 313 3.21
 284  0.886  0.136  0.705- 316 3.21 310 3.21
 285  0.886  0.636  0.705- 317 3.21 311 3.21
 286  0.135  0.115  0.801- 318 3.22 322 3.22
 287  0.135  0.615  0.801- 319 3.22 323 3.22
 288  0.635  0.115  0.801- 320 3.22 324 3.22
 289  0.635  0.615  0.801- 321 3.22 325 3.22
 290  0.365  0.385  0.801- 321 3.22 322 3.22
 291  0.365  0.885  0.801- 320 3.22 323 3.22
 292  0.865  0.385  0.801- 319 3.22 324 3.22
 293  0.865  0.885  0.801- 318 3.22 325 3.22
 294  0.115  0.365  0.801- 319 3.23 322 3.23
 295  0.115  0.865  0.801- 318 3.23 323 3.23
 296  0.615  0.365  0.801- 321 3.23 324 3.23
 297  0.615  0.865  0.801- 320 3.23 325 3.23
 298  0.385  0.135  0.801- 320 3.23 322 3.23
 299  0.385  0.635  0.801- 321 3.23 323 3.23
 300  0.885  0.135  0.801- 318 3.23 324 3.23
 301  0.885  0.635  0.801- 319 3.23 325 3.23
 302  1.000  0.999  0.605- 238 3.07 246 3.18 260 3.20 253 3.22 255 3.26 232 3.53
 303  0.004  0.505  0.604- 239 3.17 247 3.19 233 3.23 261 3.24 254 3.26 252 3.28
 304  0.506  0.008  0.604- 248 3.14 258 3.16 240 3.17 230 3.22 257 3.23 251 3.31
 305  0.499  0.491  0.604- 231 3.15 241 3.16 250 3.17 256 3.24 259 3.26 249 3.27
 306  0.247  0.247  0.603- 234 3.15 254 3.19 246 3.20 258 3.23 250 3.23 242 3.23
 307  0.252  0.747  0.603- 235 3.15 247 3.16 243 3.20 255 3.20 259 3.22 251 3.28
 308  0.746  0.246  0.602- 236 3.11 248 3.13 256 3.22 244 3.25 260 3.29 252 3.38
 309  0.738  0.755  0.603- 257 3.11 237 3.18 249 3.20 253 3.24 245 3.24 261 3.47
 310  0.000  0.000  0.705- 262 3.13 270 3.20 277 3.20 279 3.21 284 3.21 238 3.21
 311  0.000  0.500  0.705- 263 3.13 239 3.13 271 3.20 276 3.20 278 3.21 285 3.21
 312  0.500  0.000  0.705- 264 3.13 240 3.14 272 3.20 275 3.20 281 3.21 282 3.21
 313  0.500  0.500  0.705- 265 3.13 241 3.14 273 3.20 274 3.20 280 3.21 283 3.21
 314  0.250  0.250  0.705- 266 3.13 242 3.17 270 3.20 274 3.20 282 3.21 278 3.21
 315  0.250  0.750  0.705- 267 3.13 243 3.15 271 3.20 275 3.20 283 3.21 279 3.21
 316  0.750  0.250  0.705- 268 3.13 244 3.18 272 3.20 276 3.20 284 3.21 280 3.21
 317  0.750  0.750  0.705- 269 3.13 245 3.17 273 3.20 277 3.20 285 3.21 281 3.21
 318  0.000  0.000  0.807- 286 3.22 293 3.22 300 3.23 295 3.23 262 3.27
 319  0.000  0.500  0.807- 287 3.22 292 3.22 301 3.23 294 3.23 263 3.27
 320  0.500  0.000  0.807- 288 3.22 291 3.22 298 3.23 297 3.23 264 3.27
 321  0.500  0.500  0.807- 289 3.22 290 3.22 299 3.23 296 3.23 265 3.27
 322  0.250  0.250  0.807- 290 3.22 286 3.22 294 3.23 298 3.23 266 3.27
 323  0.250  0.750  0.807- 291 3.22 287 3.22 299 3.23 295 3.23 267 3.27
 324  0.750  0.250  0.807- 292 3.22 288 3.22 296 3.23 300 3.23 268 3.27
 325  0.750  0.750  0.807- 293 3.22 289 3.22 297 3.23 301 3.23 269 3.27
 

IMPORTANT INFORMATION: All symmetrisations will be switched off!
NOSYMM: (Re-)initialisation of all symmetry stuff for point group C_1.


----------------------------------------------------------------------------------------

                                     Primitive cell                                     

  volume of cell :   20385.2105

  direct lattice vectors                    reciprocal lattice vectors
    18.060800552  0.000000000  0.000000000     0.055368531  0.000015077 -0.000000000
    -0.004918649 18.062799454  0.000000000     0.000000000  0.055362404  0.000000000
     0.000000000  0.000000000 62.487499237     0.000000000 -0.000000000  0.016003201

  length of vectors
    18.060800552 18.062800123 62.487499237     0.055368533  0.055362404  0.016003201

  position of ions in fractional coordinates (direct lattice)
     0.453408028  0.336311256  0.563401567
     0.444233012  0.828486135  0.572794436
     0.963029008  0.327836221  0.575170644
     0.939326315  0.817506536  0.572536023
     0.337274438  0.950645473  0.571940018
     0.352264364  0.548222676  0.557837710
     0.807317632  0.088571367  0.560713468
     0.013622493  0.142399140  0.558957807
     0.075979989  0.670527393  0.570577257
     0.551383501  0.159572992  0.559808807
     0.496008010  0.640845317  0.558169868
     0.371129527  0.025643221  0.557658413
     0.297309730  0.627221609  0.552638122
     0.879425878  0.027447861  0.553745521
     0.957171080  0.190146848  0.576750611
     0.990840599  0.693375546  0.581871875
     0.566065382  0.252106708  0.567494365
     0.442654138  0.690357629  0.576192272
     0.278544310  0.436857538  0.571748573
     0.202580059  0.929593689  0.572482790
     0.687175698  0.028542986  0.571347126
     0.372108210  0.289706037  0.555625353
     0.505348490  0.866369067  0.554423636
     0.022872189  0.367671982  0.556354014
     0.989937000  0.869336932  0.554076581
     0.182954181  0.445869102  0.569196061
     0.147743174  0.994669673  0.559620964
     0.683251741  0.932494580  0.566889508
     0.429399751  0.178351735  0.551318278
     0.544666512  0.749546547  0.542249997
     0.064406295  0.250168425  0.544454479
     0.082336442  0.779744193  0.550613669
     0.187303354  0.564854058  0.557007771
     0.249391937  0.066102143  0.548800990
     0.802892991  0.922719785  0.556444853
     0.486369975  0.339096678  0.657738978
     0.448043032  0.807668053  0.674036122
     0.962990500  0.288158616  0.675544053
     0.927544181  0.725020905  0.672436070
     0.304204985  0.056735382  0.670267546
     0.297449098  0.548864432  0.674791033
     0.801482701  0.058394979  0.674076901
     0.772710144  0.596013731  0.655489138
     0.085246576  0.163072489  0.645251861
     0.117141080  0.722785451  0.652618447
     0.562438477  0.151137437  0.655599084
     0.568448461  0.668201601  0.649291854
     0.175583555  0.415658600  0.647505486
     0.170681605  0.919984171  0.650110926
     0.691820388  0.410058374  0.655938202
     0.675103371  0.921281839  0.650851248
     0.062844384  0.183975430  0.671776636
     0.057930101  0.676711535  0.669984408
     0.592461663  0.242605154  0.658254156
     0.540640546  0.696960088  0.674592202
     0.198585233  0.444029155  0.673425343
     0.203327874  0.954354188  0.674324021
     0.664807496  0.502653560  0.655933075
     0.699081920  0.958640689  0.675676770
     0.397714380  0.300229543  0.655857681
     0.428085070  0.840566038  0.648480290
     0.934375212  0.325446676  0.651117658
     0.905366042  0.797332375  0.655155758
     0.326059321  0.077786908  0.643690452
     0.327677867  0.578065627  0.649670164
     0.834252738  0.077000546  0.648370466
     0.860772720  0.555258973  0.654598579
     0.007033669  0.250650283  0.630601714
     0.024144710  0.803591120  0.640624837
     0.439415055  0.180495098  0.654053976
     0.501538609  0.755074730  0.631161030
     0.244472351  0.993837264  0.629325458
     0.254852084  0.496038641  0.630968181
     0.758634624  0.991869877  0.631979980
     0.816412298  0.435611248  0.654984154
     0.448745018  0.301283966  0.768889017
     0.448745007  0.801283913  0.768889017
     0.948744965  0.301283966  0.768889017
     0.948745007  0.801283913  0.768889017
     0.301275995  0.051294496  0.768872961
     0.301276011  0.551294499  0.768872961
     0.801275943  0.051294496  0.768872961
     0.801275984  0.551294499  0.768872961
     0.078771004  0.171180501  0.743441971
     0.078771006  0.671180448  0.743441971
     0.578771004  0.171180501  0.743441971
     0.578770992  0.671180448  0.743441971
     0.171199499  0.421174482  0.743421032
     0.171199501  0.921174508  0.743421032
     0.671199512  0.421174482  0.743421032
     0.671199501  0.921174508  0.743421032
     0.051256000  0.198714991  0.768889017
     0.051256002  0.698714925  0.768889017
     0.551256027  0.198714991  0.768889017
     0.551256016  0.698714925  0.768889017
     0.198723491  0.448703970  0.768872046
     0.198723493  0.948703970  0.768872046
     0.698723518  0.448703970  0.768872046
     0.698723507  0.948703970  0.768872046
     0.421231519  0.328817467  0.743441971
     0.421231508  0.828817440  0.743441971
     0.921231466  0.328817467  0.743441971
     0.921231508  0.828817440  0.743441971
     0.328800503  0.078824997  0.743421032
     0.328800492  0.578824964  0.743421032
     0.828800477  0.078824997  0.743421032
     0.828800519  0.578824964  0.743421032
     0.000003500  0.250001478  0.725821992
     0.000003500  0.750001452  0.725821992
     0.500003506  0.250001478  0.725821992
     0.500003495  0.750001452  0.725821992
     0.250000502  0.000000000  0.725803983
     0.250000517  0.500000000  0.725803983
     0.750000502  0.000000000  0.725803983
     0.750000490  0.500000000  0.725803983
     0.774668408  0.556039376  0.517876836
     0.718493129  0.478817403  0.523984137
     0.868582751  0.501806473  0.537366574
     0.860690638  0.485751220  0.565069320
     0.743129473  0.641895199  0.558749696
     0.812905395  0.599031648  0.574294737
     0.666371449  0.547115350  0.567736784
     0.681773490  0.455161868  0.559347472
     0.616473826  0.561606947  0.536110952
     0.674193258  0.640255830  0.533344041
     0.605255422  0.644687564  0.501909256
     0.687080689  0.601233893  0.493270779
     0.789941102  0.390098044  0.529278286
     0.777168106  0.374286188  0.557026817
     0.865861644  0.367700572  0.545790012
     0.860906511  0.697719952  0.551125979
     0.834822888  0.651412460  0.527666453
     0.904503410  0.612678640  0.544887976
     0.770217396  0.532230569  0.595833346
     0.776113397  0.437648447  0.588236429
     0.693750828  0.472861242  0.599258836
     0.539275211  0.525971560  0.504588808
     0.572674624  0.543062915  0.478462489
     0.704815394  0.479471620  0.469914942
     0.556481817  0.409210681  0.520015020
     0.768565604  0.358147250  0.471402178
     0.621864293  0.287894680  0.521783379
     0.728543595  0.262426890  0.497855742
     0.021198927  0.254357949  0.556633001
     0.033783318  0.768693000  0.560659624
     0.462860323  0.225351128  0.556527206
     0.502375758  0.753336260  0.554678753
     0.239231341  0.535681321  0.559728591
     0.258216772  0.014584943  0.557629721
     0.781521366  0.977697757  0.560262267
     0.009603109  0.244191118  0.648012057
     0.011564507  0.762134839  0.652821551
     0.479679736  0.225176368  0.655779357
     0.498241156  0.753995281  0.648706715
     0.252032468  0.496380137  0.648438595
     0.248357514  0.998527700  0.646765714
     0.777000538  0.481616790  0.655240614
     0.754953200  0.998604002  0.649350825
     0.499988984  0.249994984  0.743277021
     0.499989025  0.749994958  0.743277021
     0.999988984  0.249994984  0.743277021
     0.999989025  0.749994958  0.743277021
     0.250000502  0.000001000  0.743255960
     0.250000517  0.500001003  0.743255960
     0.750000502  0.000001000  0.743255960
     0.750000491  0.500001003  0.743255960
     0.626655114  0.453509458  0.494987614
     0.686275445  0.437824264  0.481275704
     0.603334482  0.398061812  0.509339057
     0.722375283  0.369211379  0.482162326
     0.639681479  0.329785539  0.510279613
     0.699734905  0.315457932  0.496801790
     0.731029428  0.535811784  0.528652002
     0.831916386  0.479296490  0.549710474
     0.792317778  0.606629079  0.557972991
     0.708429966  0.503555820  0.566713630
     0.662689486  0.585028272  0.526882238
     0.637874990  0.593375536  0.503465995
     0.813983479  0.399106626  0.545170564
     0.851522272  0.642484632  0.544311017
     0.739903967  0.485809773  0.588492767
     0.589963684  0.528972792  0.494860727
     0.994769943  0.192441911  0.564475634
     0.032850258  0.706569217  0.571394132
     0.532970318  0.213067651  0.560530753
     0.477301610  0.691627414  0.563104388
     0.428694026  0.289624834  0.557826050
     0.480728029  0.819776098  0.560435580
     0.999147600  0.320529098  0.562457774
     0.980733001  0.818840153  0.561216254
     0.234349591  0.466526520  0.566037958
     0.199860548  0.976286456  0.563270498
     0.711885956  0.981209375  0.566079226
     0.326299361  0.995367340  0.562268772
     0.300718249  0.571854928  0.556010013
     0.825981739  0.034888755  0.558716181
     0.054585135  0.194232070  0.655698653
     0.063909161  0.715909711  0.658272165
     0.549552842  0.206058280  0.656762708
     0.537363876  0.702973852  0.658441450
     0.205613017  0.449658763  0.657375380
     0.204970729  0.955292100  0.658035729
     0.706424445  0.464621051  0.655247268
     0.707134522  0.956925245  0.659547750
     0.453969100  0.293197892  0.656585305
     0.456075581  0.803863662  0.657883294
     0.966573680  0.288292273  0.659196911
     0.944348696  0.761854695  0.660844213
     0.295982234  0.047050237  0.654390347
     0.295205536  0.543366396  0.658542972
     0.799258075  0.047879689  0.658134381
     0.804508184  0.548927948  0.655485658
     0.045862501  0.204119496  0.752725994
     0.045862500  0.704119456  0.752725994
     0.545862507  0.204119496  0.752725994
     0.545862496  0.704119456  0.752725994
     0.204119002  0.454101003  0.752704994
     0.204118991  0.954100951  0.752704994
     0.704118976  0.454101003  0.752704994
     0.704118964  0.954100951  0.752704994
     0.454140018  0.295888490  0.752726971
     0.454140007  0.795888516  0.752726971
     0.954140018  0.295888490  0.752726971
     0.954140060  0.795888516  0.752726971
     0.295882492  0.045900498  0.752704994
     0.295882481  0.545900528  0.752704994
     0.795882439  0.045900498  0.752704994
     0.795882481  0.545900528  0.752704994
     0.765924721  0.531414792  0.550703714
     0.518322616  0.014916494  0.552529336
     0.483543182  0.495344985  0.553865724
     0.016336117  0.006088492  0.548386906
     0.036408972  0.509309925  0.553180772
     0.236974723  0.240657842  0.552237407
     0.253302258  0.766359553  0.553212090
     0.739109969  0.207611180  0.553937332
     0.700573226  0.790917929  0.553860291
     0.999896991  0.984750563  0.653665104
     0.998738849  0.505781824  0.654714386
     0.495706943  0.009222446  0.654601509
     0.507315086  0.489376997  0.654651507
     0.258092949  0.247453725  0.654208059
     0.259266617  0.753517515  0.654423190
     0.744000391  0.265857341  0.654121799
     0.744431590  0.741486133  0.654145547
     0.133826854  0.112124620  0.607411346
     0.145583454  0.609193780  0.608492189
     0.647509203  0.105918475  0.610054208
     0.616357425  0.628030681  0.608162717
     0.357336652  0.387704434  0.605145267
     0.374776095  0.879755449  0.606614128
     0.889896854  0.364355468  0.608435415
     0.866664091  0.879733538  0.604942956
     0.119723167  0.367314014  0.608909143
     0.123850300  0.868059808  0.607644424
     0.594273326  0.339452957  0.601473696
     0.616322144  0.870749112  0.613001575
     0.385609648  0.134667075  0.605670458
     0.384179758  0.629197774  0.609722538
     0.885724857  0.132696440  0.610431847
     0.894770635  0.645933378  0.609161879
     0.000000000  0.000000000  0.754927972
     0.000000000  0.500000000  0.754927972
     0.500000000  0.000000000  0.754927972
     0.499999989  0.500000000  0.754927972
     0.250000496  0.250000000  0.754939022
     0.250000511  0.749999974  0.754939022
     0.750000470  0.250000000  0.754939022
     0.750000458  0.749999974  0.754939022
     0.135790500  0.114209997  0.704782994
     0.135790502  0.614209984  0.704782994
     0.635790447  0.114209997  0.704782994
     0.635790488  0.614209984  0.704782994
     0.364209516  0.385789989  0.704782994
     0.364209505  0.885789963  0.704782994
     0.864209542  0.385789989  0.704782994
     0.864209531  0.885789963  0.704782994
     0.114217990  0.364218986  0.704780979
     0.114217992  0.864218986  0.704780979
     0.614218004  0.364218986  0.704780979
     0.614217992  0.864218986  0.704780979
     0.385782012  0.135781489  0.704782017
     0.385782001  0.635781489  0.704782017
     0.885781985  0.135781489  0.704782017
     0.885782027  0.635781489  0.704782017
     0.134667000  0.115332001  0.801256025
     0.134666989  0.615331988  0.801256025
     0.634666987  0.115332001  0.801256025
     0.634666976  0.615331988  0.801256025
     0.365333002  0.384667985  0.801256025
     0.365332990  0.884667959  0.801256025
     0.865332949  0.384667985  0.801256025
     0.865332938  0.884667959  0.801256025
     0.115328503  0.365337004  0.801264999
     0.115328505  0.865336978  0.801264999
     0.615328503  0.365337004  0.801264999
     0.615328492  0.865336978  0.801264999
     0.384671513  0.134662996  0.801264999
     0.384671501  0.634662970  0.801264999
     0.884671486  0.134662996  0.801264999
     0.884671528  0.634662970  0.801264999
     0.999573600  0.998642052  0.604706886
     0.003983131  0.504699101  0.604053191
     0.505641926  0.007655586  0.603915102
     0.498852182  0.491214990  0.604070406
     0.247183309  0.246950827  0.602567481
     0.252076700  0.746629474  0.603319463
     0.746134869  0.246081618  0.602405584
     0.738336184  0.754953243  0.602523466
     0.000000500  0.000000500  0.704828963
     0.000000500  0.500000475  0.704828963
     0.500000475  0.000000500  0.704828963
     0.500000464  0.500000475  0.704828963
     0.249999994  0.249999472  0.704824995
     0.250000010  0.749999498  0.704824995
     0.749999994  0.249999472  0.704824995
     0.749999983  0.749999498  0.704824995
     0.000000000  0.000000000  0.807317968
     0.000000000  0.500000000  0.807317968
     0.500000000  0.000000000  0.807317968
     0.499999989  0.500000000  0.807317968
     0.249999994  0.250000000  0.807317968
     0.250000010  0.749999974  0.807317968
     0.749999994  0.250000000  0.807317968
     0.749999983  0.749999974  0.807317968

  ion indices of the primitive-cell ions
   primitive index   ion index
                 1           1
                 2           2
                 3           3
                 4           4
                 5           5
                 6           6
                 7           7
                 8           8
                 9           9
                10          10
                11          11
                12          12
                13          13
                14          14
                15          15
                16          16
                17          17
                18          18
                19          19
                20          20
                21          21
                22          22
                23          23
                24          24
                25          25
                26          26
                27          27
                28          28
                29          29
                30          30
                31          31
                32          32
                33          33
                34          34
                35          35
                36          36
                37          37
                38          38
                39          39
                40          40
                41          41
                42          42
                43          43
                44          44
                45          45
                46          46
                47          47
                48          48
                49          49
                50          50
                51          51
                52          52
                53          53
                54          54
                55          55
                56          56
                57          57
                58          58
                59          59
                60          60
                61          61
                62          62
                63          63
                64          64
                65          65
                66          66
                67          67
                68          68
                69          69
                70          70
                71          71
                72          72
                73          73
                74          74
                75          75
                76          76
                77          77
                78          78
                79          79
                80          80
                81          81
                82          82
                83          83
                84          84
                85          85
                86          86
                87          87
                88          88
                89          89
                90          90
                91          91
                92          92
                93          93
                94          94
                95          95
                96          96
                97          97
                98          98
                99          99
               100         100
               101         101
               102         102
               103         103
               104         104
               105         105
               106         106
               107         107
               108         108
               109         109
               110         110
               111         111
               112         112
               113         113
               114         114
               115         115
               116         116
               117         117
               118         118
               119         119
               120         120
               121         121
               122         122
               123         123
               124         124
               125         125
               126         126
               127         127
               128         128
               129         129
               130         130
               131         131
               132         132
               133         133
               134         134
               135         135
               136         136
               137         137
               138         138
               139         139
               140         140
               141         141
               142         142
               143         143
               144         144
               145         145
               146         146
               147         147
               148         148
               149         149
               150         150
               151         151
               152         152
               153         153
               154         154
               155         155
               156         156
               157         157
               158         158
               159         159
               160         160
               161         161
               162         162
               163         163
               164         164
               165         165
               166         166
               167         167
               168         168
               169         169
               170         170
               171         171
               172         172
               173         173
               174         174
               175         175
               176         176
               177         177
               178         178
               179         179
               180         180
               181         181
               182         182
               183         183
               184         184
               185         185
               186         186
               187         187
               188         188
               189         189
               190         190
               191         191
               192         192
               193         193
               194         194
               195         195
               196         196
               197         197
               198         198
               199         199
               200         200
               201         201
               202         202
               203         203
               204         204
               205         205
               206         206
               207         207
               208         208
               209         209
               210         210
               211         211
               212         212
               213         213
               214         214
               215         215
               216         216
               217         217
               218         218
               219         219
               220         220
               221         221
               222         222
               223         223
               224         224
               225         225
               226         226
               227         227
               228         228
               229         229
               230         230
               231         231
               232         232
               233         233
               234         234
               235         235
               236         236
               237         237
               238         238
               239         239
               240         240
               241         241
               242         242
               243         243
               244         244
               245         245
               246         246
               247         247
               248         248
               249         249
               250         250
               251         251
               252         252
               253         253
               254         254
               255         255
               256         256
               257         257
               258         258
               259         259
               260         260
               261         261
               262         262
               263         263
               264         264
               265         265
               266         266
               267         267
               268         268
               269         269
               270         270
               271         271
               272         272
               273         273
               274         274
               275         275
               276         276
               277         277
               278         278
               279         279
               280         280
               281         281
               282         282
               283         283
               284         284
               285         285
               286         286
               287         287
               288         288
               289         289
               290         290
               291         291
               292         292
               293         293
               294         294
               295         295
               296         296
               297         297
               298         298
               299         299
               300         300
               301         301
               302         302
               303         303
               304         304
               305         305
               306         306
               307         307
               308         308
               309         309
               310         310
               311         311
               312         312
               313         313
               314         314
               315         315
               316         316
               317         317
               318         318
               319         319
               320         320
               321         321
               322         322
               323         323
               324         324
               325         325

----------------------------------------------------------------------------------------

 
 
 KPOINTS: Automatic Mesh                          

Automatic generation of k-mesh.
 Grid dimensions read from file:
 generate k-points for:    3    3    1

 Generating k-lattice:

  Cartesian coordinates                     Fractional coordinates (reciprocal lattice)
     0.018456177  0.000005026 -0.000000000     0.333333333  0.000000000  0.000000000
     0.000000000  0.018454135  0.000000000     0.000000000  0.333333333  0.000000000
     0.000000000 -0.000000000  0.016003201     0.000000000  0.000000000  1.000000000

  Length of vectors
     0.018456178  0.018454135  0.016003201

  Shift w.r.t. Gamma in fractional coordinates (k-lattice)
     0.000000000  0.000000000  0.000000000

 
 Subroutine IBZKPT returns following result:
 ===========================================
 
 Found      5 irreducible k-points:
 
 Following reciprocal coordinates:
            Coordinates               Weight
  0.000000  0.000000  0.000000      1.000000
  0.333333  0.000000  0.000000      2.000000
  0.000000  0.333333  0.000000      2.000000
  0.333333  0.333333  0.000000      2.000000
 -0.333333  0.333333  0.000000      2.000000
 
 Following cartesian coordinates:
            Coordinates               Weight
  0.000000  0.000000  0.000000      1.000000
  0.018456  0.000005  0.000000      2.000000
  0.000000  0.018454  0.000000      2.000000
  0.018456  0.018459  0.000000      2.000000
 -0.018456  0.018449  0.000000      2.000000
 


--------------------------------------------------------------------------------------------------------




 Dimension of arrays:
   k-points           NKPTS =      5   k-points in BZ     NKDIM =      5   number of bands    NBANDS=    732
   number of dos      NEDOS =    301   number of ions     NIONS =    325
   non local maximal  LDIM  =      5   non local SUM 2l+1 LMDIM =     13
   total plane-waves  NPLWV = ******
   max r-space proj   IRMAX =   3336   max aug-charges    IRDMAX=  19845
   dimension x,y,z NGX =   100 NGY =  100 NGZ =  350
   dimension x,y,z NGXF=   200 NGYF=  200 NGZF=  700
   support grid    NGXF=   200 NGYF=  200 NGZF=  700
   ions per type =             143  39  47  72  24
   NGX,Y,Z   is equivalent  to a cutoff of   9.20,  9.20,  9.31 a.u.
   NGXF,Y,Z  is equivalent  to a cutoff of  18.41, 18.41, 18.62 a.u.

 SYSTEM =  PSC                                     
 POSCAR =   H  C  N  I Pb                          

 Startparameter for this run:
   NWRITE =      2    write-flag & timer
   PREC   = normal    normal or accurate (medium, high low for compatibility)
   ISTART =      0    job   : 0-new  1-cont  2-samecut
   ICHARG =      1    charge: 1-file 2-atom 10-const
   ISPIN  =      1    spin polarized calculation?
   LNONCOLLINEAR =      F non collinear calculations
   LSORBIT =      F    spin-orbit coupling
   INIWAV =      1    electr: 0-lowe 1-rand  2-diag
   LASPH  =      F    aspherical Exc in radial PAW
 Electronic Relaxation 1
   ENCUT  =  500.0 eV  36.75 Ry    6.06 a.u.  32.93 32.93113.93*2*pi/ulx,y,z
   ENINI  =  500.0     initial cutoff
   ENAUG  =  644.9 eV  augmentation charge cutoff
   NELM   =    600;   NELMIN=  2; NELMDL=  0     # of ELM steps 
   EDIFF  = 0.1E-03   stopping-criterion for ELM
   LREAL  =      T    real-space projection
   NLSPLINE    = F    spline interpolate recip. space projectors
   LCOMPAT=      F    compatible to vasp.4.4
   GGA_COMPAT  = F    GGA compatible to vasp.4.4-vasp.4.6
   LMAXPAW     = -100 max onsite density
   LMAXMIX     =    2 max onsite mixed and CHGCAR
   VOSKOWN=      0    Vosko Wilk Nusair interpolation
   ROPT   =   -0.00050  -0.00050  -0.00050  -0.00050
   ROPT   =   -0.00050
 Ionic relaxation
   EDIFFG = 0.1E-02   stopping-criterion for IOM
   NSW    =      0    number of steps for IOM
   NBLOCK =      1;   KBLOCK =      1    inner block; outer block 
   IBRION =     -1    ionic relax: 0-MD 1-quasi-New 2-CG
   NFREE  =      0    steps in history (QN), initial steepest desc. (CG)
   ISIF   =      2    stress and relaxation
   IWAVPR =     10    prediction:  0-non 1-charg 2-wave 3-comb
   ISYM   =      0    0-nonsym 1-usesym 2-fastsym
   LCORR  =      T    Harris-Foulkes like correction to forces

   POTIM  = 0.5000    time-step for ionic-motion
   TEIN   =    0.0    initial temperature
   TEBEG  =    0.0;   TEEND  =   0.0 temperature during run
   SMASS  =  -3.00    Nose mass-parameter (am)
   estimated Nose-frequenzy (Omega)   =  0.10E-29 period in steps = 0.13E+47 mass=  -0.745E-26a.u.
   SCALEE = 1.0000    scale energy and forces
   NPACO  =    256;   APACO  = 16.0  distance and # of slots for P.C.
   PSTRESS=    0.0 pullay stress

  Mass of Ions in am
   POMASS =   1.00 12.01 14.00126.90207.20
  Ionic Valenz
   ZVAL   =   1.00  4.00  5.00  7.00  4.00
  Atomic Wigner-Seitz radii
   RWIGS  =  -1.00 -1.00 -1.00 -1.00 -1.00
  virtual crystal weights 
   VCA    =   1.00  1.00  1.00  1.00  1.00
   NELECT =    1134.0000    total number of electrons
   NUPDOWN=      -1.0000    fix difference up-down

 DOS related values:
   EMIN   =  10.00;   EMAX   =-10.00  energy-range for DOS
   EFERMI =   0.00
   ISMEAR =     0;   SIGMA  =   0.05  broadening in eV -4-tet -1-fermi 0-gaus

 Electronic relaxation 2 (details)
   IALGO  =     38    algorithm
   LDIAG  =      T    sub-space diagonalisation (order eigenvalues)
   LSUBROT=      F    optimize rotation matrix (better conditioning)
   TURBO    =      0    0=normal 1=particle mesh
   IRESTART =      0    0=no restart 2=restart with 2 vectors
   NREBOOT  =      0    no. of reboots
   NMIN     =      0    reboot dimension
   EREF     =   0.00    reference energy to select bands
   IMIX   =      4    mixing-type and parameters
     AMIX     =   0.40;   BMIX     =  0.01
     AMIX_MAG =   1.60;   BMIX_MAG =  0.01
     AMIN     =   0.01
     WC   =   100.;   INIMIX=   1;  MIXPRE=   1;  MAXMIX= -45

 Intra band minimization:
   WEIMIN = 0.0000     energy-eigenvalue tresh-hold
   EBREAK =  0.34E-07  absolut break condition
   DEPER  =   0.30     relativ break condition  

   TIME   =   0.40     timestep for ELM

  volume/ion in A,a.u.               =      62.72       423.28
  Fermi-wavevector in a.u.,A,eV,Ry     =   0.624944  1.180972  5.313816  0.390554
  Thomas-Fermi vector in A             =   1.685677
 
 Write flags
   LWAVE        =      F    write WAVECAR
   LDOWNSAMPLE  =      F    k-point downsampling of WAVECAR
   LCHARG       =      T    write CHGCAR
   LVTOT        =      T    write LOCPOT, total local potential
   LVHAR        =      F    write LOCPOT, Hartree potential only
   LELF         =      F    write electronic localiz. function (ELF)
   LORBIT       =      0    0 simple, 1 ext, 2 COOP (PROOUT), +10 PAW based schemes


 Dipole corrections
   LMONO  =      F    monopole corrections only (constant potential shift)
   LDIPOL =      T    correct potential (dipole corrections)
   IDIPOL =      3    1-x, 2-y, 3-z, 4-all directions 
   EPSILON=  1.0000000 bulk dielectric constant

 Exchange correlation treatment:
   GGA     =    --    GGA type
   LEXCH   =     8    internal setting for exchange type
   VOSKOWN=      0    Vosko Wilk Nusair interpolation
   LHFCALC =     F    Hartree Fock is set to
   LHFONE  =     F    Hartree Fock one center treatment
   AEXX    =    0.0000 exact exchange contribution

 Linear response parameters
   LEPSILON=     F    determine dielectric tensor
   LRPA    =     F    only Hartree local field effects (RPA)
   LNABLA  =     F    use nabla operator in PAW spheres
   LVEL    =     F    velocity operator in full k-point grid
   LINTERFAST=   F  fast interpolation
   KINTER  =     0    interpolate to denser k-point grid
   CSHIFT  =0.1000    complex shift for real part using Kramers Kronig
   OMEGAMAX=  -1.0    maximum frequency
   DEG_THRESHOLD= 0.2000000E-02 threshold for treating states as degnerate
   RTIME   =   -0.100 relaxation time in fs
  (WPLASMAI=    0.000 imaginary part of plasma frequency in eV, 0.658/RTIME)
   DFIELD  = 0.0000000 0.0000000 0.0000000 field for delta impulse in time
 
 Orbital magnetization related:
   ORBITALMAG=     F  switch on orbital magnetization
   LCHIMAG   =     F  perturbation theory with respect to B field
   DQ        =  0.001000  dq finite difference perturbation B field
   LLRAUG    =     F  two centre corrections for induced B field



--------------------------------------------------------------------------------------------------------


 Static calculation
 charge density and potential will be updated during run
 non-spin polarized calculation
 Variant of blocked Davidson
 Davidson routine will perform the subspace rotation
 perform sub-space diagonalisation
    after iterative eigenvector-optimisation
 modified Broyden-mixing scheme, WC =      100.0
 initial mixing is a Kerker type mixing with AMIX =  0.4000 and BMIX =      0.0100
 Hartree-type preconditioning will be used
 using additional bands           165
 real space projection scheme for non local part
[...]
     13.54561      0.00000     45.35368        -0.000426     -0.000534      0.014136
     13.54315      9.03140     45.35368        -0.007281     -0.006996     -0.014766
     13.98840     10.04363     32.36083        -0.007702     -0.029237      0.030799
     12.97421      8.64878     32.74246        -0.048411      0.009382      0.028193
     15.68483      9.06403     33.57869         0.029422      0.011572      0.002234
     15.54237      8.77403     35.30977        -0.019726     -0.041745     -0.020524
     13.41836     11.59442     34.91487        -0.046768      0.031665      0.019776
     14.67878     10.82019     35.88624         0.056378      0.030562      0.006938
     12.03251      9.88243     35.47645         0.018510      0.062427      0.038124
     12.31114      8.22150     34.95222         0.062400     -0.011759      0.031251
     11.13125     10.14419     33.50023         0.004933     -0.002976      0.058240
     12.17332     11.56481     33.32734         0.065745      0.117065      0.050397
     10.92823     11.64486     31.36305         0.032245     -0.047231      0.030501
     12.40627     10.85997     30.82326        -0.018105     -0.005081     -0.067808
     14.26505      7.04626     33.07328        -0.015863     -0.012075     -0.016678
     14.03444      6.76066     34.80721        -0.073001     -0.039813      0.068337
     15.63635      6.64170     34.10505         0.051038     -0.001924     -0.018707
     15.54523     12.60278     34.43848         0.002814      0.034132     -0.003362
     15.07437     11.76633     32.97256        -0.044948     -0.017297     -0.075606
     16.33304     11.06669     34.04869        -0.027210      0.003703     -0.042913
     13.90812      9.61357     37.23214        -0.078493     -0.091988     -0.068964
     14.01508      7.90516     36.75742         0.099167     -0.128226     -0.012373
     12.52737      8.54120     37.44619         0.014814     -0.010482     -0.047217
      9.73715      9.50052     31.53049        -0.032644      0.007895     -0.015366
     10.34029      9.80924     29.89792         0.001749     -0.017348     -0.035149
     12.72717      8.66060     29.36381         0.050485      0.127481     -0.126621
     10.04849      7.39149     32.49444         0.129910     -0.015595     -0.090384
     13.87915      6.46914     29.45674         0.035493     -0.011034     -0.029655
     11.22995      5.20018     32.60494         0.019059      0.020521     -0.034671
     13.15679      4.74016     31.10976        -0.021485      0.044680     -0.017747
      0.38162      4.59442     34.78260        -0.038585      0.091390     -0.058562
      0.60637     13.88475     35.03422         0.084492      0.148820     -0.042808
      8.35852      4.07047     34.77599        -0.320985      0.226065      0.004617
      9.06960     13.60736     34.66049         0.004079      0.010485      0.060303
      4.31807      9.67590     34.97604        -0.044474     -0.059879      0.006584
      4.66353      0.26344     34.84489         0.017940      0.070876      0.015755
     14.11009     17.65996     35.00939         0.052978      0.134894      0.022983
      0.17224      4.41078     40.49265        -0.172623      0.187922     -0.187399
      0.20512     13.76629     40.79319        -0.289769      0.054397     -0.009531
      8.66229      4.06732     40.97801        -0.086824      0.201086     -0.017584
      8.99493     13.61927     40.53606         0.005033      0.056186     -0.348479
      4.54947      8.96601     40.51931        -0.093217     -0.055377      0.036888
      4.48062     18.03621     40.41477         0.210279      0.190306     -0.065691
     14.03088      8.69935     40.94435         0.293411      0.164884      0.007769
     13.63015     18.03758     40.57631         0.174194      0.170893     -0.042764
      9.02897      4.51561     46.44552         0.009665      0.008496     -0.015378
      9.02651     13.54701     46.44552         0.018953     -0.002593      0.036753
     18.05937      4.51561     46.44552         0.000436      0.016892      0.041084
     18.05691     13.54701     46.44552         0.007643      0.013810      0.007631
      4.51521      0.00002     46.44421         0.007758      0.004636      0.051886
      4.51275      9.03142     46.44421         0.004821      0.000247      0.028837
     13.54561      0.00002     46.44421        -0.009479     -0.010680      0.016590
     13.54315      9.03142     46.44421        -0.029715     -0.029384      0.003759
     11.31566      8.19165     30.93054         0.001945     -0.016106      0.048510
     12.39253      7.90833     30.07372        -0.053711     -0.267217      0.206544
     10.89475      7.19011     31.82732         0.008740      0.085560     -0.092009
     13.04486      6.66899     30.12912        -0.032007      0.229365     -0.051401
     11.55154      5.95685     31.88610        -0.064759      0.072676      0.018590
     12.63622      5.69805     31.04390        -0.044221     -0.114247      0.066109
     13.20034      9.67826     33.03414         0.054988     -0.004112     -0.021550
     15.02272      8.65744     34.35003         0.016005      0.102584      0.004814
     14.30691     10.95742     34.86634         0.011383     -0.026630     -0.057513
     12.79234      9.09563     35.41252        -0.006030      0.036215     -0.121860
     11.96583     10.56725     32.92355        -0.028498     -0.130791     -0.115861
     11.51761     10.71802     31.46033        -0.001031     -0.091557     -0.074174
     14.69923      7.20898     34.06635         0.008074      0.030634     -0.054793
     15.37601     11.60507     34.01263         0.137158      0.040174      0.111951
     13.36087      8.77508     36.77344        -0.084662      0.185061      0.088171
     10.65261      9.55473     30.92261         0.048669     -0.035939      0.059554
     17.96539      3.47604     35.27267         0.051312     -0.151964     -0.009905
      0.58983     12.76262     35.70499        -0.069051      0.043422     -0.073226
      9.62482      3.84860     35.02617        -0.013877     -0.127662     -0.036222
      8.61705     12.49273     35.18699        -0.022565     -0.030009     -0.003697
      7.74113      5.23144     34.85715        -0.085906     -0.394222     -0.097232
      8.67830     14.80745     35.02022         0.004995      0.065810      0.022019
     18.04383      5.78965     35.14658        -0.104939     -0.018186      0.121056
     17.70880     14.79055     35.06900         0.034112     -0.042377     -0.028684
      4.23025      8.42677     35.37030        -0.066717     -0.059061     -0.005749
      3.60484     17.63447     35.19736        -0.041300     -0.046295      0.065911
     12.85240     17.72339     35.37288        -0.011668     -0.159249      0.016881
      5.88833     17.97912     35.13477         0.017776     -0.165704      0.034741
      5.42840     10.32930     34.74368         0.246093     -0.037031      0.023368
     14.91772      0.63019     34.91278        -0.035533      0.152223     -0.082766
      0.98490      3.50837     40.97297         0.258068     -0.301509      0.429265
      1.15073     12.93133     41.13378         0.517110     -0.164098      0.039453
      9.92435      3.72199     41.03946         0.089098     -0.110490     -0.039668
      9.70176     12.69768     41.14436        -0.046150      0.025554     -0.011394
      3.71132      8.12210     41.07774         0.088511      0.043317     -0.362371
      3.69724     17.25525     41.11901         0.057332      0.037323     -0.001314
     12.75631      8.39236     40.94476        -0.121465     -0.046120      0.018780
     12.76671     17.28475     41.21349         0.016074     -0.019382     -0.044252
      8.19760      5.29597     41.02837        -0.198802     -0.348564     -0.059107
      8.23314     14.52003     41.10948         0.024965     -0.024320      0.039852
     17.45568      5.20737     41.19157        -0.112321      0.102511      0.194337
     17.05195     13.76123     41.29450        -0.090965     -0.046846      0.072749
      5.34544      0.84986     40.89122        -0.180271     -0.176586     -0.314262
      5.32898      9.81472     41.15070         0.026450      0.021932     -0.061454
     14.43501      0.86484     41.12517        -0.107434     -0.152569     -0.423269
     14.52736      9.91518     40.95966        -0.165340     -0.128278     -0.107652
      0.82731      3.68697     47.03596         0.026245     -0.033463     -0.087560
      0.82485     12.71837     47.03596         0.028863     -0.031800     -0.070164
      9.85771      3.68697     47.03596         0.025715     -0.032959     -0.054505
      9.85525     12.71837     47.03596         0.017566     -0.017111     -0.084476
      3.68432      8.20234     47.03465        -0.020799     -0.012146     -0.062864
      3.68186     17.23373     47.03465        -0.015717     -0.009821     -0.062145
     12.71472      8.20234     47.03465         0.004832      0.004334     -0.053723
     12.71226     17.23373     47.03465        -0.010131     -0.010461     -0.060944
      8.20068      5.34457     47.03603        -0.025845      0.018553     -0.055664
      8.19822     14.37597     47.03603        -0.025856      0.022124     -0.085004
     17.23108      5.34457     47.03603        -0.010686      0.011060     -0.090471
     17.22862     14.37597     47.03603        -0.014387      0.017651     -0.068317
      5.34365      0.82909     47.03465         0.003976      0.007064     -0.068581
      5.34119      9.86049     47.03465         0.007949      0.017790     -0.064913
     14.37405      0.82909     47.03465         0.026331      0.021044     -0.055778
     14.37159      9.86049     47.03465         0.038686      0.037693     -0.061251
     13.83060      9.59884     34.41210        -0.176984     -0.204349     -0.127544
      9.36125      0.26943     34.52618         0.012045      0.029143      0.000156
      8.73074      8.94732     34.60968        -0.028549     -0.039041     -0.033441
      0.29501      0.10998     34.26733        -0.032090     -0.009678      0.008790
      0.65507      9.19956     34.56688         0.008197     -0.005966      0.018773
      4.27877      4.34695     34.50793         0.011858     -0.003669     -0.002550
      4.57107     13.84260     34.56884        -0.000308     -0.049464     -0.001612
     13.34790      3.75004     34.61416         0.016161      0.024798      0.024682
     12.64902     14.28619     34.60934         0.025632      0.000045     -0.044293
     18.05410     17.78735     40.84590        -0.014929     -0.011612     -0.010303
     18.03554      9.13584     40.91146         0.010811     -0.009128     -0.012034
      8.95282      0.16658     40.90441         0.022784      0.004401     -0.020042
      9.16011      8.83952     40.90754        -0.004514      0.010008     -0.035218
      4.66015      4.46971     40.87983        -0.004408      0.000925      0.024175
      4.67886     13.61064     40.89327        -0.043357      0.005071      0.019965
     13.43594      4.80213     40.87444         0.010140      0.010106      0.007752
     13.44138     13.39332     40.87592         0.018290      0.035298     -0.000009
      2.41647      2.02528     37.95562         0.000928      0.016236      0.006216
      2.62636     11.00375     38.02316         0.003064     -0.017206     -0.003198
     11.69401      1.91318     38.12076        -0.013597      0.003807     -0.012713
     11.12882     11.34399     38.00257        -0.025461      0.044029      0.008432
      6.45188      7.00303     37.81401         0.012063     -0.009393     -0.018903
      6.76443     15.89085     37.90580         0.007128     -0.005051      0.022919
     16.07046      6.58128     38.01961         0.013822     -0.024769      0.003483
     15.64832     15.89045     37.80137        -0.007523     -0.017403      0.021345
      2.16049      6.63472     38.04921         0.023196      0.017457      0.018987
      2.23257     15.67959     37.97018        -0.011715      0.007174     -0.017480
     10.73138      6.13147     37.58459        -0.020935      0.013029      0.005044
     11.12699     15.72817     38.30494         0.014609     -0.004876      0.002631
      6.96376      2.43246     37.84683        -0.009920      0.000788     -0.003061
      6.93550     11.36507     38.10004        -0.004682     -0.017829      0.033931
     15.99625      2.39687     38.14436         0.002096     -0.007423     -0.029624
     16.15710     11.66737     38.06500         0.072351     -0.013879     -0.069138
      0.00000      0.00000     47.17356         0.002122      0.005039      0.292767
     -0.00246      9.03140     47.17356        -0.000722      0.003114      0.396585
      9.03040      0.00000     47.17356        -0.002097     -0.002410      0.409616
      9.02794      9.03140     47.17356        -0.000222      0.005915      0.413902
      4.51398      4.51570     47.17425        -0.007710     -0.004030      0.424152
      4.51152     13.54710     47.17425         0.001866     -0.000612      0.411359
     13.54438      4.51570     47.17425         0.008285     -0.000073      0.407107
     13.54192     13.54710     47.17425        -0.001424     -0.004182      0.396903
      2.45192      2.06295     44.04013        -0.028454     -0.020361     -0.074954
      2.44946     11.09435     44.04013         0.017135     -0.035673     -0.047515
     11.48232      2.06295     44.04013         0.066172     -0.054292     -0.047421
     11.47986     11.09435     44.04013        -0.035445      0.022619     -0.058672
      6.57602      6.96845     44.04013        -0.053558      0.039295     -0.028444
      6.57356     15.99985     44.04013        -0.004115      0.000523     -0.026013
     15.60642      6.96845     44.04013         0.087738     -0.026384     -0.030911
     15.60396     15.99985     44.04013        -0.026501      0.024931     -0.034848
      2.06108      6.57881     44.04000        -0.013348      0.008437     -0.061554
      2.05862     15.61021     44.04000         0.047076      0.045544     -0.011124
     11.09148      6.57881     44.04000         0.004441     -0.009901     -0.016248
     11.08902     15.61021     44.04000        -0.018645     -0.008016     -0.047002
      6.96686      2.45259     44.04007        -0.082869     -0.070769     -0.025060
      6.96440     11.48399     44.04007         0.002842      0.014402     -0.056463
     15.99726      2.45259     44.04007         0.044010      0.004670     -0.071580
     15.99481     11.48399     44.04007         0.033989      0.020736     -0.013032
      2.43163      2.08322     50.06849        -0.001907     -0.021000      0.023748
      2.42917     11.11462     50.06849         0.009728     -0.010210      0.025174
     11.46203      2.08322     50.06849         0.012424     -0.011158      0.029146
     11.45957     11.11462     50.06849         0.014694     -0.004420      0.026294
      6.59631      6.94818     50.06849        -0.015071      0.009129      0.029012
      6.59385     15.97958     50.06849        -0.012959      0.008261      0.024984
     15.62671      6.94818     50.06849        -0.005296      0.013041      0.024977
     15.62425     15.97958     50.06849        -0.001153      0.019695      0.026195
      2.08113      6.59901     50.06905        -0.014170     -0.007201      0.024848
      2.07867     15.63041     50.06905        -0.019012     -0.000371      0.024714
     11.11153      6.59901     50.06905        -0.006279     -0.011759      0.028916
     11.10907     15.63041     50.06905        -0.007392     -0.012821      0.026385
      6.94681      2.43239     50.06905         0.007889      0.009110      0.026638
      6.94435     11.46379     50.06905         0.005195      0.015606      0.026368
     15.97721      2.43239     50.06905         0.023037     -0.000257      0.025819
     15.97475     11.46379     50.06905         0.011307      0.010249      0.025413
     18.04819     18.03827     37.78662         0.003850     -0.004337     -0.026096
      0.06946      9.11628     37.74577         0.033143      0.022934     -0.004849
      9.13226      0.13828     37.73714         0.003400      0.016799      0.024303
      9.00725      8.87272     37.74685        -0.015726      0.012191      0.028121
      4.46311      4.46062     37.65294        -0.017390      0.003414     -0.002258
      4.54903     13.48622     37.69992        -0.001796     -0.017088      0.001931
     13.47458      4.44492     37.64282        -0.014169     -0.005413     -0.027165
     13.33123     13.63657     37.65018        -0.022063     -0.004222      0.028229
      0.00001      0.00001     44.04300        -0.049942     -0.116352      0.141572
     -0.00245      9.03141     44.04300        -0.024957     -0.054837      0.198549
      9.03041      0.00001     44.04300         0.035809      0.076357      0.168715
      9.02795      9.03141     44.04300         0.019595     -0.123987      0.237351
      4.51397      4.51569     44.04275         0.125147      0.061136      0.059678
      4.51151     13.54709     44.04275        -0.020049      0.030899      0.111027
     13.54437      4.51569     44.04275        -0.130503      0.068641      0.109760
     13.54191     13.54709     44.04275        -0.028205      0.055838      0.112093
      0.00000      0.00000     50.44728        -0.001253      0.002273     -0.599128
     -0.00246      9.03140     50.44728        -0.001018     -0.001442     -0.625133
      9.03040      0.00000     50.44728         0.001744      0.005743     -0.633897
      9.02794      9.03140     50.44728         0.000952     -0.004710     -0.638569
      4.51397      4.51570     50.44728         0.013450      0.007972     -0.636939
      4.51151     13.54710     50.44728         0.010587     -0.005996     -0.631214
     13.54437      4.51570     50.44728        -0.014120      0.006023     -0.636432
     13.54191     13.54710     50.44728        -0.009627     -0.006774     -0.630209
 -----------------------------------------------------------------------------------
    total drift:                               -0.028682     -0.131177      0.706001


--------------------------------------------------------------------------------------------------------



  FREE ENERGIE OF THE ION-ELECTRON SYSTEM (eV)
  ---------------------------------------------------
  free  energy   TOTEN  =     -1576.44684711 eV

  energy  without entropy=    -1576.44684711  energy(sigma->0) =    -1576.44684711
 


--------------------------------------------------------------------------------------------------------


    POTLOK:  cpu time    0.6184: real time    0.6187


--------------------------------------------------------------------------------------------------------


     LOOP+:  cpu time  264.5570: real time  265.1892
 vacuum level on the upper side and lower side of the slab         2.298         1.606
    4ORBIT:  cpu time    0.0000: real time    0.0000

 total amount of memory used by VASP MPI-rank0  8653587. kBytes
=======================================================================

   base      :      30000. kBytes
   nonlr-proj:      53625. kBytes
   fftplans  :     249280. kBytes
   grid      :     701440. kBytes
   one-center:       2636. kBytes
   wavefun   :    7616606. kBytes
 
  
  
 General timing and accounting informations for this job:
 ========================================================
  
                  Total CPU time used (sec):      475.547
                            User time (sec):      387.541
                          System time (sec):       88.006
                         Elapsed time (sec):      478.992
  
                   Maximum memory used (kb):    10298284.
                   Average memory used (kb):          N/A
  
                          Minor page faults:      3577765
                          Major page faults:           12
                 Voluntary context switches:        10746
