 vasp.6.2.1 16May21 (build Nov 15 2021 14:57:28) complex                         
 executed on             LinuxPGI date 2023.07.30  10:55:55
 running on    4 total cores
 distrk:  each k-point on    4 cores,    1 groups
 distr:  one band on NCORE=   1 cores,    4 groups


--------------------------------------------------------------------------------------------------------


 INCAR:
   SYSTEM = PSC
   ISTART = 1
   ICHARG = 1
   PREC = Normal
   ENCUT = 500
   GGA_COMPAT = F
   NELM = 600
   ISYM = 0
   LREAL = Auto
   ISMEAR = 0
   SIGMA = 0.05
   AMIN = 0.01
   BMIX = 0.01
   LVTOT = T
   LWAVE = F
   LDIPOL = T
   IDIPOL = 3
   LVDW = T
   IVDW = 12

 POTCAR:    PAW_PBE H 15Jun2001                   
 POTCAR:    PAW_PBE C 08Apr2002                   
 POTCAR:    PAW_PBE N 08Apr2002                   
 POTCAR:    PAW_PBE I 08Apr2002                   
 POTCAR:    PAW_PBE Pb 08Apr2002                  
 WARNING: For LVTOT=.TRUE., VASP.5.x writes the TOTAL local potential to the
     file LOCPOT. If you want only the Hartree contributions, use LVHAR=.TRUE.
     instead. 

 POTCAR:    PAW_PBE H 15Jun2001                   
   SHA256 =  030f79b5d3ab3cf0e668861823c8fb652ff669f3e15e46930bd03bfd63a607b6 H/POTCAR              
   COPYR  = (c) Copyright 15Jun2001 Georg Kresse                                                    
   COPYR  = This file is part of the software VASP. Any use, copying, and all other rights are regul
   COPYR  = If you do not have a valid VASP license, you may not use, copy or distribute this file. 
   VRHFIN =H: ultrasoft test                                                                        
   LEXCH  = PE                                                                                      
   EATOM  =    12.4884 eV,    0.9179 Ry                                                             
                                                                                                    
   TITEL  = PAW_PBE H 15Jun2001                                                                     
   LULTRA =        F    use ultrasoft PP ?                                                          
   IUNSCR =        0    unscreen: 0-lin 1-nonlin 2-no                                               
   RPACOR =    0.000    partial core radius                                                         
   POMASS =    1.000; ZVAL   =    1.000    mass and valenz                                          
   RCORE  =    1.100    outmost cutoff radius                                                       
   RWIGS  =    0.700; RWIGS  =    0.370    wigner-seitz radius (au A)                               
   ENMAX  =  250.000; ENMIN  =  200.000 eV                                                          
   RCLOC  =    0.701    cutoff for local pot                                                        
   LCOR   =        T    correct aug charges                                                         
   LPAW   =        T    paw PP                                                                      
   EAUG   =  400.000                                                                                
   RMAX   =    1.123    core radius for proj-oper                                                   
   RAUG   =    1.200    factor for augmentation sphere                                              
   RDEP   =    1.112    radius for radial grids                                                     
   RDEPT  =    0.926    core radius for aug-charge                                                  
                                                                                                    
   Atomic configuration                                                                             
    2 entries                                                                                       
     n  l   j            E        occ.                                                              
     1  0  0.50        -6.4927   1.0000                                                             
     2  1  0.50        -3.4015   0.0000                                                             
   Description                                                                                      
     l       E           TYP  RCUT    TYP  RCUT                                                     
     0     -6.4927494     23  1.100                                                                 
     0      6.8029130     23  1.100                                                                 
     1     -4.0817478     23  1.100                                                                 
  local pseudopotential read in
  atomic valenz-charges read in
  non local Contribution for L=            0  read in
    real space projection operators read in
  non local Contribution for L=            0  read in
    real space projection operators read in
  non local Contribution for L=            1  read in
    real space projection operators read in
    PAW grid and wavefunctions read in
 
   number of l-projection  operators is LMAX  =            3
   number of lm-projection operators is LMMAX =            5
 
 POTCAR:    PAW_PBE C 08Apr2002                   
   SHA256 =  253f7b50bb8d59471dbedb8285d89021f4a42ed1a2c5d38a03a736e69125dd95 C/POTCAR              
   COPYR  = (c) Copyright 08Apr2002 Georg Kresse                                                    
   COPYR  = This file is part of the software VASP. Any use, copying, and all other rights are regul
   COPYR  = If you do not have a valid VASP license, you may not use, copy or distribute this file. 
   VRHFIN =C: s2p2                                                                                  
   LEXCH  = PE                                                                                      
   EATOM  =   147.1560 eV,   10.8157 Ry                                                             
                                                                                                    
   TITEL  = PAW_PBE C 08Apr2002                                                                     
   LULTRA =        F    use ultrasoft PP ?                                                          
   IUNSCR =        1    unscreen: 0-lin 1-nonlin 2-no                                               
   RPACOR =    1.200    partial core radius                                                         
   POMASS =   12.011; ZVAL   =    4.000    mass and valenz                                          
   RCORE  =    1.500    outmost cutoff radius                                                       
   RWIGS  =    1.630; RWIGS  =    0.863    wigner-seitz radius (au A)                               
   ENMAX  =  400.000; ENMIN  =  300.000 eV                                                          
   ICORE  =        2    local potential                                                             
   LCOR   =        T    correct aug charges                                                         
   LPAW   =        T    paw PP                                                                      
   EAUG   =  644.873                                                                                
   DEXC   =    0.000                                                                                
   RMAX   =    1.529    core radius for proj-oper                                                   
   RAUG   =    1.300    factor for augmentation sphere                                              
   RDEP   =    1.501    radius for radial grids                                                     
   RDEPT  =    1.300    core radius for aug-charge                                                  
                                                                                                    
   Atomic configuration                                                                             
    4 entries                                                                                       
     n  l   j            E        occ.                                                              
     1  0  0.50      -273.3789   2.0000                                                             
     2  0  0.50       -13.7508   2.0000                                                             
     2  1  0.50        -5.2854   2.0000                                                             
     3  2  1.50        -5.4423   0.0000                                                             
   Description                                                                                      
     l       E           TYP  RCUT    TYP  RCUT                                                     
     0    -13.7508458     23  1.200                                                                 
     0     -8.2022199     23  1.200                                                                 
     1     -5.2854383     23  1.500                                                                 
     1     34.0145650     23  1.500                                                                 
     2     -5.4423304      7  1.500                                                                 
  local pseudopotential read in
  partial core-charges read in
  partial kinetic energy density read in
  atomic valenz-charges read in
  non local Contribution for L=            0  read in
    real space projection operators read in
  non local Contribution for L=            0  read in
    real space projection operators read in
  non local Contribution for L=            1  read in
    real space projection operators read in
  non local Contribution for L=            1  read in
    real space projection operators read in
    PAW grid and wavefunctions read in
 
   number of l-projection  operators is LMAX  =            4
   number of lm-projection operators is LMMAX =            8
 
 POTCAR:    PAW_PBE N 08Apr2002                   
   SHA256 =  e053789ff3a61a86a1b75d8a110fcc91f86041011e7b0817c7c99e4e8a6349d7 N/POTCAR              
   COPYR  = (c) Copyright 08Apr2002 Georg Kresse                                                    
   COPYR  = This file is part of the software VASP. Any use, copying, and all other rights are regul
   COPYR  = If you do not have a valid VASP license, you may not use, copy or distribute this file. 
   VRHFIN =N: s2p3                                                                                  
   LEXCH  = PE                                                                                      
   EATOM  =   264.5486 eV,   19.4438 Ry                                                             
                                                                                                    
   TITEL  = PAW_PBE N 08Apr2002                                                                     
   LULTRA =        F    use ultrasoft PP ?                                                          
   IUNSCR =        1    unscreen: 0-lin 1-nonlin 2-no                                               
   RPACOR =    1.200    partial core radius                                                         
   POMASS =   14.001; ZVAL   =    5.000    mass and valenz                                          
   RCORE  =    1.500    outmost cutoff radius                                                       
   RWIGS  =    1.400; RWIGS  =    0.741    wigner-seitz radius (au A)                               
   ENMAX  =  400.000; ENMIN  =  300.000 eV                                                          
   ICORE  =        2    local potential                                                             
   LCOR   =        T    correct aug charges                                                         
   LPAW   =        T    paw PP                                                                      
   EAUG   =  627.112                                                                                
   DEXC   =    0.000                                                                                
   RMAX   =    1.529    core radius for proj-oper                                                   
   RAUG   =    1.300    factor for augmentation sphere                                              
   RDEP   =    1.514    radius for radial grids                                                     
   RDEPT  =    1.338    core radius for aug-charge                                                  
                                                                                                    
   Atomic configuration                                                                             
    4 entries                                                                                       
     n  l   j            E        occ.                                                              
     1  0  0.50      -384.7179   2.0000                                                             
     2  0  0.50       -18.5828   2.0000                                                             
     2  1  0.50        -7.0898   3.0000                                                             
     3  2  1.50        -6.8029   0.0000                                                             
   Description                                                                                      
     l       E           TYP  RCUT    TYP  RCUT                                                     
     0    -18.5828119     23  1.200                                                                 
     0    -13.5018863     23  1.200                                                                 
     1     -7.0897853     23  1.500                                                                 
     1      9.5240782     23  1.500                                                                 
     2     -6.8029130      7  1.500                                                                 
  local pseudopotential read in
  partial core-charges read in
  partial kinetic energy density read in
  atomic valenz-charges read in
  non local Contribution for L=            0  read in
    real space projection operators read in
  non local Contribution for L=            0  read in
    real space projection operators read in
  non local Contribution for L=            1  read in
    real space projection operators read in
  non local Contribution for L=            1  read in
    real space projection operators read in
    PAW grid and wavefunctions read in
 
   number of l-projection  operators is LMAX  =            4
   number of lm-projection operators is LMMAX =            8
 
 POTCAR:    PAW_PBE I 08Apr2002                   
   SHA256 =  e40f3f59b681c1fc3e3091736183c4589116986673d2b852a5012aec72758799 I/POTCAR              
   COPYR  = (c) Copyright 08Apr2002 Georg Kresse                                                    
   COPYR  = This file is part of the software VASP. Any use, copying, and all other rights are regul
   COPYR  = If you do not have a valid VASP license, you may not use, copy or distribute this file. 
   VRHFIN =I : s2p5                                                                                 
   LEXCH  = PE                                                                                      
   EATOM  =   315.8678 eV,   23.2156 Ry                                                             
                                                                                                    
   TITEL  = PAW_PBE I 08Apr2002                                                                     
   LULTRA =        F    use ultrasoft PP ?                                                          
   IUNSCR =        1    unscreen: 0-lin 1-nonlin 2-no                                               
   RPACOR =    2.200    partial core radius                                                         
   POMASS =  126.904; ZVAL   =    7.000    mass and valenz                                          
   RCORE  =    2.300    outmost cutoff radius                                                       
   RWIGS  =    2.810; RWIGS  =    1.487    wigner-seitz radius (au A)                               
   ENMAX  =  175.647; ENMIN  =  131.735 eV                                                          
   ICORE  =        3    local potential                                                             
   LCOR   =        T    correct aug charges                                                         
   LPAW   =        T    paw PP                                                                      
   EAUG   =  370.139                                                                                
   DEXC   =    0.000                                                                                
   RMAX   =    2.359    core radius for proj-oper                                                   
   RAUG   =    1.300    factor for augmentation sphere                                              
   RDEP   =    2.392    radius for radial grids                                                     
   RDEPT  =    2.170    core radius for aug-charge                                                  
                                                                                                    
   Atomic configuration                                                                             
   13 entries                                                                                       
     n  l   j            E        occ.                                                              
     1  0  0.50    -32976.3739   2.0000                                                             
     2  0  0.50     -5094.5933   2.0000                                                             
     2  1  1.50     -4572.0131   6.0000                                                             
     3  0  0.50     -1028.2813   2.0000                                                             
     3  1  1.50      -859.0250   6.0000                                                             
     3  2  2.50      -605.7620  10.0000                                                             
     4  0  0.50      -180.5540   2.0000                                                             
     4  1  1.50      -127.5306   6.0000                                                             
     4  2  2.50       -50.2720  10.0000                                                             
     5  0  0.50       -17.4058   2.0000                                                             
     5  1  0.50        -7.0851   5.0000                                                             
     5  2  1.50        -7.0750   0.0000                                                             
     4  3  2.50        -7.0750   0.0000                                                             
   Description                                                                                      
     l       E           TYP  RCUT    TYP  RCUT                                                     
     0    -17.4058016     23  2.300                                                                 
     0    -18.7663842     23  2.300                                                                 
     1     -7.0850686     23  2.300                                                                 
     1     -4.2150896     23  2.300                                                                 
     2     -7.0750295     23  2.300                                                                 
     3     -1.3605826     23  2.300                                                                 
  local pseudopotential read in
  partial core-charges read in
  partial kinetic energy density read in
  atomic valenz-charges read in
  non local Contribution for L=            0  read in
    real space projection operators read in
  non local Contribution for L=            0  read in
    real space projection operators read in
  non local Contribution for L=            1  read in
    real space projection operators read in
  non local Contribution for L=            1  read in
    real space projection operators read in
  non local Contribution for L=            2  read in
    real space projection operators read in
    PAW grid and wavefunctions read in
 
   number of l-projection  operators is LMAX  =            5
   number of lm-projection operators is LMMAX =           13
 
 POTCAR:    PAW_PBE Pb 08Apr2002                  
   SHA256 =  797118a27cf1bcd06b9881c67a26cdde129e3cd1a551dd4a281f9681ce847303 Pb/POTCAR             
   COPYR  = (c) Copyright 08Apr2002 Georg Kresse                                                    
   COPYR  = This file is part of the software VASP. Any use, copying, and all other rights are regul
   COPYR  = If you do not have a valid VASP license, you may not use, copy or distribute this file. 
   VRHFIN =Pb:                                                                                      
   LEXCH  = PE                                                                                      
   EATOM  =    96.9868 eV,    7.1283 Ry                                                             
                                                                                                    
   TITEL  = PAW_PBE Pb 08Apr2002                                                                    
   LULTRA =        F    use ultrasoft PP ?                                                          
   IUNSCR =        1    unscreen: 0-lin 1-nonlin 2-no                                               
   RPACOR =    2.200    partial core radius                                                         
   POMASS =  207.200; ZVAL   =    4.000    mass and valenz                                          
   RCORE  =    3.100    outmost cutoff radius                                                       
   RWIGS  =    3.260; RWIGS  =    1.725    wigner-seitz radius (au A)                               
   ENMAX  =   97.973; ENMIN  =   73.480 eV                                                          
   ICORE  =        3    local potential                                                             
   LCOR   =        T    correct aug charges                                                         
   LPAW   =        T    paw PP                                                                      
   EAUG   =  234.873                                                                                
   DEXC   =    0.000                                                                                
   RMAX   =    3.158    core radius for proj-oper                                                   
   RAUG   =    1.300    factor for augmentation sphere                                              
   RDEP   =    3.202    radius for radial grids                                                     
   RDEPT  =    2.659    core radius for aug-charge                                                  
                                                                                                    
   Atomic configuration                                                                             
   17 entries                                                                                       
     n  l   j            E        occ.                                                              
     1  0  0.50    -88091.8466   2.0000                                                             
     2  0  0.50    -15753.4197   2.0000                                                             
     2  1  1.50    -13508.1797   6.0000                                                             
     3  0  0.50     -3781.7194   2.0000                                                             
     3  1  1.50     -3138.2529   6.0000                                                             
     3  2  2.50     -2483.2977  10.0000                                                             
     4  0  0.50      -856.2895   2.0000                                                             
     4  1  1.50      -645.4943   6.0000                                                             
     4  2  2.50      -401.8768  10.0000                                                             
     4  3  3.50      -132.9059  14.0000                                                             
     5  0  0.50      -144.0950   2.0000                                                             
     5  1  1.50       -85.7879   6.0000                                                             
     5  2  2.50       -21.1769  10.0000                                                             
     6  0  0.50       -12.0372   2.0000                                                             
     6  1  1.50        -3.4971   2.0000                                                             
     6  2  2.50        -1.3606   0.0000                                                             
     5  3  2.50        -2.7212   0.0000                                                             
   Description                                                                                      
     l       E           TYP  RCUT    TYP  RCUT                                                     
     0    -12.0371566     23  3.100                                                                 
     0    -13.3977392     23  3.100                                                                 
     1     -3.4971341     23  3.100                                                                 
     1     -5.4423304     23  3.100                                                                 
     2     -1.3605826     23  3.100                                                                 
     3     -1.3605826     23  3.100                                                                 
  local pseudopotential read in
  partial core-charges read in
  partial kinetic energy density read in
  atomic valenz-charges read in
  non local Contribution for L=            0  read in
    real space projection operators read in
  non local Contribution for L=            0  read in
    real space projection operators read in
  non local Contribution for L=            1  read in
    real space projection operators read in
  non local Contribution for L=            1  read in
    real space projection operators read in
  non local Contribution for L=            2  read in
    real space projection operators read in
    PAW grid and wavefunctions read in
 
   number of l-projection  operators is LMAX  =            5
   number of lm-projection operators is LMMAX =           13
 
 Optimization of the real space projectors (new method)

 maximal supplied QI-value         = 34.20
 optimisation between [QCUT,QGAM] = [ 11.29, 22.57] = [ 35.68,142.71] Ry 
 Optimized for a Real-space Cutoff    1.16 Angstroem

   l    n(q)    QCUT    max X(q) W(low)/X(q) W(high)/X(q)  e(spline) 
   0      8    11.287    19.460    0.40E-03    0.73E-03    0.16E-06
   0      8    11.287    12.209    0.38E-03    0.70E-03    0.15E-06
   1      7    11.287     4.655    0.22E-03    0.25E-04    0.22E-06
 Optimization of the real space projectors (new method)

 maximal supplied QI-value         = 25.13
 optimisation between [QCUT,QGAM] = [ 11.31, 22.87] = [ 35.82,146.48] Ry 
 Optimized for a Real-space Cutoff    1.00 Angstroem

   l    n(q)    QCUT    max X(q) W(low)/X(q) W(high)/X(q)  e(spline) 
   0      7    11.310   115.676    0.43E-03    0.13E-02    0.19E-06
   0      7    11.310    87.132    0.43E-03    0.13E-02    0.18E-06
   1      6    11.310     4.429    0.42E-03    0.74E-03    0.11E-06
   1      6    11.310     2.733    0.34E-03    0.55E-03    0.92E-07
 Optimization of the real space projectors (new method)

 maximal supplied QI-value         = 25.13
 optimisation between [QCUT,QGAM] = [ 11.31, 22.87] = [ 35.82,146.48] Ry 
 Optimized for a Real-space Cutoff    1.27 Angstroem

   l    n(q)    QCUT    max X(q) W(low)/X(q) W(high)/X(q)  e(spline) 
   0      9    11.310    79.467    0.75E-04    0.16E-03    0.36E-06
   0      9    11.310    66.151    0.74E-04    0.16E-03    0.36E-06
   1      8    11.310    17.416    0.35E-03    0.12E-03    0.95E-06
   1      8    11.310    12.382    0.37E-03    0.13E-03    0.98E-06
 Optimization of the real space projectors (new method)

 maximal supplied QI-value         = 16.25
 optimisation between [QCUT,QGAM] = [ 11.38, 22.75] = [ 36.24,144.96] Ry 
 Optimized for a Real-space Cutoff    1.31 Angstroem

   l    n(q)    QCUT    max X(q) W(low)/X(q) W(high)/X(q)  e(spline) 
   0      9    11.376   194.483    0.24E-03    0.23E-03    0.67E-07
   0      9    11.376   190.334    0.23E-03    0.22E-03    0.65E-07
   1      8    11.376   116.687    0.25E-03    0.63E-04    0.16E-06
   1      8    11.376    88.696    0.25E-03    0.61E-04    0.16E-06
   2      8    11.376     4.877    0.17E-03    0.14E-03    0.29E-07
 Optimization of the real space projectors (new method)

 maximal supplied QI-value         = 12.09
 optimisation between [QCUT,QGAM] = [ 11.37, 22.86] = [ 36.19,146.31] Ry 
 Optimized for a Real-space Cutoff    1.66 Angstroem

   l    n(q)    QCUT    max X(q) W(low)/X(q) W(high)/X(q)  e(spline) 
   0     11    11.369   135.111    0.12E-03    0.69E-04    0.19E-05
   0     11    11.369   146.850    0.11E-03    0.65E-04    0.18E-05
   1     11    11.369   148.016    0.17E-03    0.32E-03    0.89E-06
   1     11    11.369   122.989    0.17E-03    0.32E-03    0.91E-06
   2     10    11.369     8.916    0.12E-03    0.45E-04    0.33E-06
  PAW_PBE H 15Jun2001                   :
 energy of atom  1       EATOM=  -12.4884
 kinetic energy error for atom=    0.0020 (will be added to EATOM!!)
  PAW_PBE C 08Apr2002                   :
 energy of atom  2       EATOM= -147.1560
 kinetic energy error for atom=    0.0076 (will be added to EATOM!!)
  PAW_PBE N 08Apr2002                   :
 energy of atom  3       EATOM= -264.5486
 kinetic energy error for atom=    0.0138 (will be added to EATOM!!)
  PAW_PBE I 08Apr2002                   :
 energy of atom  4       EATOM= -315.8678
 kinetic energy error for atom=    0.0009 (will be added to EATOM!!)
  PAW_PBE Pb 08Apr2002                  :
 energy of atom  5       EATOM=  -96.9868
 kinetic energy error for atom=    0.0000 (will be added to EATOM!!)
 
 
 POSCAR:  H  C  N  I Pb
  positions in cartesian coordinates
  No initial velocities read in
 exchange correlation table for  LEXCH =        8
   RHO(1)=    0.500       N(1)  =     2000
   RHO(2)=  100.500       N(2)  =     4000
 


--------------------------------------------------------------------------------------------------------


 ion  position               nearest neighbor table
   1  0.425  0.260  0.581- 187 1.00
   2  0.415  0.739  0.577- 188 1.00
   3  0.935  0.288  0.582- 189 1.03
   4  0.945  0.810  0.579- 190 1.02
   5  0.312  0.062  0.579- 194 1.03
   6  0.304  0.580  0.575- 195 1.02
   7  0.787  0.076  0.581- 196 1.02
   8  0.105  0.200  0.564- 183 1.03
   9  0.085  0.675  0.565- 184 1.03
  10  0.602  0.196  0.563- 185 1.02
  11  0.607  0.743  0.563- 186 1.04
  12  0.370  0.018  0.561- 194 1.03
  13  0.270  0.614  0.552- 195 1.02
  14  0.857  0.055  0.563- 196 1.02
  15  0.069  0.252  0.585- 183 1.02
  16  0.010  0.691  0.582- 184 1.02
  17  0.535  0.179  0.582- 185 1.01
  18  0.545  0.697  0.581- 186 1.02
  19  0.269  0.446  0.584- 191 1.03
  20  0.176  0.024  0.577- 192 1.04
  21  0.675  0.993  0.580- 193 1.02
  22  0.421  0.327  0.561- 187 1.02
  23  0.394  0.804  0.558- 188 1.02
  24  0.889  0.254  0.559- 189 1.02
  25  0.976  0.871  0.559- 190 1.04
  26  0.213  0.402  0.565- 191 1.01
  27  0.153  0.961  0.557- 192 1.02
  28  0.680  0.920  0.562- 193 1.02
  29  0.532  0.290  0.547- 146 1.09
  30  0.519  0.809  0.546- 147 1.10
  31  0.994  0.200  0.546- 144 1.07
  32  0.068  0.788  0.548- 145 1.10
  33  0.207  0.505  0.543- 148 1.08
  34  0.274  0.950  0.545- 149 1.08
  35  0.795  0.955  0.549- 150 1.08
  36  0.436  0.284  0.675- 205 1.00
  37  0.431  0.821  0.672- 206 1.00
  38  0.973  0.274  0.682- 207 1.02
  39  0.934  0.786  0.675- 208 1.03
  40  0.297  0.047  0.677- 209 1.00
  41  0.298  0.551  0.675- 210 1.00
  42  0.797  0.056  0.675- 211 0.99
  43  0.807  0.552  0.676- 212 1.02
  44  0.083  0.168  0.644- 197 1.03
  45  0.097  0.688  0.654- 198 1.03
  46  0.581  0.174  0.650- 199 1.03
  47  0.561  0.675  0.656- 200 1.02
  48  0.182  0.410  0.649- 201 1.05
  49  0.173  0.921  0.646- 202 1.05
  50  0.672  0.426  0.653- 203 0.99
  51  0.667  0.927  0.650- 204 1.05
  52  0.071  0.178  0.672- 197 1.01
  53  0.037  0.688  0.676- 198 1.02
  54  0.535  0.183  0.674- 199 1.01
  55  0.523  0.718  0.679- 200 0.99
  56  0.212  0.435  0.675- 201 1.00
  57  0.188  0.947  0.673- 202 1.00
  58  0.711  0.446  0.677- 203 1.02
  59  0.689  0.962  0.675- 204 1.00
  60  0.424  0.334  0.652- 205 1.03
  61  0.417  0.840  0.645- 206 1.03
  62  0.929  0.318  0.661- 207 1.03
  63  0.935  0.841  0.652- 208 1.02
  64  0.339  0.072  0.653- 209 1.06
  65  0.315  0.591  0.651- 210 1.02
  66  0.838  0.072  0.650- 211 1.03
  67  0.817  0.594  0.651- 212 1.01
  68  0.995  0.255  0.636- 151 1.09
  69  0.037  0.786  0.637- 152 1.11
  70  0.516  0.269  0.634- 153 1.10
  71  0.497  0.751  0.633- 154 1.10
  72  0.265  0.997  0.632- 156 1.11
  73  0.245  0.507  0.632- 155 1.09
  74  0.760  0.993  0.632- 158 1.09
  75  0.733  0.517  0.635- 157 1.08
  76  0.449  0.301  0.769- 221 1.02
  77  0.449  0.801  0.769- 222 1.02
  78  0.949  0.301  0.769- 223 1.02
  79  0.949  0.801  0.769- 224 1.02
  80  0.301  0.051  0.769- 225 1.02
  81  0.301  0.551  0.769- 226 1.02
  82  0.801  0.051  0.769- 227 1.02
  83  0.801  0.551  0.769- 228 1.02
  84  0.079  0.171  0.743- 213 1.02
  85  0.079  0.671  0.743- 214 1.02
  86  0.579  0.171  0.743- 215 1.02
  87  0.579  0.671  0.743- 216 1.02
  88  0.171  0.421  0.743- 217 1.02
  89  0.171  0.921  0.743- 218 1.02
  90  0.671  0.421  0.743- 219 1.02
  91  0.671  0.921  0.743- 220 1.02
  92  0.051  0.199  0.769- 213 1.02
  93  0.051  0.699  0.769- 214 1.02
  94  0.551  0.199  0.769- 215 1.02
  95  0.551  0.699  0.769- 216 1.02
  96  0.199  0.449  0.769- 217 1.02
  97  0.199  0.949  0.769- 218 1.02
  98  0.699  0.449  0.769- 219 1.02
  99  0.699  0.949  0.769- 220 1.02
 100  0.421  0.329  0.743- 221 1.02
 101  0.421  0.829  0.743- 222 1.02
 102  0.921  0.329  0.743- 223 1.02
 103  0.921  0.829  0.743- 224 1.02
 104  0.329  0.079  0.743- 225 1.02
 105  0.329  0.579  0.743- 226 1.02
 106  0.829  0.079  0.743- 227 1.02
 107  0.829  0.579  0.743- 228 1.02
 108  0.000  0.250  0.726- 161 1.09
 109  0.000  0.750  0.726- 162 1.09
 110  0.500  0.250  0.726- 159 1.09
 111  0.500  0.750  0.726- 160 1.09
 112  0.250  0.000  0.726- 163 1.09
 113  0.250  0.500  0.726- 164 1.09
 114  0.750  0.000  0.726- 165 1.09
 115  0.750  0.500  0.726- 166 1.09
 116  0.786  0.508  0.519- 173 1.09
 117  0.871  0.506  0.532- 173 1.11
 118  0.752  0.628  0.539- 174 1.11
 119  0.768  0.628  0.567- 174 1.09
 120  0.679  0.454  0.558- 175 1.11
 121  0.670  0.550  0.564- 175 1.10
 122  0.800  0.428  0.571- 176 1.11
 123  0.867  0.502  0.572- 176 1.10
 124  0.862  0.380  0.542- 177 1.11
 125  0.765  0.377  0.538- 177 1.10
 126  0.776  0.381  0.500- 178 1.10
 127  0.865  0.420  0.500- 178 1.09
 128  0.892  0.611  0.533- 179 1.11
 129  0.907  0.610  0.561- 179 1.11
 130  0.867  0.690  0.549- 179 1.10
 131  0.597  0.523  0.534- 180 1.09
 132  0.667  0.483  0.518- 180 1.10
 133  0.669  0.581  0.524- 180 1.11
 134  0.724  0.482  0.597- 181 1.08
 135  0.751  0.575  0.593- 181 1.11
 136  0.813  0.511  0.606- 181 1.11
 137  0.835  0.264  0.518- 182 1.12
 138  0.845  0.278  0.490- 182 1.11
 139  0.940  0.174  0.503- 168 1.08
 140  0.974  0.407  0.514- 169 1.10
 141  0.074  0.152  0.504- 170 1.10
 142  0.107  0.384  0.516- 171 1.09
 143  0.159  0.259  0.511- 172 1.08
 144  0.997  0.227  0.561-  31 1.07 183 1.30 189 1.30
 145  0.030  0.773  0.561-  32 1.10 184 1.30 190 1.31
 146  0.511  0.260  0.561-  29 1.09 185 1.30 187 1.31
 147  0.502  0.772  0.559-  30 1.10 186 1.32 188 1.33
 148  0.239  0.507  0.557-  33 1.08 191 1.30 195 1.32
 149  0.262  0.987  0.558-  34 1.08 192 1.30 194 1.30
 150  0.769  0.986  0.562-  35 1.08 193 1.30 196 1.30
 151  0.007  0.243  0.652-  68 1.09 197 1.30 207 1.31
 152  0.016  0.764  0.653-  69 1.11 198 1.29 208 1.31
 153  0.503  0.254  0.650-  70 1.10 199 1.29 205 1.32
 154  0.490  0.758  0.650-  71 1.10 206 1.32 200 1.32
 155  0.248  0.500  0.650-  73 1.09 201 1.29 210 1.33
 156  0.256  0.996  0.650-  72 1.11 209 1.29 202 1.30
 157  0.744  0.511  0.652-  75 1.08 212 1.32 203 1.32
 158  0.753  0.999  0.650-  74 1.09 204 1.29 211 1.33
 159  0.500  0.250  0.743- 110 1.09 221 1.31 215 1.31
 160  0.500  0.750  0.743- 111 1.09 222 1.31 216 1.31
 161  1.000  0.250  0.743- 108 1.09 223 1.31 213 1.31
 162  1.000  0.750  0.743- 109 1.09 224 1.31 214 1.31
 163  0.250  0.000  0.743- 112 1.09 225 1.31 218 1.31
 164  0.250  0.500  0.743- 113 1.09 226 1.31 217 1.31
 165  0.750  0.000  0.743- 114 1.09 227 1.31 220 1.31
 166  0.750  0.500  0.743- 115 1.09 228 1.31 219 1.31
 167  0.945  0.291  0.508- 168 1.39 169 1.42 182 1.52
 168  0.976  0.221  0.505- 139 1.08 167 1.39 170 1.40
 169  0.994  0.350  0.512- 140 1.10 171 1.39 167 1.42
 170  0.052  0.208  0.506- 141 1.10 172 1.40 168 1.40
 171  0.070  0.338  0.513- 142 1.09 169 1.39 172 1.39
 172  0.100  0.268  0.510- 143 1.08 171 1.39 170 1.40
 173  0.813  0.487  0.533- 116 1.09 117 1.11 229 1.51 177 1.54
 174  0.789  0.605  0.551- 119 1.09 118 1.11 179 1.52 229 1.53
 175  0.692  0.510  0.552- 121 1.10 120 1.11 229 1.52 180 1.52
 176  0.807  0.489  0.572- 123 1.10 122 1.11 229 1.52 181 1.53
 177  0.816  0.402  0.532- 125 1.10 124 1.11 173 1.54 178 1.56
 178  0.829  0.380  0.508- 127 1.09 126 1.10 182 1.55 177 1.56
 179  0.869  0.629  0.548- 130 1.10 128 1.11 129 1.11 174 1.52
 180  0.656  0.526  0.530- 131 1.09 132 1.10 133 1.11 175 1.52
 181  0.772  0.517  0.593- 134 1.08 136 1.11 135 1.11 176 1.53
 182  0.862  0.301  0.506- 138 1.11 137 1.12 167 1.52 178 1.55
 183  0.059  0.225  0.571-  15 1.02   8 1.03 144 1.30
 184  0.042  0.708  0.570-  16 1.02   9 1.03 145 1.30
 185  0.549  0.206  0.569-  17 1.01  10 1.02 146 1.30
 186  0.554  0.729  0.568-  18 1.02  11 1.04 147 1.32
 187  0.447  0.284  0.568-   1 1.00  22 1.02 146 1.31
 188  0.432  0.772  0.566-   2 1.00  23 1.02 147 1.33
 189  0.937  0.259  0.568-  24 1.02   3 1.03 144 1.30
 190  0.978  0.819  0.567-   4 1.02  25 1.04 145 1.31
 191  0.239  0.449  0.570-  26 1.01  19 1.03 148 1.30
 192  0.194  0.991  0.564-  27 1.02  20 1.04 149 1.30
 193  0.702  0.967  0.568-  28 1.02  21 1.02 150 1.30
 194  0.317  0.026  0.566-  12 1.03   5 1.03 149 1.30
 195  0.273  0.570  0.562-  13 1.02   6 1.02 148 1.32
 196  0.806  0.042  0.569-   7 1.02  14 1.02 150 1.30
 197  0.057  0.193  0.657-  52 1.01  44 1.03 151 1.30
 198  0.052  0.710  0.662-  53 1.02  45 1.03 152 1.29
 199  0.542  0.201  0.659-  54 1.01  46 1.03 153 1.29
 200  0.528  0.714  0.663-  55 0.99  47 1.02 154 1.32
 201  0.213  0.446  0.659-  56 1.00  48 1.05 155 1.29
 202  0.203  0.954  0.657-  57 1.00  49 1.05 156 1.30
 203  0.707  0.457  0.661-  50 0.99  58 1.02 157 1.32
 204  0.701  0.961  0.659-  59 1.00  51 1.05 158 1.29
 205  0.451  0.293  0.660-  36 1.00  60 1.03 153 1.32
 206  0.443  0.810  0.656-  37 1.00  61 1.03 154 1.32
 207  0.967  0.281  0.666-  38 1.02  62 1.03 151 1.31
 208  0.957  0.799  0.661-  63 1.02  39 1.03 152 1.31
 209  0.298  0.039  0.661-  40 1.00  64 1.06 156 1.29
 210  0.290  0.550  0.660-  41 1.00  65 1.02 155 1.33
 211  0.799  0.045  0.659-  42 0.99  66 1.03 158 1.33
 212  0.793  0.556  0.661-  67 1.01  43 1.02 157 1.32
 213  0.046  0.204  0.753-  92 1.02  84 1.02 161 1.31
 214  0.046  0.704  0.753-  93 1.02  85 1.02 162 1.31
 215  0.546  0.204  0.753-  94 1.02  86 1.02 159 1.31
 216  0.546  0.704  0.753-  95 1.02  87 1.02 160 1.31
 217  0.204  0.454  0.753-  96 1.02  88 1.02 164 1.31
 218  0.204  0.954  0.753-  97 1.02  89 1.02 163 1.31
 219  0.704  0.454  0.753-  98 1.02  90 1.02 166 1.31
 220  0.704  0.954  0.753-  99 1.02  91 1.02 165 1.31
 221  0.454  0.296  0.753-  76 1.02 100 1.02 159 1.31
 222  0.454  0.796  0.753-  77 1.02 101 1.02 160 1.31
 223  0.954  0.296  0.753-  78 1.02 102 1.02 161 1.31
 224  0.954  0.796  0.753-  79 1.02 103 1.02 162 1.31
 225  0.296  0.046  0.753-  80 1.02 104 1.02 163 1.31
 226  0.296  0.546  0.753-  81 1.02 105 1.02 164 1.31
 227  0.796  0.046  0.753-  82 1.02 106 1.02 165 1.31
 228  0.796  0.546  0.753-  83 1.02 107 1.02 166 1.31
 229  0.775  0.521  0.552- 173 1.51 175 1.52 176 1.52 174 1.53
 230  0.508  0.989  0.553- 304 3.11
 231  0.457  0.477  0.555- 305 3.13
 232  0.995  0.011  0.551- 302 3.30
 233  0.035  0.491  0.558- 303 3.09
 234  0.245  0.246  0.555- 306 3.12
 235  0.239  0.771  0.551- 307 3.26
 236  0.743  0.226  0.555- 308 3.22
 237  0.716  0.789  0.545-
 238  0.002  0.997  0.654- 302 3.14 310 3.16
 239  1.000  0.506  0.656- 311 3.03 303 3.11
 240  0.495  0.002  0.655- 312 3.11 304 3.26
 241  0.495  0.499  0.655- 313 3.10 305 3.26
 242  0.255  0.240  0.656- 314 3.08 306 3.15
 243  0.253  0.754  0.654- 307 3.16 315 3.18
 244  0.744  0.250  0.655- 316 3.08 308 3.13
 245  0.757  0.756  0.654- 309 3.06 317 3.19
 246  0.149  0.105  0.610- 306 3.22 302 3.34
 247  0.151  0.607  0.609- 303 3.16 307 3.20
 248  0.646  0.107  0.610- 308 3.28 304 3.35
 249  0.610  0.640  0.615- 309 3.33 305 3.35
 250  0.363  0.389  0.613- 305 3.20 306 3.25
 251  0.362  0.890  0.609- 304 3.17 307 3.24
 252  0.890  0.362  0.616- 308 3.23 303 3.42
 253  0.861  0.891  0.608- 302 3.18 309 3.18
 254  0.117  0.360  0.612- 306 3.16 303 3.29
 255  0.115  0.871  0.608- 307 3.12 302 3.27
 256  0.617  0.370  0.607- 308 3.22 305 3.23
 257  0.618  0.866  0.613- 309 3.15 304 3.20
 258  0.398  0.141  0.609- 304 3.26 306 3.29
 259  0.384  0.640  0.607- 305 3.23 307 3.31
 260  0.886  0.137  0.613- 302 3.15 308 3.24
 261  0.915  0.665  0.614- 303 3.39 309 3.44
 262  0.000  0.000  0.755- 310 3.13 318 3.27
 263  0.000  0.500  0.755- 311 3.13 319 3.27
 264  0.500  0.000  0.755- 312 3.13 320 3.27
 265  0.500  0.500  0.755- 313 3.13 321 3.27
 266  0.250  0.250  0.755- 314 3.13 322 3.27
 267  0.250  0.750  0.755- 315 3.13 323 3.27
 268  0.750  0.250  0.755- 316 3.13 324 3.27
 269  0.750  0.750  0.755- 317 3.13 325 3.27
 270  0.136  0.114  0.705- 310 3.20 314 3.20
 271  0.136  0.614  0.705- 311 3.20 315 3.20
 272  0.636  0.114  0.705- 312 3.20 316 3.20
 273  0.636  0.614  0.705- 313 3.20 317 3.20
 274  0.364  0.386  0.705- 313 3.20 314 3.20
 275  0.364  0.886  0.705- 312 3.20 315 3.20
 276  0.864  0.386  0.705- 311 3.20 316 3.20
 277  0.864  0.886  0.705- 310 3.20 317 3.20
 278  0.114  0.364  0.705- 314 3.21 311 3.21
 279  0.114  0.864  0.705- 315 3.21 310 3.21
 280  0.614  0.364  0.705- 316 3.21 313 3.21
 281  0.614  0.864  0.705- 317 3.21 312 3.21
 282  0.386  0.136  0.705- 314 3.21 312 3.21
 283  0.386  0.636  0.705- 315 3.21 313 3.21
 284  0.886  0.136  0.705- 316 3.21 310 3.21
 285  0.886  0.636  0.705- 317 3.21 311 3.21
 286  0.135  0.115  0.801- 318 3.22 322 3.22
 287  0.135  0.615  0.801- 319 3.22 323 3.22
 288  0.635  0.115  0.801- 320 3.22 324 3.22
 289  0.635  0.615  0.801- 321 3.22 325 3.22
 290  0.365  0.385  0.801- 321 3.22 322 3.22
 291  0.365  0.885  0.801- 320 3.22 323 3.22
 292  0.865  0.385  0.801- 319 3.22 324 3.22
 293  0.865  0.885  0.801- 318 3.22 325 3.22
 294  0.115  0.365  0.801- 319 3.23 322 3.23
 295  0.115  0.865  0.801- 318 3.23 323 3.23
 296  0.615  0.365  0.801- 321 3.23 324 3.23
 297  0.615  0.865  0.801- 320 3.23 325 3.23
 298  0.385  0.135  0.801- 320 3.23 322 3.23
 299  0.385  0.635  0.801- 321 3.23 323 3.23
 300  0.885  0.135  0.801- 318 3.23 324 3.23
 301  0.885  0.635  0.801- 319 3.23 325 3.23
 302  0.995  0.005  0.604- 238 3.14 260 3.15 253 3.18 255 3.27 232 3.30 246 3.34
 303  0.009  0.505  0.607- 233 3.09 239 3.11 247 3.16 254 3.29 261 3.39 252 3.42
 304  0.501  0.995  0.603- 230 3.11 251 3.17 257 3.20 258 3.26 240 3.26 248 3.35
 305  0.495  0.501  0.603- 231 3.13 250 3.20 259 3.23 256 3.23 241 3.26 249 3.35
 306  0.252  0.250  0.605- 234 3.12 242 3.15 254 3.16 246 3.22 250 3.25 258 3.29
 307  0.243  0.757  0.603- 255 3.12 243 3.16 247 3.20 251 3.24 235 3.26 259 3.31
 308  0.752  0.254  0.606- 244 3.13 236 3.22 256 3.22 252 3.23 260 3.24 248 3.28
 309  0.750  0.755  0.605- 245 3.06 257 3.15 253 3.18 249 3.33 261 3.44
 310  0.000  0.000  0.705- 262 3.13 238 3.16 270 3.20 277 3.20 279 3.21 284 3.21
 311  0.000  0.500  0.705- 239 3.03 263 3.13 271 3.20 276 3.20 278 3.21 285 3.21
 312  0.500  0.000  0.705- 240 3.11 264 3.13 272 3.20 275 3.20 281 3.21 282 3.21
 313  0.500  0.500  0.705- 241 3.10 265 3.13 273 3.20 274 3.20 280 3.21 283 3.21
 314  0.250  0.250  0.705- 242 3.08 266 3.13 270 3.20 274 3.20 282 3.21 278 3.21
 315  0.250  0.750  0.705- 267 3.13 243 3.18 271 3.20 275 3.20 283 3.21 279 3.21
 316  0.750  0.250  0.705- 244 3.08 268 3.13 272 3.20 276 3.20 284 3.21 280 3.21
 317  0.750  0.750  0.705- 269 3.13 245 3.19 273 3.20 277 3.20 285 3.21 281 3.21
 318  0.000  0.000  0.807- 286 3.22 293 3.22 300 3.23 295 3.23 262 3.27
 319  0.000  0.500  0.807- 287 3.22 292 3.22 301 3.23 294 3.23 263 3.27
 320  0.500  0.000  0.807- 288 3.22 291 3.22 298 3.23 297 3.23 264 3.27
 321  0.500  0.500  0.807- 289 3.22 290 3.22 299 3.23 296 3.23 265 3.27
 322  0.250  0.250  0.807- 290 3.22 286 3.22 294 3.23 298 3.23 266 3.27
 323  0.250  0.750  0.807- 291 3.22 287 3.22 299 3.23 295 3.23 267 3.27
 324  0.750  0.250  0.807- 292 3.22 288 3.22 296 3.23 300 3.23 268 3.27
 325  0.750  0.750  0.807- 293 3.22 289 3.22 297 3.23 301 3.23 269 3.27
 

IMPORTANT INFORMATION: All symmetrisations will be switched off!
NOSYMM: (Re-)initialisation of all symmetry stuff for point group C_1.


----------------------------------------------------------------------------------------

                                     Primitive cell                                     

  volume of cell :   20385.2105

  direct lattice vectors                    reciprocal lattice vectors
    18.060800552  0.000000000  0.000000000     0.055368531  0.000015077 -0.000000000
    -0.004918649 18.062799454  0.000000000     0.000000000  0.055362404  0.000000000
     0.000000000  0.000000000 62.487499237     0.000000000 -0.000000000  0.016003201

  length of vectors
    18.060800552 18.062800123 62.487499237     0.055368533  0.055362404  0.016003201

  position of ions in fractional coordinates (direct lattice)
     0.424831119  0.260017678  0.581159147
     0.414666408  0.739402788  0.577461141
     0.934818894  0.288170495  0.581808691
     0.944754357  0.810318023  0.579422471
     0.312095267  0.061508637  0.578825550
     0.304202236  0.579545547  0.575132429
     0.787224492  0.075707517  0.581240767
     0.104888959  0.200076617  0.564331806
     0.084573673  0.675226653  0.564877448
     0.601758886  0.195867690  0.563467559
     0.607255428  0.742672022  0.563260791
     0.370035828  0.018060068  0.560761878
     0.270080123  0.613722186  0.551517293
     0.856785787  0.055406642  0.563263844
     0.068948744  0.252389756  0.585135955
     0.009624400  0.690645958  0.582477342
     0.534877428  0.178571057  0.582313430
     0.544500616  0.697051533  0.580886753
     0.268977003  0.446195920  0.583560140
     0.175888800  0.024147663  0.576713494
     0.674826126  0.992536819  0.580008648
     0.420903964  0.327114846  0.561072549
     0.394382653  0.804407584  0.557732281
     0.889007120  0.253859855  0.559160240
     0.976286252  0.870979732  0.559426834
     0.213116347  0.402005431  0.565215894
     0.153389018  0.961016565  0.556874260
     0.679939211  0.919678175  0.561708601
     0.532232669  0.289712373  0.546790639
     0.519342839  0.809301667  0.546344261
     0.993766029  0.199762392  0.545690505
     0.067700942  0.788101647  0.547976301
     0.207146749  0.504724022  0.542891239
     0.274044309  0.950473686  0.544820213
     0.794794795  0.954976898  0.548945978
     0.436406277  0.284401558  0.675422202
     0.430986194  0.821047941  0.671717665
     0.972731616  0.273871980  0.682467984
     0.934087149  0.786152989  0.675142239
     0.297142401  0.046928974  0.677108086
     0.298255930  0.550584740  0.675493994
     0.797279044  0.056191183  0.674969414
     0.807078295  0.552431234  0.676432475
     0.083443640  0.167610742  0.644011806
     0.096893258  0.688253905  0.653934689
     0.581008650  0.174443161  0.649564796
     0.561384451  0.675166463  0.656422919
     0.182227260  0.410139102  0.649261879
     0.172859869  0.921336729  0.646281852
     0.672036936  0.426067245  0.652635540
     0.667279073  0.926610586  0.649642388
     0.071468793  0.178251657  0.671594532
     0.037364351  0.687752591  0.675917479
     0.534985245  0.183194090  0.673762446
     0.523091333  0.718258892  0.678890059
     0.212229944  0.435343801  0.674542937
     0.188096336  0.947429591  0.672509205
     0.711309929  0.445599306  0.677048138
     0.688569146  0.962480903  0.674637682
     0.424226984  0.333855503  0.651654387
     0.416771621  0.840085684  0.644733264
     0.929478289  0.318265740  0.660528171
     0.935306830  0.841427855  0.652221761
     0.338659244  0.071560891  0.653459985
     0.315223089  0.590550225  0.650888670
     0.837728074  0.072215879  0.650249076
     0.816968503  0.594305673  0.651393592
     0.995470206  0.254964119  0.635701489
     0.036768375  0.785877069  0.637454586
     0.516100648  0.268930854  0.633757252
     0.497336752  0.750949012  0.633005576
     0.264756957  0.996715413  0.632397300
     0.244822256  0.506874683  0.632398704
     0.760448369  0.992823094  0.632485025
     0.733113851  0.517016436  0.634722106
     0.448745018  0.301283966  0.768889017
     0.448745007  0.801283913  0.768889017
     0.948744965  0.301283966  0.768889017
     0.948745007  0.801283913  0.768889017
     0.301275995  0.051294496  0.768872961
     0.301276011  0.551294499  0.768872961
     0.801275943  0.051294496  0.768872961
     0.801275984  0.551294499  0.768872961
     0.078771004  0.171180501  0.743441971
     0.078771006  0.671180448  0.743441971
     0.578771004  0.171180501  0.743441971
     0.578770992  0.671180448  0.743441971
     0.171199499  0.421174482  0.743421032
     0.171199501  0.921174508  0.743421032
     0.671199512  0.421174482  0.743421032
     0.671199501  0.921174508  0.743421032
     0.051256000  0.198714991  0.768889017
     0.051256002  0.698714925  0.768889017
     0.551256027  0.198714991  0.768889017
     0.551256016  0.698714925  0.768889017
     0.198723491  0.448703970  0.768872046
     0.198723493  0.948703970  0.768872046
     0.698723518  0.448703970  0.768872046
     0.698723507  0.948703970  0.768872046
     0.421231519  0.328817467  0.743441971
     0.421231508  0.828817440  0.743441971
     0.921231466  0.328817467  0.743441971
     0.921231508  0.828817440  0.743441971
     0.328800503  0.078824997  0.743421032
     0.328800492  0.578824964  0.743421032
     0.828800477  0.078824997  0.743421032
     0.828800519  0.578824964  0.743421032
     0.000003500  0.250001478  0.725821992
     0.000003500  0.750001452  0.725821992
     0.500003506  0.250001478  0.725821992
     0.500003495  0.750001452  0.725821992
     0.250000502  0.000000000  0.725803983
     0.250000517  0.500000000  0.725803983
     0.750000502  0.000000000  0.725803983
     0.750000490  0.500000000  0.725803983
     0.785981186  0.508491824  0.518527723
     0.871344275  0.506282240  0.532021999
     0.752388543  0.627817747  0.538863517
     0.767811569  0.627651171  0.566531709
     0.679276529  0.454047097  0.558127685
     0.670489734  0.550137279  0.563717243
     0.800237083  0.428205737  0.570897634
     0.866859379  0.501529233  0.571565187
     0.861952831  0.380191427  0.542234491
     0.764749178  0.377159228  0.538209272
     0.776389035  0.381044875  0.499537871
     0.864608998  0.419711088  0.499997894
     0.892049989  0.610658283  0.532975681
     0.906699616  0.609963940  0.561332244
     0.867466831  0.689600722  0.548524079
     0.596759725  0.522817742  0.533663197
     0.667345919  0.483256845  0.518179265
     0.669273110  0.580855405  0.523535988
     0.724216408  0.482143078  0.596597293
     0.750844955  0.574566143  0.593067962
     0.813473220  0.511302246  0.605775581
     0.834610923  0.263588307  0.517571904
     0.845277138  0.277760319  0.489994031
     0.939662751  0.174464505  0.502747101
     0.973783322  0.407428705  0.514436695
     0.073598127  0.151680712  0.503527988
     0.107028687  0.384354525  0.516130210
     0.158975349  0.259142477  0.511254265
     0.996997413  0.226976796  0.560936169
     0.030293832  0.772512228  0.561108933
     0.510891720  0.259951469  0.560695825
     0.502133607  0.771777970  0.559240456
     0.239251688  0.507146855  0.557386631
     0.262485668  0.987415873  0.557916644
     0.768544772  0.986166254  0.561570268
     0.006560662  0.243040180  0.652491285
     0.015685050  0.764314751  0.652946393
     0.502813355  0.254121969  0.650389729
     0.489555060  0.757809123  0.650378436
     0.248406041  0.499827879  0.649769183
     0.255698186  0.996400491  0.649966305
     0.744350262  0.510525328  0.651560130
     0.752505587  0.998953698  0.649757523
     0.499988984  0.249994984  0.743277021
     0.499989025  0.749994958  0.743277021
     0.999988984  0.249994984  0.743277021
     0.999989025  0.749994958  0.743277021
     0.250000502  0.000001000  0.743255960
     0.250000517  0.500001003  0.743255960
     0.750000502  0.000001000  0.743255960
     0.750000491  0.500001003  0.743255960
     0.945144175  0.290774293  0.507900567
     0.975941161  0.220795070  0.505383859
     0.994466141  0.350378728  0.512287767
     0.052418036  0.208076288  0.506151621
     0.070302926  0.338023512  0.512832370
     0.099954839  0.267749030  0.509821850
     0.813308513  0.487020530  0.532823185
     0.788664472  0.604931316  0.551496170
     0.692080790  0.510401623  0.551872161
     0.807304392  0.488807362  0.572281028
     0.816114228  0.402090726  0.532132190
     0.829077364  0.380075694  0.508234191
     0.868907581  0.628739279  0.548495143
     0.656103267  0.525771456  0.530393378
     0.771507445  0.516738403  0.592930788
     0.861972773  0.301407460  0.505686196
     0.059389735  0.224531418  0.571241697
     0.041622643  0.708217350  0.569943097
     0.549430101  0.205965581  0.568923972
     0.553659124  0.729033267  0.567689473
     0.447444059  0.283693936  0.568209840
     0.431862357  0.771970365  0.565572289
     0.936923365  0.259227006  0.567697714
     0.978181779  0.818964016  0.566521881
     0.239274143  0.448836703  0.569569304
     0.193886519  0.990606351  0.564290416
     0.702108266  0.967427084  0.567600954
     0.316710609  0.026106276  0.565988082
     0.272740169  0.569955108  0.561823492
     0.805906952  0.041915383  0.569304175
     0.056675858  0.193030249  0.656571752
     0.051590211  0.710425825  0.661632701
     0.541565701  0.201123266  0.658624348
     0.527877978  0.714202920  0.663207051
     0.213173009  0.446371895  0.658909073
     0.203465716  0.953670418  0.657202554
     0.706599501  0.457300175  0.661123566
     0.700937094  0.961260946  0.659091848
     0.450823018  0.293029177  0.660090644
     0.442935622  0.809750659  0.656415349
     0.967269940  0.280585208  0.666340613
     0.957495090  0.798500313  0.660611317
     0.297759009  0.039055583  0.661246515
     0.290001902  0.549947472  0.659715447
     0.798846384  0.045230360  0.659401175
     0.792715958  0.555595083  0.660618155
     0.045862501  0.204119496  0.752725994
     0.045862500  0.704119456  0.752725994
     0.545862507  0.204119496  0.752725994
     0.545862496  0.704119456  0.752725994
     0.204119002  0.454101003  0.752704994
     0.204118991  0.954100951  0.752704994
     0.704118976  0.454101003  0.752704994
     0.704118964  0.954100951  0.752704994
     0.454140018  0.295888490  0.752726971
     0.454140007  0.795888516  0.752726971
     0.954140018  0.295888490  0.752726971
     0.954140060  0.795888516  0.752726971
     0.295882492  0.045900498  0.752704994
     0.295882481  0.545900528  0.752704994
     0.795882439  0.045900498  0.752704994
     0.795882481  0.545900528  0.752704994
     0.775265372  0.521405825  0.551842675
     0.507526582  0.989399132  0.553410860
     0.456920645  0.476950740  0.554706712
     0.994815013  0.010584780  0.551310342
     0.035013977  0.490777825  0.558051436
     0.245244135  0.246402734  0.555455641
     0.239318293  0.770909553  0.551435916
     0.743247253  0.226492615  0.554630037
     0.715571133  0.789018532  0.544806295
     0.002189696  0.996818445  0.654210989
     0.999717618  0.505874325  0.656438486
     0.495344429  0.001788926  0.655155942
     0.495275393  0.498648854  0.655257952
     0.254782097  0.239536314  0.655676615
     0.252805306  0.753594652  0.653974553
     0.743912878  0.249891078  0.655498295
     0.757062564  0.755818808  0.653778347
     0.148903455  0.105242374  0.609965873
     0.151140962  0.607016456  0.609215173
     0.646482291  0.106930184  0.610493810
     0.610232839  0.640212800  0.614937814
     0.362744250  0.388528976  0.612802561
     0.361535791  0.890325022  0.608688334
     0.889597135  0.362004677  0.616145576
     0.861442776  0.891385622  0.608395490
     0.117484379  0.359666108  0.612024634
     0.115256331  0.871088179  0.608413133
     0.616919029  0.370103422  0.606677739
     0.618383498  0.866128151  0.612610139
     0.397905777  0.141470349  0.608887410
     0.384240878  0.639761169  0.607484725
     0.885709867  0.136791931  0.613432325
     0.914894194  0.665015946  0.614420377
     0.000000000  0.000000000  0.754927972
     0.000000000  0.500000000  0.754927972
     0.500000000  0.000000000  0.754927972
     0.499999989  0.500000000  0.754927972
     0.250000496  0.250000000  0.754939022
     0.250000511  0.749999974  0.754939022
     0.750000470  0.250000000  0.754939022
     0.750000458  0.749999974  0.754939022
     0.135790500  0.114209997  0.704782994
     0.135790502  0.614209984  0.704782994
     0.635790447  0.114209997  0.704782994
     0.635790488  0.614209984  0.704782994
     0.364209516  0.385789989  0.704782994
     0.364209505  0.885789963  0.704782994
     0.864209542  0.385789989  0.704782994
     0.864209531  0.885789963  0.704782994
     0.114217990  0.364218986  0.704780979
     0.114217992  0.864218986  0.704780979
     0.614218004  0.364218986  0.704780979
     0.614217992  0.864218986  0.704780979
     0.385782012  0.135781489  0.704782017
     0.385782001  0.635781489  0.704782017
     0.885781985  0.135781489  0.704782017
     0.885782027  0.635781489  0.704782017
     0.134667000  0.115332001  0.801256025
     0.134666989  0.615331988  0.801256025
     0.634666987  0.115332001  0.801256025
     0.634666976  0.615331988  0.801256025
     0.365333002  0.384667985  0.801256025
     0.365332990  0.884667959  0.801256025
     0.865332949  0.384667985  0.801256025
     0.865332938  0.884667959  0.801256025
     0.115328503  0.365337004  0.801264999
     0.115328505  0.865336978  0.801264999
     0.615328503  0.365337004  0.801264999
     0.615328492  0.865336978  0.801264999
     0.384671513  0.134662996  0.801264999
     0.384671501  0.634662970  0.801264999
     0.884671486  0.134662996  0.801264999
     0.884671528  0.634662970  0.801264999
     0.994795518  0.005012767  0.604041714
     0.008992790  0.504943871  0.606685859
     0.501023721  0.995028621  0.603115565
     0.495346253  0.500770952  0.603045360
     0.251701210  0.249677512  0.605281952
     0.243448968  0.756605969  0.603421900
     0.752097325  0.253589056  0.605510819
     0.750346735  0.755007836  0.604865854
     0.000000500  0.000000500  0.704828963
     0.000000500  0.500000475  0.704828963
     0.500000475  0.000000500  0.704828963
     0.500000464  0.500000475  0.704828963
     0.249999994  0.249999472  0.704824995
     0.250000010  0.749999498  0.704824995
     0.749999994  0.249999472  0.704824995
     0.749999983  0.749999498  0.704824995
     0.000000000  0.000000000  0.807317968
     0.000000000  0.500000000  0.807317968
     0.500000000  0.000000000  0.807317968
     0.499999989  0.500000000  0.807317968
     0.249999994  0.250000000  0.807317968
     0.250000010  0.749999974  0.807317968
     0.749999994  0.250000000  0.807317968
     0.749999983  0.749999974  0.807317968

  ion indices of the primitive-cell ions
   primitive index   ion index
                 1           1
                 2           2
                 3           3
                 4           4
                 5           5
                 6           6
                 7           7
                 8           8
                 9           9
                10          10
                11          11
                12          12
                13          13
                14          14
                15          15
                16          16
                17          17
                18          18
                19          19
                20          20
                21          21
                22          22
                23          23
                24          24
                25          25
                26          26
                27          27
                28          28
                29          29
                30          30
                31          31
                32          32
                33          33
                34          34
                35          35
                36          36
                37          37
                38          38
                39          39
                40          40
                41          41
                42          42
                43          43
                44          44
                45          45
                46          46
                47          47
                48          48
                49          49
                50          50
                51          51
                52          52
                53          53
                54          54
                55          55
                56          56
                57          57
                58          58
                59          59
                60          60
                61          61
                62          62
                63          63
                64          64
                65          65
                66          66
                67          67
                68          68
                69          69
                70          70
                71          71
                72          72
                73          73
                74          74
                75          75
                76          76
                77          77
                78          78
                79          79
                80          80
                81          81
                82          82
                83          83
                84          84
                85          85
                86          86
                87          87
                88          88
                89          89
                90          90
                91          91
                92          92
                93          93
                94          94
                95          95
                96          96
                97          97
                98          98
                99          99
               100         100
               101         101
               102         102
               103         103
               104         104
               105         105
               106         106
               107         107
               108         108
               109         109
               110         110
               111         111
               112         112
               113         113
               114         114
               115         115
               116         116
               117         117
               118         118
               119         119
               120         120
               121         121
               122         122
               123         123
               124         124
               125         125
               126         126
               127         127
               128         128
               129         129
               130         130
               131         131
               132         132
               133         133
               134         134
               135         135
               136         136
               137         137
               138         138
               139         139
               140         140
               141         141
               142         142
               143         143
               144         144
               145         145
               146         146
               147         147
               148         148
               149         149
               150         150
               151         151
               152         152
               153         153
               154         154
               155         155
               156         156
               157         157
               158         158
               159         159
               160         160
               161         161
               162         162
               163         163
               164         164
               165         165
               166         166
               167         167
               168         168
               169         169
               170         170
               171         171
               172         172
               173         173
               174         174
               175         175
               176         176
               177         177
               178         178
               179         179
               180         180
               181         181
               182         182
               183         183
               184         184
               185         185
               186         186
               187         187
               188         188
               189         189
               190         190
               191         191
               192         192
               193         193
               194         194
               195         195
               196         196
               197         197
               198         198
               199         199
               200         200
               201         201
               202         202
               203         203
               204         204
               205         205
               206         206
               207         207
               208         208
               209         209
               210         210
               211         211
               212         212
               213         213
               214         214
               215         215
               216         216
               217         217
               218         218
               219         219
               220         220
               221         221
               222         222
               223         223
               224         224
               225         225
               226         226
               227         227
               228         228
               229         229
               230         230
               231         231
               232         232
               233         233
               234         234
               235         235
               236         236
               237         237
               238         238
               239         239
               240         240
               241         241
               242         242
               243         243
               244         244
               245         245
               246         246
               247         247
               248         248
               249         249
               250         250
               251         251
               252         252
               253         253
               254         254
               255         255
               256         256
               257         257
               258         258
               259         259
               260         260
               261         261
               262         262
               263         263
               264         264
               265         265
               266         266
               267         267
               268         268
               269         269
               270         270
               271         271
               272         272
               273         273
               274         274
               275         275
               276         276
               277         277
               278         278
               279         279
               280         280
               281         281
               282         282
               283         283
               284         284
               285         285
               286         286
               287         287
               288         288
               289         289
               290         290
               291         291
               292         292
               293         293
               294         294
               295         295
               296         296
               297         297
               298         298
               299         299
               300         300
               301         301
               302         302
               303         303
               304         304
               305         305
               306         306
               307         307
               308         308
               309         309
               310         310
               311         311
               312         312
               313         313
               314         314
               315         315
               316         316
               317         317
               318         318
               319         319
               320         320
               321         321
               322         322
               323         323
               324         324
               325         325

----------------------------------------------------------------------------------------

 
 
 KPOINTS: Automatic Mesh                          

Automatic generation of k-mesh.
 Grid dimensions read from file:
 generate k-points for:    3    3    1

 Generating k-lattice:

  Cartesian coordinates                     Fractional coordinates (reciprocal lattice)
     0.018456177  0.000005026 -0.000000000     0.333333333  0.000000000  0.000000000
     0.000000000  0.018454135  0.000000000     0.000000000  0.333333333  0.000000000
     0.000000000 -0.000000000  0.016003201     0.000000000  0.000000000  1.000000000

  Length of vectors
     0.018456178  0.018454135  0.016003201

  Shift w.r.t. Gamma in fractional coordinates (k-lattice)
     0.000000000  0.000000000  0.000000000

 
 Subroutine IBZKPT returns following result:
 ===========================================
 
 Found      5 irreducible k-points:
 
 Following reciprocal coordinates:
            Coordinates               Weight
  0.000000  0.000000  0.000000      1.000000
  0.333333  0.000000  0.000000      2.000000
  0.000000  0.333333  0.000000      2.000000
  0.333333  0.333333  0.000000      2.000000
 -0.333333  0.333333  0.000000      2.000000
 
 Following cartesian coordinates:
            Coordinates               Weight
  0.000000  0.000000  0.000000      1.000000
  0.018456  0.000005  0.000000      2.000000
  0.000000  0.018454  0.000000      2.000000
  0.018456  0.018459  0.000000      2.000000
 -0.018456  0.018449  0.000000      2.000000
 


--------------------------------------------------------------------------------------------------------




 Dimension of arrays:
   k-points           NKPTS =      5   k-points in BZ     NKDIM =      5   number of bands    NBANDS=    732
   number of dos      NEDOS =    301   number of ions     NIONS =    325
   non local maximal  LDIM  =      5   non local SUM 2l+1 LMDIM =     13
   total plane-waves  NPLWV = ******
   max r-space proj   IRMAX =   3336   max aug-charges    IRDMAX=  19845
   dimension x,y,z NGX =   100 NGY =  100 NGZ =  350
   dimension x,y,z NGXF=   200 NGYF=  200 NGZF=  700
   support grid    NGXF=   200 NGYF=  200 NGZF=  700
   ions per type =             143  39  47  72  24
   NGX,Y,Z   is equivalent  to a cutoff of   9.20,  9.20,  9.31 a.u.
   NGXF,Y,Z  is equivalent  to a cutoff of  18.41, 18.41, 18.62 a.u.

 SYSTEM =  PSC                                     
 POSCAR =   H  C  N  I Pb                          

 Startparameter for this run:
   NWRITE =      2    write-flag & timer
   PREC   = normal    normal or accurate (medium, high low for compatibility)
   ISTART =      0    job   : 0-new  1-cont  2-samecut
   ICHARG =      1    charge: 1-file 2-atom 10-const
   ISPIN  =      1    spin polarized calculation?
   LNONCOLLINEAR =      F non collinear calculations
   LSORBIT =      F    spin-orbit coupling
   INIWAV =      1    electr: 0-lowe 1-rand  2-diag
   LASPH  =      F    aspherical Exc in radial PAW
 Electronic Relaxation 1
   ENCUT  =  500.0 eV  36.75 Ry    6.06 a.u.  32.93 32.93113.93*2*pi/ulx,y,z
   ENINI  =  500.0     initial cutoff
   ENAUG  =  644.9 eV  augmentation charge cutoff
   NELM   =    600;   NELMIN=  2; NELMDL=  0     # of ELM steps 
   EDIFF  = 0.1E-03   stopping-criterion for ELM
   LREAL  =      T    real-space projection
   NLSPLINE    = F    spline interpolate recip. space projectors
   LCOMPAT=      F    compatible to vasp.4.4
   GGA_COMPAT  = F    GGA compatible to vasp.4.4-vasp.4.6
   LMAXPAW     = -100 max onsite density
   LMAXMIX     =    2 max onsite mixed and CHGCAR
   VOSKOWN=      0    Vosko Wilk Nusair interpolation
   ROPT   =   -0.00050  -0.00050  -0.00050  -0.00050
   ROPT   =   -0.00050
 Ionic relaxation
   EDIFFG = 0.1E-02   stopping-criterion for IOM
   NSW    =      0    number of steps for IOM
   NBLOCK =      1;   KBLOCK =      1    inner block; outer block 
   IBRION =     -1    ionic relax: 0-MD 1-quasi-New 2-CG
   NFREE  =      0    steps in history (QN), initial steepest desc. (CG)
   ISIF   =      2    stress and relaxation
   IWAVPR =     10    prediction:  0-non 1-charg 2-wave 3-comb
   ISYM   =      0    0-nonsym 1-usesym 2-fastsym
   LCORR  =      T    Harris-Foulkes like correction to forces

   POTIM  = 0.5000    time-step for ionic-motion
   TEIN   =    0.0    initial temperature
   TEBEG  =    0.0;   TEEND  =   0.0 temperature during run
   SMASS  =  -3.00    Nose mass-parameter (am)
   estimated Nose-frequenzy (Omega)   =  0.10E-29 period in steps = 0.13E+47 mass=  -0.745E-26a.u.
   SCALEE = 1.0000    scale energy and forces
   NPACO  =    256;   APACO  = 16.0  distance and # of slots for P.C.
   PSTRESS=    0.0 pullay stress

  Mass of Ions in am
   POMASS =   1.00 12.01 14.00126.90207.20
  Ionic Valenz
   ZVAL   =   1.00  4.00  5.00  7.00  4.00
  Atomic Wigner-Seitz radii
   RWIGS  =  -1.00 -1.00 -1.00 -1.00 -1.00
  virtual crystal weights 
   VCA    =   1.00  1.00  1.00  1.00  1.00
   NELECT =    1134.0000    total number of electrons
   NUPDOWN=      -1.0000    fix difference up-down

 DOS related values:
   EMIN   =  10.00;   EMAX   =-10.00  energy-range for DOS
   EFERMI =   0.00
   ISMEAR =     0;   SIGMA  =   0.05  broadening in eV -4-tet -1-fermi 0-gaus

 Electronic relaxation 2 (details)
   IALGO  =     38    algorithm
   LDIAG  =      T    sub-space diagonalisation (order eigenvalues)
   LSUBROT=      F    optimize rotation matrix (better conditioning)
   TURBO    =      0    0=normal 1=particle mesh
   IRESTART =      0    0=no restart 2=restart with 2 vectors
   NREBOOT  =      0    no. of reboots
   NMIN     =      0    reboot dimension
   EREF     =   0.00    reference energy to select bands
   IMIX   =      4    mixing-type and parameters
     AMIX     =   0.40;   BMIX     =  0.01
     AMIX_MAG =   1.60;   BMIX_MAG =  0.01
     AMIN     =   0.01
     WC   =   100.;   INIMIX=   1;  MIXPRE=   1;  MAXMIX= -45

 Intra band minimization:
   WEIMIN = 0.0000     energy-eigenvalue tresh-hold
   EBREAK =  0.34E-07  absolut break condition
   DEPER  =   0.30     relativ break condition  

   TIME   =   0.40     timestep for ELM

  volume/ion in A,a.u.               =      62.72       423.28
  Fermi-wavevector in a.u.,A,eV,Ry     =   0.624944  1.180972  5.313816  0.390554
  Thomas-Fermi vector in A             =   1.685677
 
 Write flags
   LWAVE        =      F    write WAVECAR
   LDOWNSAMPLE  =      F    k-point downsampling of WAVECAR
   LCHARG       =      T    write CHGCAR
   LVTOT        =      T    write LOCPOT, total local potential
   LVHAR        =      F    write LOCPOT, Hartree potential only
   LELF         =      F    write electronic localiz. function (ELF)
   LORBIT       =      0    0 simple, 1 ext, 2 COOP (PROOUT), +10 PAW based schemes


 Dipole corrections
   LMONO  =      F    monopole corrections only (constant potential shift)
   LDIPOL =      T    correct potential (dipole corrections)
   IDIPOL =      3    1-x, 2-y, 3-z, 4-all directions 
   EPSILON=  1.0000000 bulk dielectric constant

 Exchange correlation treatment:
   GGA     =    --    GGA type
   LEXCH   =     8    internal setting for exchange type
   VOSKOWN=      0    Vosko Wilk Nusair interpolation
   LHFCALC =     F    Hartree Fock is set to
   LHFONE  =     F    Hartree Fock one center treatment
   AEXX    =    0.0000 exact exchange contribution

 Linear response parameters
   LEPSILON=     F    determine dielectric tensor
   LRPA    =     F    only Hartree local field effects (RPA)
   LNABLA  =     F    use nabla operator in PAW spheres
   LVEL    =     F    velocity operator in full k-point grid
   LINTERFAST=   F  fast interpolation
   KINTER  =     0    interpolate to denser k-point grid
   CSHIFT  =0.1000    complex shift for real part using Kramers Kronig
   OMEGAMAX=  -1.0    maximum frequency
   DEG_THRESHOLD= 0.2000000E-02 threshold for treating states as degnerate
   RTIME   =   -0.100 relaxation time in fs
  (WPLASMAI=    0.000 imaginary part of plasma frequency in eV, 0.658/RTIME)
   DFIELD  = 0.0000000 0.0000000 0.0000000 field for delta impulse in time
 
 Orbital magnetization related:
   ORBITALMAG=     F  switch on orbital magnetization
   LCHIMAG   =     F  perturbation theory with respect to B field
   DQ        =  0.001000  dq finite difference perturbation B field
   LLRAUG    =     F  two centre corrections for induced B field



--------------------------------------------------------------------------------------------------------


 Static calculation
 charge density and potential will be updated during run
 non-spin polarized calculation
 Variant of blocked Davidson
 Davidson routine will perform the subspace rotation
 perform sub-space diagonalisation
    after iterative eigenvector-optimisation
 modified Broyden-mixing scheme, WC =      100.0
 initial mixing is a Kerker type mixing with AMIX =  0.4000 and BMIX =      0.0100
 Hartree-type preconditioning will be used
 using additional bands           165
 real space projection scheme for non local part
 use partial core corrections
[...]
     13.54561      0.00000     45.35368        -0.000855     -0.002738      0.011567
     13.54315      9.03140     45.35368        -0.007946     -0.002974      0.020151
     14.19295      9.18479     32.40150        -0.184362      0.085626     -0.047736
     15.73468      9.14487     33.24472        -0.351421      0.076948      0.350583
     13.58565     11.34015     33.67223         0.361470     -0.112579      0.176453
     13.86420     11.33714     35.40115        -0.120818     -0.142660      0.083753
     12.26604      8.20136     34.87600         0.188530      0.383798     -0.318384
     12.10688      9.93702     35.22528         0.097105     -0.144519     -0.005665
     14.45082      7.73459     35.67397         0.089826      0.302068      0.084843
     15.65371      9.05902     35.71568        -0.067662     -0.119699      0.017795
     15.56569      6.86732     33.88288        -0.290717      0.289582     -0.257334
     13.81013      6.81255     33.63135         0.023991     -0.087240     -0.145963
     14.02033      6.88274     31.21487        -0.190127      0.078687      0.068076
     15.61347      7.58116     31.24362         0.257123      0.315653     -0.016027
     16.10813     11.03020     33.30432        -0.066477      0.220848      0.274031
     16.37272     11.01766     35.07625        -0.287512      0.067970     -0.203598
     15.66375     12.45612     34.27590         0.073536      0.001089      0.012594
     10.77539      9.44355     33.34728        -0.314217      0.145606     -0.135045
     12.05042      8.72897     32.37973         0.089396      0.046445      0.147513
     12.08475     10.49187     32.71445        -0.132123     -0.309389      0.252174
     13.07756      8.70885     37.27987        -0.357528     -0.268353      0.302213
     13.55803     10.37827     37.05933         0.387555     -0.341647     -0.161068
     14.68946      9.23555     37.85340        -0.352252      0.031606     -0.236846
     15.07244      4.76114     32.34177         0.133496      0.391509     -0.351838
     15.26502      5.01713     30.61850         0.092756      0.223358      0.172578
     16.97020      3.15132     31.41541        -0.398285     -0.489216     -0.170072
     17.58530      7.35930     32.14586         0.108392     -0.468018      0.026722
      1.32850      2.73978     31.46420        -0.058049      0.304555      0.137254
      1.93113      6.94252     32.25169         0.085824      0.099895      0.045031
      2.86995      4.68084     31.94700         0.315011     -0.033998     -0.084891
     18.00546      4.09984     35.05150        -0.128675     -0.073558     -0.037978
      0.54333     13.95373     35.06229         0.411334      0.233852     -0.693854
      9.22583      4.69545     35.03648        -0.338802      0.624075     -0.047625
      9.06514     13.94047     34.94554        -0.449064     -0.324703      0.493512
      4.31858      9.16049     34.82970         0.104853      0.598463      0.180147
      4.73584     17.83549     34.86282        -0.016567      0.261867      0.123474
     13.87568     17.81292     35.09112         0.077008      0.367770      0.044778
      0.11730      4.38999     40.77255        -0.108357      0.064078     -0.571170
      0.27953     13.80566     40.80099        -0.209072      1.224996     -1.366197
      9.07996      4.59015     40.64123        -0.579685      1.084375     -0.766943
      8.83803     13.68815     40.64052        -0.070379      0.182372     -0.267445
      4.48395      9.02829     40.60245         1.245882      1.599636     -0.115282
      4.61321     17.99778     40.61477        -0.205317     -0.173982     -1.241444
     13.44105      9.22152     40.71436        -0.072779     -0.268985      0.655920
     13.58594     18.04390     40.60172         1.270954      1.080422     -0.074237
      9.02897      4.51561     46.44552         0.010914      0.007722      0.039184
      9.02651     13.54701     46.44552         0.014954     -0.001174      0.050031
     18.05937      4.51561     46.44552         0.002451      0.013574      0.068841
     18.05691     13.54701     46.44552         0.026646     -0.009172      0.048462
      4.51521      0.00002     46.44421        -0.001299     -0.003145      0.060474
      4.51275      9.03142     46.44421        -0.003056     -0.003329      0.048224
     13.54561      0.00002     46.44421         0.000382      0.000489      0.045387
     13.54315      9.03142     46.44421        -0.028076     -0.027651      0.049450
     17.06863      5.25220     31.73744         0.164121      1.408967      0.312308
     17.62519      3.98818     31.58017         0.370761     -0.283697     -0.027493
     17.95913      6.32882     32.01158        -0.823809     -0.173559     -0.434129
      0.94569      3.75844     31.62815        -0.096017     -0.028875     -0.077053
      1.26806      6.10565     32.04561         0.170325      0.217416      0.220703
      1.80395      4.83630     31.85749        -0.142407     -0.318587      0.044607
     14.68661      8.79695     33.29479         0.484904     -0.538963     -0.137460
     14.24094     10.92675     34.46162         0.267844      0.131065     -0.412017
     12.49702      9.21928     34.48511        -0.174167     -0.129848     -0.101540
     14.57816      8.82923     35.76041         0.111351      0.142811      0.081791
     14.73770      7.26288     33.25161         0.161119      0.297886     -0.541403
     14.97193      6.86523     31.75828         0.096042     -0.953700      0.559938
     15.69007     11.35679     34.27409        -0.023058     -0.021018     -0.158262
     11.84716      9.49690     33.14296        -0.081926     -0.163445     -0.164875
     13.93150      9.33374     37.05076         0.354812      0.226480     -0.077886
     15.56644      5.44426     31.59907        -0.323178     -0.570851      0.202105
      1.07152      4.05567     35.69547         0.798038     -0.311822     -0.114114
      0.74825     12.79239     35.61432         0.420607     -0.650711     -0.060355
      9.92213      3.72031     35.55064         0.538670     -0.123616     -0.425369
      9.99594     13.16838     35.47350        -0.392373      0.694892     -0.493916
      8.07980      5.12431     35.50601         0.207925      0.141315     -0.699724
      7.79598     13.94395     35.34120         1.220395      0.950075     -1.573592
     16.92031      4.68237     35.47401        -0.404663      0.441424      0.120340
     17.66272     14.79278     35.40054        -0.250960      0.546933     -0.287042
      4.31927      8.10725     35.59096         0.478957     -0.013658      0.654877
      3.49687     17.89312     35.26110        -0.950605      0.208642      0.377671
     12.67588     17.47444     35.46796        -0.434952     -0.166035      0.297073
      5.71992      0.47155     35.36718         0.453948      0.385184      0.301107
      4.92310     10.29498     35.10695         0.041546      0.171690     -0.363959
     14.55512      0.75711     35.57439         0.373019      0.688118      0.161785
      1.02266      3.48667     41.02753         0.119045     -0.081586     -0.495218
      0.92827     12.83228     41.34377         0.814177     -1.007775      0.192584
      9.78012      3.63285     41.15579         0.772611     -0.798749     -0.147799
      9.53039     12.90050     41.44215        -0.208815      0.282017     -1.720188
      3.84788      8.06273     41.17358        -1.286163     -1.497346     -1.351554
      3.67006     17.22596     41.06694        -1.152138     -1.221917     -1.412290
     12.75950      8.26012     41.31196         1.125069      1.041650      0.498563
     12.65476     17.36306     41.18500        -1.300383     -1.366490     -1.362848
      8.14078      5.29293     41.24741         0.498034     -0.119661     -0.933178
      7.99579     14.62636     41.01775         0.511207     -0.532308     -1.121851
     17.46829      5.06815     41.63796        -0.231008      0.258761      0.045815
     17.28920     14.42315     41.27995        -0.189358     -0.144653      0.449177
      5.37757      0.70545     41.31964         2.119589      1.796984     -0.978849
      5.23496      9.93359     41.22397        -0.466843     -0.367408     -1.430144
     14.42758      0.81699     41.20433        -0.243363     -0.546266     -1.585498
     14.31435     10.03560     41.28038        -0.748734     -0.986669     -0.106923
      0.82731      3.68697     47.03596         0.022036     -0.029599     -0.104563
      0.82485     12.71837     47.03596         0.009501     -0.011391     -0.093122
      9.85771      3.68697     47.03596         0.020635     -0.026181     -0.091205
      9.85525     12.71837     47.03596         0.020062     -0.013527     -0.087599
      3.68432      8.20234     47.03465        -0.009797     -0.010156     -0.075859
      3.68186     17.23373     47.03465        -0.008590     -0.005738     -0.074922
     12.71472      8.20234     47.03465         0.008491      0.005986     -0.075531
     12.71226     17.23373     47.03465        -0.008798     -0.015583     -0.073274
      8.20068      5.34457     47.03603        -0.020050      0.014393     -0.094928
      8.19822     14.37597     47.03603        -0.022639      0.019510     -0.094804
     17.23108      5.34457     47.03603        -0.012118      0.009392     -0.109699
     17.22862     14.37597     47.03603        -0.028256      0.021433     -0.087668
      5.34365      0.82909     47.03465         0.010888      0.011687     -0.085547
      5.34119      9.86049     47.03465         0.010047      0.013582     -0.071733
     14.37405      0.82909     47.03465         0.012394      0.007650     -0.074431
     14.37159      9.86049     47.03465         0.026977      0.033512     -0.077001
     13.99935      9.41805     34.48327         0.364104      0.312763      0.509139
      9.16147     17.87132     34.58126        -0.095188     -0.019740      0.008551
      8.25001      8.61507     34.66224         0.081691      0.059733      0.004884
     17.96710      0.19119     34.45000         0.014664     -0.000236      0.065131
      0.62997      8.86482     34.87124        -0.107697      0.057363     -0.183257
      4.42809      4.45072     34.70903         0.094735     -0.002876     -0.004091
      4.31849     13.92478     34.45785        -0.055747     -0.028696      0.024654
     13.42253      4.09109     34.65744        -0.032930     -0.042470      0.091584
     12.91991     14.25188     34.04358         0.119557      0.038940      0.262681
      0.03464     18.00533     40.88001         0.012918     -0.024722      0.008975
     18.05321      9.13751     41.01920         0.032288     -0.031863     -0.041485
      8.94631      0.03231     40.93906         0.073311      0.059317     -0.045217
      8.94262      9.00699     40.94543         0.044622      0.017711     -0.098144
      4.60039      4.32670     40.97159         0.003849      0.026481      0.025089
      4.56216     13.61203     40.86523        -0.066082     -0.042365      0.023651
     13.43443      4.51373     40.96045        -0.018213      0.016666     -0.035968
     13.66944     13.65220     40.85297        -0.033843      0.005460     -0.035954
      2.68880      1.90097     38.11524        -0.101733     -0.046776     -0.070194
      2.72674     10.96442     38.06833        -0.113022      0.006180      0.005413
     11.67546      1.93146     38.14823        -0.096208     -0.022742     -0.061998
     11.01814     11.56404     38.42593         0.293668     -0.205969     -0.167691
      6.54954      7.01792     38.29250        -0.023508     -0.013160     -0.008409
      6.52525     16.08176     38.03541         0.008850     -0.030205     -0.064939
     16.06506      6.53882     38.50140        -0.053651      0.196264     -0.220519
     15.55396     16.10092     38.01711         0.027094     -0.017652     -0.040597
      2.12009      6.49658     38.24389        -0.041341      0.056998      0.049486
      2.07734     15.73429     38.01822        -0.010699      0.031336     -0.035096
     11.14023      6.68510     37.90977         0.010152     -0.037747      0.005747
     11.16424     15.64470     38.28048        -0.013921      0.034069     -0.034003
      7.18580      2.55535     38.04785        -0.048196      0.002578     -0.042347
      6.93655     11.55588     37.96020        -0.108093      0.009189     -0.061197
     15.99596      2.47085     38.33185         0.087559     -0.035290     -0.040860
     16.52045     12.01205     38.39359        -0.108511     -0.220367     -0.372874
      0.00000      0.00000     47.17356         0.000728      0.000467      0.361193
     -0.00246      9.03140     47.17356        -0.003167      0.002617      0.546390
      9.03040      0.00000     47.17356        -0.002912     -0.002114      0.484115
      9.02794      9.03140     47.17356        -0.001795      0.002153      0.513410
      4.51398      4.51570     47.17425        -0.001472     -0.008770      0.489308
      4.51152     13.54710     47.17425        -0.000325      0.003906      0.370129
     13.54438      4.51570     47.17425         0.003293     -0.004081      0.462644
     13.54192     13.54710     47.17425         0.002993      0.000373      0.251885
      2.45192      2.06295     44.04013        -0.001998     -0.055704      0.011164
      2.44946     11.09435     44.04013         0.060116     -0.024054      0.050400
     11.48232      2.06295     44.04013        -0.004503     -0.056046     -0.028933
     11.47986     11.09435     44.04013         0.061861      0.041961     -0.034525
      6.57602      6.96845     44.04013        -0.086431     -0.006279      0.009794
      6.57356     15.99985     44.04013        -0.029179      0.012012      0.037412
     15.60642      6.96845     44.04013        -0.070035      0.059717     -0.011081
     15.60396     15.99985     44.04013        -0.039642      0.015469      0.025881
      2.06108      6.57881     44.04000         0.027917     -0.028189     -0.018550
      2.05862     15.61021     44.04000         0.023350      0.048045     -0.021894
     11.09148      6.57881     44.04000         0.008288     -0.022622      0.026051
     11.08902     15.61021     44.04000         0.005827     -0.017716     -0.035291
      6.96686      2.45259     44.04007         0.058682      0.037475      0.018926
      6.96440     11.48399     44.04007        -0.025161      0.053213      0.015845
     15.99726      2.45259     44.04007         0.044063     -0.009242      0.019827
     15.99481     11.48399     44.04007         0.039637      0.104242      0.024390
      2.43163      2.08322     50.06849        -0.006098     -0.027128      0.017785
      2.42917     11.11462     50.06849         0.020408      0.002819      0.019809
     11.46203      2.08322     50.06849         0.008716     -0.014344      0.020211
     11.45957     11.11462     50.06849         0.032687      0.012581      0.019924
      6.59631      6.94818     50.06849        -0.011275      0.008862      0.021049
      6.59385     15.97958     50.06849        -0.016469      0.004296      0.018917
     15.62671      6.94818     50.06849        -0.012551      0.006253      0.019341
     15.62425     15.97958     50.06849        -0.016072      0.004474      0.018220
      2.08113      6.59901     50.06905        -0.010619     -0.011303      0.020189
      2.07867     15.63041     50.06905        -0.015277     -0.005269      0.018941
     11.11153      6.59901     50.06905        -0.006027     -0.013095      0.021527
     11.10907     15.63041     50.06905         0.007160     -0.027177      0.018900
      6.94681      2.43239     50.06905         0.013891      0.002809      0.019116
      6.94435     11.46379     50.06905        -0.001280      0.023216      0.021239
     15.97721      2.43239     50.06905         0.023352     -0.004089      0.019513
     15.97475     11.46379     50.06905        -0.011458      0.033110      0.018646
     17.96678      0.09054     37.74506         0.088676      0.071961      0.013163
      0.15993      9.12070     37.91028        -0.005944     -0.005232     -0.029499
      9.04400     17.97300     37.68718         0.082223      0.043828      0.127177
      8.94389      9.04533     37.68280        -0.003270     -0.084921      0.046586
      4.54470      4.50987     37.82256         0.112795     -0.025515      0.030279
      4.39316     13.66642     37.70633         0.050788      0.002997     -0.018521
     13.58223      4.58053     37.83686        -0.099778      0.011028      0.026087
     13.54815     13.63756     37.79655        -0.054815      0.012764     -0.002490
      0.00001      0.00001     44.04300        -0.030092     -0.050749      0.106075
     -0.00245      9.03141     44.04300         0.080192     -0.075910      0.250623
      9.03041      0.00001     44.04300         0.023693     -0.019731      0.082920
      9.02795      9.03141     44.04300         0.038547     -0.028993      0.005106
      4.51397      4.51569     44.04275         0.000088      0.067358      0.172601
      4.51151     13.54709     44.04275        -0.036932     -0.019998      0.070817
     13.54437      4.51569     44.04275        -0.048739      0.041559      0.170640
     13.54191     13.54709     44.04275        -0.110613      0.016900      0.197656
      0.00000      0.00000     50.44728         0.008400      0.016145     -0.612862
     -0.00246      9.03140     50.44728         0.006942     -0.017495     -0.661647
      9.03040      0.00000     50.44728        -0.006122      0.018073     -0.646342
      9.02794      9.03140     50.44728        -0.009223     -0.017224     -0.657913
      4.51397      4.51570     50.44728         0.006955      0.013800     -0.646771
      4.51151     13.54710     50.44728         0.007854     -0.013659     -0.617761
     13.54437      4.51570     50.44728        -0.008826      0.012000     -0.642338
     13.54191     13.54710     50.44728        -0.006172     -0.013592     -0.583716
 -----------------------------------------------------------------------------------
    total drift:                               -0.004059      0.059039     -0.017014


--------------------------------------------------------------------------------------------------------



  FREE ENERGIE OF THE ION-ELECTRON SYSTEM (eV)
  ---------------------------------------------------
  free  energy   TOTEN  =     -1574.09604436 eV

  energy  without entropy=    -1574.09604436  energy(sigma->0) =    -1574.09604436
 


--------------------------------------------------------------------------------------------------------


    POTLOK:  cpu time    0.5009: real time    0.5008


--------------------------------------------------------------------------------------------------------


     LOOP+:  cpu time  323.1333: real time  323.4235
 vacuum level on the upper side and lower side of the slab         2.300         1.604
    4ORBIT:  cpu time    0.0000: real time    0.0000

 total amount of memory used by VASP MPI-rank0  8653587. kBytes
=======================================================================

   base      :      30000. kBytes
   nonlr-proj:      53625. kBytes
   fftplans  :     249280. kBytes
   grid      :     701440. kBytes
   one-center:       2636. kBytes
   wavefun   :    7616606. kBytes
 
  
  
 General timing and accounting informations for this job:
 ========================================================
  
                  Total CPU time used (sec):      534.114
                            User time (sec):      428.753
                          System time (sec):      105.361
                         Elapsed time (sec):      537.243
  
                   Maximum memory used (kb):    10308156.
                   Average memory used (kb):          N/A
  
                          Minor page faults:      3756689
                          Major page faults:           12
                 Voluntary context switches:        11281
