<?xml version="1.0" encoding="ISO-8859-1"?>
<modeling>
 <generator>
  <i name="program" type="string">vasp </i>
  <i name="version" type="string">6.2.1  </i>
  <i name="subversion" type="string">16May21 (build Nov 15 2021 14:57:28) complex                          parallel </i>
  <i name="platform" type="string">LinuxPGI </i>
  <i name="date" type="string">2023 07 30 </i>
  <i name="time" type="string">10:55:55 </i>
 </generator>
 <incar>
  <i type="string" name="SYSTEM">PSC</i>
  <i type="int" name="ISTART">     1</i>
  <i type="string" name="PREC">Normal</i>
  <i name="BMIX">      0.01000000</i>
  <i name="AMIN">      0.01000000</i>
  <i type="int" name="ICHARG">     1</i>
  <i type="int" name="NELM">   600</i>
  <i type="int" name="ISYM">     0</i>
  <i name="ENCUT">    500.00000000</i>
  <i type="string" name="LREAL">Auto</i>
  <i type="int" name="ISMEAR">     0</i>
  <i name="SIGMA">      0.05000000</i>
  <i type="logical" name="LWAVE"> F  </i>
  <i type="logical" name="LVTOT"> T  </i>
  <i type="logical" name="GGA_COMPAT"> F  </i>
  <i type="logical" name="LDIPOL"> T  </i>
  <i type="int" name="IDIPOL">     3</i>
  <i type="int" name="IVDW">    12</i>
 </incar>
 <primitive_cell>
  <structure name="primitive_cell" >
   <crystal>
    <varray name="basis" >
     <v>      18.06080055       0.00000000       0.00000000 </v>
     <v>      -0.00491865      18.06279945       0.00000000 </v>
     <v>       0.00000000       0.00000000      62.48749924 </v>
    </varray>
    <i name="volume">  20385.21054034 </i>
    <varray name="rec_basis" >
     <v>       0.05536853       0.00001508      -0.00000000 </v>
     <v>       0.00000000       0.05536240       0.00000000 </v>
     <v>       0.00000000      -0.00000000       0.01600320 </v>
    </varray>
   </crystal>
   <varray name="positions" >
    <v>       0.42483112       0.26001768       0.58115915 </v>
    <v>       0.41466641       0.73940279       0.57746114 </v>
    <v>       0.93481889       0.28817050       0.58180869 </v>
    <v>       0.94475436       0.81031802       0.57942247 </v>
    <v>       0.31209527       0.06150864       0.57882555 </v>
    <v>       0.30420224       0.57954555       0.57513243 </v>
    <v>       0.78722449       0.07570752       0.58124077 </v>
    <v>       0.10488896       0.20007662       0.56433181 </v>
    <v>       0.08457367       0.67522665       0.56487745 </v>
    <v>       0.60175889       0.19586769       0.56346756 </v>
    <v>       0.60725543       0.74267202       0.56326079 </v>
    <v>       0.37003583       0.01806007       0.56076188 </v>
    <v>       0.27008012       0.61372219       0.55151729 </v>
    <v>       0.85678579       0.05540664       0.56326384 </v>
    <v>       0.06894874       0.25238976       0.58513596 </v>
    <v>       0.00962440       0.69064596       0.58247734 </v>
    <v>       0.53487743       0.17857106       0.58231343 </v>
    <v>       0.54450062       0.69705153       0.58088675 </v>
    <v>       0.26897700       0.44619592       0.58356014 </v>
    <v>       0.17588880       0.02414766       0.57671349 </v>
    <v>       0.67482613       0.99253682       0.58000865 </v>
    <v>       0.42090396       0.32711485       0.56107255 </v>
    <v>       0.39438265       0.80440758       0.55773228 </v>
    <v>       0.88900712       0.25385986       0.55916024 </v>
    <v>       0.97628625       0.87097973       0.55942683 </v>
    <v>       0.21311635       0.40200543       0.56521589 </v>
    <v>       0.15338902       0.96101657       0.55687426 </v>
    <v>       0.67993921       0.91967818       0.56170860 </v>
    <v>       0.53223267       0.28971237       0.54679064 </v>
    <v>       0.51934284       0.80930167       0.54634426 </v>
    <v>       0.99376603       0.19976239       0.54569050 </v>
    <v>       0.06770094       0.78810165       0.54797630 </v>
    <v>       0.20714675       0.50472402       0.54289124 </v>
    <v>       0.27404431       0.95047369       0.54482021 </v>
    <v>       0.79479479       0.95497690       0.54894598 </v>
    <v>       0.43640628       0.28440156       0.67542220 </v>
    <v>       0.43098619       0.82104794       0.67171766 </v>
    <v>       0.97273162       0.27387198       0.68246798 </v>
    <v>       0.93408715       0.78615299       0.67514224 </v>
    <v>       0.29714240       0.04692897       0.67710809 </v>
    <v>       0.29825593       0.55058474       0.67549399 </v>
    <v>       0.79727904       0.05619118       0.67496941 </v>
    <v>       0.80707829       0.55243123       0.67643247 </v>
    <v>       0.08344364       0.16761074       0.64401181 </v>
    <v>       0.09689326       0.68825390       0.65393469 </v>
    <v>       0.58100865       0.17444316       0.64956480 </v>
    <v>       0.56138445       0.67516646       0.65642292 </v>
    <v>       0.18222726       0.41013910       0.64926188 </v>
    <v>       0.17285987       0.92133673       0.64628185 </v>
    <v>       0.67203694       0.42606724       0.65263554 </v>
    <v>       0.66727907       0.92661059       0.64964239 </v>
    <v>       0.07146879       0.17825166       0.67159453 </v>
    <v>       0.03736435       0.68775259       0.67591748 </v>
    <v>       0.53498524       0.18319409       0.67376245 </v>
    <v>       0.52309133       0.71825889       0.67889006 </v>
    <v>       0.21222994       0.43534380       0.67454294 </v>
    <v>       0.18809634       0.94742959       0.67250920 </v>
    <v>       0.71130993       0.44559931       0.67704814 </v>
    <v>       0.68856915       0.96248090       0.67463768 </v>
    <v>       0.42422698       0.33385550       0.65165439 </v>
    <v>       0.41677162       0.84008568       0.64473326 </v>
    <v>       0.92947829       0.31826574       0.66052817 </v>
    <v>       0.93530683       0.84142785       0.65222176 </v>
    <v>       0.33865924       0.07156089       0.65345998 </v>
    <v>       0.31522309       0.59055022       0.65088867 </v>
    <v>       0.83772807       0.07221588       0.65024908 </v>
    <v>       0.81696850       0.59430567       0.65139359 </v>
    <v>       0.99547021       0.25496412       0.63570149 </v>
    <v>       0.03676838       0.78587707       0.63745459 </v>
    <v>       0.51610065       0.26893085       0.63375725 </v>
    <v>       0.49733675       0.75094901       0.63300558 </v>
    <v>       0.26475696       0.99671541       0.63239730 </v>
    <v>       0.24482226       0.50687468       0.63239870 </v>
    <v>       0.76044837       0.99282309       0.63248503 </v>
    <v>       0.73311385       0.51701644       0.63472211 </v>
    <v>       0.44874502       0.30128397       0.76888902 </v>
    <v>       0.44874501       0.80128391       0.76888902 </v>
    <v>       0.94874497       0.30128397       0.76888902 </v>
    <v>       0.94874501       0.80128391       0.76888902 </v>
    <v>       0.30127600       0.05129450       0.76887296 </v>
    <v>       0.30127601       0.55129450       0.76887296 </v>
    <v>       0.80127594       0.05129450       0.76887296 </v>
    <v>       0.80127598       0.55129450       0.76887296 </v>
    <v>       0.07877100       0.17118050       0.74344197 </v>
    <v>       0.07877101       0.67118045       0.74344197 </v>
    <v>       0.57877100       0.17118050       0.74344197 </v>
    <v>       0.57877099       0.67118045       0.74344197 </v>
    <v>       0.17119950       0.42117448       0.74342103 </v>
    <v>       0.17119950       0.92117451       0.74342103 </v>
    <v>       0.67119951       0.42117448       0.74342103 </v>
    <v>       0.67119950       0.92117451       0.74342103 </v>
    <v>       0.05125600       0.19871499       0.76888902 </v>
    <v>       0.05125600       0.69871493       0.76888902 </v>
    <v>       0.55125603       0.19871499       0.76888902 </v>
    <v>       0.55125602       0.69871493       0.76888902 </v>
    <v>       0.19872349       0.44870397       0.76887205 </v>
    <v>       0.19872349       0.94870397       0.76887205 </v>
    <v>       0.69872352       0.44870397       0.76887205 </v>
    <v>       0.69872351       0.94870397       0.76887205 </v>
    <v>       0.42123152       0.32881747       0.74344197 </v>
    <v>       0.42123151       0.82881744       0.74344197 </v>
    <v>       0.92123147       0.32881747       0.74344197 </v>
    <v>       0.92123151       0.82881744       0.74344197 </v>
    <v>       0.32880050       0.07882500       0.74342103 </v>
    <v>       0.32880049       0.57882496       0.74342103 </v>
    <v>       0.82880048       0.07882500       0.74342103 </v>
    <v>       0.82880052       0.57882496       0.74342103 </v>
    <v>       0.00000350       0.25000148       0.72582199 </v>
    <v>       0.00000350       0.75000145       0.72582199 </v>
    <v>       0.50000351       0.25000148       0.72582199 </v>
    <v>       0.50000350       0.75000145       0.72582199 </v>
    <v>       0.25000050       0.00000000       0.72580398 </v>
    <v>       0.25000052       0.50000000       0.72580398 </v>
    <v>       0.75000050       0.00000000       0.72580398 </v>
    <v>       0.75000049       0.50000000       0.72580398 </v>
    <v>       0.78598119       0.50849182       0.51852772 </v>
    <v>       0.87134428       0.50628224       0.53202200 </v>
    <v>       0.75238854       0.62781775       0.53886352 </v>
    <v>       0.76781157       0.62765117       0.56653171 </v>
    <v>       0.67927653       0.45404710       0.55812768 </v>
    <v>       0.67048973       0.55013728       0.56371724 </v>
    <v>       0.80023708       0.42820574       0.57089763 </v>
    <v>       0.86685938       0.50152923       0.57156519 </v>
    <v>       0.86195283       0.38019143       0.54223449 </v>
    <v>       0.76474918       0.37715923       0.53820927 </v>
    <v>       0.77638904       0.38104487       0.49953787 </v>
    <v>       0.86460900       0.41971109       0.49999789 </v>
    <v>       0.89204999       0.61065828       0.53297568 </v>
    <v>       0.90669962       0.60996394       0.56133224 </v>
    <v>       0.86746683       0.68960072       0.54852408 </v>
    <v>       0.59675972       0.52281774       0.53366320 </v>
    <v>       0.66734592       0.48325685       0.51817926 </v>
    <v>       0.66927311       0.58085541       0.52353599 </v>
    <v>       0.72421641       0.48214308       0.59659729 </v>
    <v>       0.75084496       0.57456614       0.59306796 </v>
    <v>       0.81347322       0.51130225       0.60577558 </v>
    <v>       0.83461092       0.26358831       0.51757190 </v>
    <v>       0.84527714       0.27776032       0.48999403 </v>
    <v>       0.93966275       0.17446450       0.50274710 </v>
    <v>       0.97378332       0.40742871       0.51443669 </v>
    <v>       0.07359813       0.15168071       0.50352799 </v>
    <v>       0.10702869       0.38435453       0.51613021 </v>
    <v>       0.15897535       0.25914248       0.51125427 </v>
    <v>       0.99699741       0.22697680       0.56093617 </v>
    <v>       0.03029383       0.77251223       0.56110893 </v>
    <v>       0.51089172       0.25995147       0.56069583 </v>
    <v>       0.50213361       0.77177797       0.55924046 </v>
    <v>       0.23925169       0.50714686       0.55738663 </v>
    <v>       0.26248567       0.98741587       0.55791664 </v>
    <v>       0.76854477       0.98616625       0.56157027 </v>
    <v>       0.00656066       0.24304018       0.65249129 </v>
    <v>       0.01568505       0.76431475       0.65294639 </v>
    <v>       0.50281335       0.25412197       0.65038973 </v>
    <v>       0.48955506       0.75780912       0.65037844 </v>
    <v>       0.24840604       0.49982788       0.64976918 </v>
    <v>       0.25569819       0.99640049       0.64996630 </v>
    <v>       0.74435026       0.51052533       0.65156013 </v>
    <v>       0.75250559       0.99895370       0.64975752 </v>
    <v>       0.49998898       0.24999498       0.74327702 </v>
    <v>       0.49998903       0.74999496       0.74327702 </v>
    <v>       0.99998898       0.24999498       0.74327702 </v>
    <v>       0.99998903       0.74999496       0.74327702 </v>
    <v>       0.25000050       0.00000100       0.74325596 </v>
    <v>       0.25000052       0.50000100       0.74325596 </v>
    <v>       0.75000050       0.00000100       0.74325596 </v>
    <v>       0.75000049       0.50000100       0.74325596 </v>
    <v>       0.94514417       0.29077429       0.50790057 </v>
    <v>       0.97594116       0.22079507       0.50538386 </v>
    <v>       0.99446614       0.35037873       0.51228777 </v>
    <v>       0.05241804       0.20807629       0.50615162 </v>
    <v>       0.07030293       0.33802351       0.51283237 </v>
    <v>       0.09995484       0.26774903       0.50982185 </v>
    <v>       0.81330851       0.48702053       0.53282318 </v>
    <v>       0.78866447       0.60493132       0.55149617 </v>
    <v>       0.69208079       0.51040162       0.55187216 </v>
    <v>       0.80730439       0.48880736       0.57228103 </v>
    <v>       0.81611423       0.40209073       0.53213219 </v>
    <v>       0.82907736       0.38007569       0.50823419 </v>
    <v>       0.86890758       0.62873928       0.54849514 </v>
    <v>       0.65610327       0.52577146       0.53039338 </v>
    <v>       0.77150745       0.51673840       0.59293079 </v>
    <v>       0.86197277       0.30140746       0.50568620 </v>
    <v>       0.05938973       0.22453142       0.57124170 </v>
    <v>       0.04162264       0.70821735       0.56994310 </v>
    <v>       0.54943010       0.20596558       0.56892397 </v>
    <v>       0.55365912       0.72903327       0.56768947 </v>
    <v>       0.44744406       0.28369394       0.56820984 </v>
    <v>       0.43186236       0.77197036       0.56557229 </v>
    <v>       0.93692336       0.25922701       0.56769771 </v>
    <v>       0.97818178       0.81896402       0.56652188 </v>
    <v>       0.23927414       0.44883670       0.56956930 </v>
    <v>       0.19388652       0.99060635       0.56429042 </v>
    <v>       0.70210827       0.96742708       0.56760095 </v>
    <v>       0.31671061       0.02610628       0.56598808 </v>
    <v>       0.27274017       0.56995511       0.56182349 </v>
    <v>       0.80590695       0.04191538       0.56930418 </v>
    <v>       0.05667586       0.19303025       0.65657175 </v>
    <v>       0.05159021       0.71042583       0.66163270 </v>
    <v>       0.54156570       0.20112327       0.65862435 </v>
    <v>       0.52787798       0.71420292       0.66320705 </v>
    <v>       0.21317301       0.44637189       0.65890907 </v>
    <v>       0.20346572       0.95367042       0.65720255 </v>
    <v>       0.70659950       0.45730017       0.66112357 </v>
    <v>       0.70093709       0.96126095       0.65909185 </v>
    <v>       0.45082302       0.29302918       0.66009064 </v>
    <v>       0.44293562       0.80975066       0.65641535 </v>
    <v>       0.96726994       0.28058521       0.66634061 </v>
    <v>       0.95749509       0.79850031       0.66061132 </v>
    <v>       0.29775901       0.03905558       0.66124652 </v>
    <v>       0.29000190       0.54994747       0.65971545 </v>
    <v>       0.79884638       0.04523036       0.65940118 </v>
    <v>       0.79271596       0.55559508       0.66061815 </v>
    <v>       0.04586250       0.20411950       0.75272599 </v>
    <v>       0.04586250       0.70411946       0.75272599 </v>
    <v>       0.54586251       0.20411950       0.75272599 </v>
    <v>       0.54586250       0.70411946       0.75272599 </v>
    <v>       0.20411900       0.45410100       0.75270499 </v>
    <v>       0.20411899       0.95410095       0.75270499 </v>
    <v>       0.70411898       0.45410100       0.75270499 </v>
    <v>       0.70411896       0.95410095       0.75270499 </v>
    <v>       0.45414002       0.29588849       0.75272697 </v>
    <v>       0.45414001       0.79588852       0.75272697 </v>
    <v>       0.95414002       0.29588849       0.75272697 </v>
    <v>       0.95414006       0.79588852       0.75272697 </v>
    <v>       0.29588249       0.04590050       0.75270499 </v>
    <v>       0.29588248       0.54590053       0.75270499 </v>
    <v>       0.79588244       0.04590050       0.75270499 </v>
    <v>       0.79588248       0.54590053       0.75270499 </v>
    <v>       0.77526537       0.52140583       0.55184268 </v>
    <v>       0.50752658       0.98939913       0.55341086 </v>
    <v>       0.45692064       0.47695074       0.55470671 </v>
    <v>       0.99481501       0.01058478       0.55131034 </v>
    <v>       0.03501398       0.49077783       0.55805144 </v>
    <v>       0.24524413       0.24640273       0.55545564 </v>
    <v>       0.23931829       0.77090955       0.55143592 </v>
    <v>       0.74324725       0.22649261       0.55463004 </v>
    <v>       0.71557113       0.78901853       0.54480629 </v>
    <v>       0.00218970       0.99681844       0.65421099 </v>
    <v>       0.99971762       0.50587433       0.65643849 </v>
    <v>       0.49534443       0.00178893       0.65515594 </v>
    <v>       0.49527539       0.49864885       0.65525795 </v>
    <v>       0.25478210       0.23953631       0.65567661 </v>
    <v>       0.25280531       0.75359465       0.65397455 </v>
    <v>       0.74391288       0.24989108       0.65549830 </v>
    <v>       0.75706256       0.75581881       0.65377835 </v>
    <v>       0.14890345       0.10524237       0.60996587 </v>
    <v>       0.15114096       0.60701646       0.60921517 </v>
    <v>       0.64648229       0.10693018       0.61049381 </v>
    <v>       0.61023284       0.64021280       0.61493781 </v>
    <v>       0.36274425       0.38852898       0.61280256 </v>
    <v>       0.36153579       0.89032502       0.60868833 </v>
    <v>       0.88959713       0.36200468       0.61614558 </v>
    <v>       0.86144278       0.89138562       0.60839549 </v>
    <v>       0.11748438       0.35966611       0.61202463 </v>
    <v>       0.11525633       0.87108818       0.60841313 </v>
    <v>       0.61691903       0.37010342       0.60667774 </v>
    <v>       0.61838350       0.86612815       0.61261014 </v>
    <v>       0.39790578       0.14147035       0.60888741 </v>
    <v>       0.38424088       0.63976117       0.60748472 </v>
    <v>       0.88570987       0.13679193       0.61343233 </v>
    <v>       0.91489419       0.66501595       0.61442038 </v>
    <v>       0.00000000       0.00000000       0.75492797 </v>
    <v>       0.00000000       0.50000000       0.75492797 </v>
    <v>       0.50000000       0.00000000       0.75492797 </v>
    <v>       0.49999999       0.50000000       0.75492797 </v>
    <v>       0.25000050       0.25000000       0.75493902 </v>
    <v>       0.25000051       0.74999997       0.75493902 </v>
    <v>       0.75000047       0.25000000       0.75493902 </v>
    <v>       0.75000046       0.74999997       0.75493902 </v>
    <v>       0.13579050       0.11421000       0.70478299 </v>
    <v>       0.13579050       0.61420998       0.70478299 </v>
    <v>       0.63579045       0.11421000       0.70478299 </v>
    <v>       0.63579049       0.61420998       0.70478299 </v>
    <v>       0.36420952       0.38578999       0.70478299 </v>
    <v>       0.36420950       0.88578996       0.70478299 </v>
    <v>       0.86420954       0.38578999       0.70478299 </v>
    <v>       0.86420953       0.88578996       0.70478299 </v>
    <v>       0.11421799       0.36421899       0.70478098 </v>
    <v>       0.11421799       0.86421899       0.70478098 </v>
    <v>       0.61421800       0.36421899       0.70478098 </v>
    <v>       0.61421799       0.86421899       0.70478098 </v>
    <v>       0.38578201       0.13578149       0.70478202 </v>
    <v>       0.38578200       0.63578149       0.70478202 </v>
    <v>       0.88578199       0.13578149       0.70478202 </v>
    <v>       0.88578203       0.63578149       0.70478202 </v>
    <v>       0.13466700       0.11533200       0.80125603 </v>
    <v>       0.13466699       0.61533199       0.80125603 </v>
    <v>       0.63466699       0.11533200       0.80125603 </v>
    <v>       0.63466698       0.61533199       0.80125603 </v>
    <v>       0.36533300       0.38466799       0.80125603 </v>
    <v>       0.36533299       0.88466796       0.80125603 </v>
    <v>       0.86533295       0.38466799       0.80125603 </v>
    <v>       0.86533294       0.88466796       0.80125603 </v>
    <v>       0.11532850       0.36533700       0.80126500 </v>
    <v>       0.11532850       0.86533698       0.80126500 </v>
    <v>       0.61532850       0.36533700       0.80126500 </v>
    <v>       0.61532849       0.86533698       0.80126500 </v>
    <v>       0.38467151       0.13466300       0.80126500 </v>
    <v>       0.38467150       0.63466297       0.80126500 </v>
    <v>       0.88467149       0.13466300       0.80126500 </v>
    <v>       0.88467153       0.63466297       0.80126500 </v>
    <v>       0.99479552       0.00501277       0.60404171 </v>
    <v>       0.00899279       0.50494387       0.60668586 </v>
    <v>       0.50102372       0.99502862       0.60311556 </v>
    <v>       0.49534625       0.50077095       0.60304536 </v>
    <v>       0.25170121       0.24967751       0.60528195 </v>
    <v>       0.24344897       0.75660597       0.60342190 </v>
    <v>       0.75209733       0.25358906       0.60551082 </v>
    <v>       0.75034674       0.75500784       0.60486585 </v>
    <v>       0.00000050       0.00000050       0.70482896 </v>
    <v>       0.00000050       0.50000048       0.70482896 </v>
    <v>       0.50000048       0.00000050       0.70482896 </v>
    <v>       0.50000046       0.50000048       0.70482896 </v>
    <v>       0.24999999       0.24999947       0.70482499 </v>
    <v>       0.25000001       0.74999950       0.70482499 </v>
    <v>       0.74999999       0.24999947       0.70482499 </v>
    <v>       0.74999998       0.74999950       0.70482499 </v>
    <v>       0.00000000       0.00000000       0.80731797 </v>
    <v>       0.00000000       0.50000000       0.80731797 </v>
    <v>       0.50000000       0.00000000       0.80731797 </v>
    <v>       0.49999999       0.50000000       0.80731797 </v>
    <v>       0.24999999       0.25000000       0.80731797 </v>
    <v>       0.25000001       0.74999997       0.80731797 </v>
    <v>       0.74999999       0.25000000       0.80731797 </v>
    <v>       0.74999998       0.74999997       0.80731797 </v>
   </varray>
  </structure>
  <varray name="primitive_index" >
   <v type="int" >        1 </v>
   <v type="int" >        2 </v>
   <v type="int" >        3 </v>
   <v type="int" >        4 </v>
   <v type="int" >        5 </v>
   <v type="int" >        6 </v>
   <v type="int" >        7 </v>
   <v type="int" >        8 </v>
   <v type="int" >        9 </v>
   <v type="int" >       10 </v>
   <v type="int" >       11 </v>
   <v type="int" >       12 </v>
   <v type="int" >       13 </v>
   <v type="int" >       14 </v>
   <v type="int" >       15 </v>
   <v type="int" >       16 </v>
   <v type="int" >       17 </v>
   <v type="int" >       18 </v>
   <v type="int" >       19 </v>
   <v type="int" >       20 </v>
   <v type="int" >       21 </v>
   <v type="int" >       22 </v>
   <v type="int" >       23 </v>
   <v type="int" >       24 </v>
   <v type="int" >       25 </v>
   <v type="int" >       26 </v>
   <v type="int" >       27 </v>
   <v type="int" >       28 </v>
   <v type="int" >       29 </v>
   <v type="int" >       30 </v>
   <v type="int" >       31 </v>
   <v type="int" >       32 </v>
   <v type="int" >       33 </v>
   <v type="int" >       34 </v>
   <v type="int" >       35 </v>
   <v type="int" >       36 </v>
   <v type="int" >       37 </v>
   <v type="int" >       38 </v>
   <v type="int" >       39 </v>
   <v type="int" >       40 </v>
   <v type="int" >       41 </v>
   <v type="int" >       42 </v>
   <v type="int" >       43 </v>
   <v type="int" >       44 </v>
   <v type="int" >       45 </v>
   <v type="int" >       46 </v>
   <v type="int" >       47 </v>
   <v type="int" >       48 </v>
   <v type="int" >       49 </v>
   <v type="int" >       50 </v>
   <v type="int" >       51 </v>
   <v type="int" >       52 </v>
   <v type="int" >       53 </v>
   <v type="int" >       54 </v>
   <v type="int" >       55 </v>
   <v type="int" >       56 </v>
   <v type="int" >       57 </v>
   <v type="int" >       58 </v>
   <v type="int" >       59 </v>
   <v type="int" >       60 </v>
   <v type="int" >       61 </v>
   <v type="int" >       62 </v>
   <v type="int" >       63 </v>
   <v type="int" >       64 </v>
   <v type="int" >       65 </v>
   <v type="int" >       66 </v>
   <v type="int" >       67 </v>
   <v type="int" >       68 </v>
   <v type="int" >       69 </v>
   <v type="int" >       70 </v>
   <v type="int" >       71 </v>
   <v type="int" >       72 </v>
   <v type="int" >       73 </v>
   <v type="int" >       74 </v>
   <v type="int" >       75 </v>
   <v type="int" >       76 </v>
   <v type="int" >       77 </v>
   <v type="int" >       78 </v>
   <v type="int" >       79 </v>
   <v type="int" >       80 </v>
   <v type="int" >       81 </v>
   <v type="int" >       82 </v>
   <v type="int" >       83 </v>
   <v type="int" >       84 </v>
   <v type="int" >       85 </v>
   <v type="int" >       86 </v>
   <v type="int" >       87 </v>
   <v type="int" >       88 </v>
   <v type="int" >       89 </v>
   <v type="int" >       90 </v>
   <v type="int" >       91 </v>
   <v type="int" >       92 </v>
   <v type="int" >       93 </v>
   <v type="int" >       94 </v>
   <v type="int" >       95 </v>
   <v type="int" >       96 </v>
   <v type="int" >       97 </v>
   <v type="int" >       98 </v>
   <v type="int" >       99 </v>
   <v type="int" >      100 </v>
   <v type="int" >      101 </v>
   <v type="int" >      102 </v>
   <v type="int" >      103 </v>
   <v type="int" >      104 </v>
   <v type="int" >      105 </v>
   <v type="int" >      106 </v>
   <v type="int" >      107 </v>
   <v type="int" >      108 </v>
   <v type="int" >      109 </v>
   <v type="int" >      110 </v>
   <v type="int" >      111 </v>
   <v type="int" >      112 </v>
   <v type="int" >      113 </v>
   <v type="int" >      114 </v>
   <v type="int" >      115 </v>
   <v type="int" >      116 </v>
   <v type="int" >      117 </v>
   <v type="int" >      118 </v>
   <v type="int" >      119 </v>
   <v type="int" >      120 </v>
   <v type="int" >      121 </v>
   <v type="int" >      122 </v>
   <v type="int" >      123 </v>
   <v type="int" >      124 </v>
   <v type="int" >      125 </v>
   <v type="int" >      126 </v>
   <v type="int" >      127 </v>
   <v type="int" >      128 </v>
   <v type="int" >      129 </v>
   <v type="int" >      130 </v>
   <v type="int" >      131 </v>
   <v type="int" >      132 </v>
   <v type="int" >      133 </v>
   <v type="int" >      134 </v>
   <v type="int" >      135 </v>
   <v type="int" >      136 </v>
   <v type="int" >      137 </v>
   <v type="int" >      138 </v>
   <v type="int" >      139 </v>
   <v type="int" >      140 </v>
   <v type="int" >      141 </v>
   <v type="int" >      142 </v>
   <v type="int" >      143 </v>
   <v type="int" >      144 </v>
   <v type="int" >      145 </v>
   <v type="int" >      146 </v>
   <v type="int" >      147 </v>
   <v type="int" >      148 </v>
   <v type="int" >      149 </v>
   <v type="int" >      150 </v>
   <v type="int" >      151 </v>
   <v type="int" >      152 </v>
   <v type="int" >      153 </v>
   <v type="int" >      154 </v>
   <v type="int" >      155 </v>
   <v type="int" >      156 </v>
   <v type="int" >      157 </v>
   <v type="int" >      158 </v>
   <v type="int" >      159 </v>
   <v type="int" >      160 </v>
   <v type="int" >      161 </v>
   <v type="int" >      162 </v>
   <v type="int" >      163 </v>
   <v type="int" >      164 </v>
   <v type="int" >      165 </v>
   <v type="int" >      166 </v>
   <v type="int" >      167 </v>
   <v type="int" >      168 </v>
   <v type="int" >      169 </v>
   <v type="int" >      170 </v>
   <v type="int" >      171 </v>
   <v type="int" >      172 </v>
   <v type="int" >      173 </v>
   <v type="int" >      174 </v>
   <v type="int" >      175 </v>
   <v type="int" >      176 </v>
   <v type="int" >      177 </v>
   <v type="int" >      178 </v>
   <v type="int" >      179 </v>
   <v type="int" >      180 </v>
   <v type="int" >      181 </v>
   <v type="int" >      182 </v>
   <v type="int" >      183 </v>
   <v type="int" >      184 </v>
   <v type="int" >      185 </v>
   <v type="int" >      186 </v>
   <v type="int" >      187 </v>
   <v type="int" >      188 </v>
   <v type="int" >      189 </v>
   <v type="int" >      190 </v>
   <v type="int" >      191 </v>
   <v type="int" >      192 </v>
   <v type="int" >      193 </v>
   <v type="int" >      194 </v>
   <v type="int" >      195 </v>
   <v type="int" >      196 </v>
   <v type="int" >      197 </v>
   <v type="int" >      198 </v>
   <v type="int" >      199 </v>
   <v type="int" >      200 </v>
   <v type="int" >      201 </v>
   <v type="int" >      202 </v>
   <v type="int" >      203 </v>
   <v type="int" >      204 </v>
   <v type="int" >      205 </v>
   <v type="int" >      206 </v>
   <v type="int" >      207 </v>
   <v type="int" >      208 </v>
   <v type="int" >      209 </v>
   <v type="int" >      210 </v>
   <v type="int" >      211 </v>
   <v type="int" >      212 </v>
   <v type="int" >      213 </v>
   <v type="int" >      214 </v>
   <v type="int" >      215 </v>
   <v type="int" >      216 </v>
   <v type="int" >      217 </v>
   <v type="int" >      218 </v>
   <v type="int" >      219 </v>
   <v type="int" >      220 </v>
   <v type="int" >      221 </v>
   <v type="int" >      222 </v>
   <v type="int" >      223 </v>
   <v type="int" >      224 </v>
   <v type="int" >      225 </v>
   <v type="int" >      226 </v>
   <v type="int" >      227 </v>
   <v type="int" >      228 </v>
   <v type="int" >      229 </v>
   <v type="int" >      230 </v>
   <v type="int" >      231 </v>
   <v type="int" >      232 </v>
   <v type="int" >      233 </v>
   <v type="int" >      234 </v>
   <v type="int" >      235 </v>
   <v type="int" >      236 </v>
   <v type="int" >      237 </v>
   <v type="int" >      238 </v>
   <v type="int" >      239 </v>
   <v type="int" >      240 </v>
   <v type="int" >      241 </v>
   <v type="int" >      242 </v>
   <v type="int" >      243 </v>
   <v type="int" >      244 </v>
   <v type="int" >      245 </v>
   <v type="int" >      246 </v>
   <v type="int" >      247 </v>
   <v type="int" >      248 </v>
   <v type="int" >      249 </v>
   <v type="int" >      250 </v>
   <v type="int" >      251 </v>
   <v type="int" >      252 </v>
   <v type="int" >      253 </v>
   <v type="int" >      254 </v>
   <v type="int" >      255 </v>
   <v type="int" >      256 </v>
   <v type="int" >      257 </v>
   <v type="int" >      258 </v>
   <v type="int" >      259 </v>
   <v type="int" >      260 </v>
   <v type="int" >      261 </v>
   <v type="int" >      262 </v>
   <v type="int" >      263 </v>
   <v type="int" >      264 </v>
   <v type="int" >      265 </v>
   <v type="int" >      266 </v>
   <v type="int" >      267 </v>
   <v type="int" >      268 </v>
   <v type="int" >      269 </v>
   <v type="int" >      270 </v>
   <v type="int" >      271 </v>
   <v type="int" >      272 </v>
   <v type="int" >      273 </v>
   <v type="int" >      274 </v>
   <v type="int" >      275 </v>
   <v type="int" >      276 </v>
   <v type="int" >      277 </v>
   <v type="int" >      278 </v>
   <v type="int" >      279 </v>
   <v type="int" >      280 </v>
   <v type="int" >      281 </v>
   <v type="int" >      282 </v>
   <v type="int" >      283 </v>
   <v type="int" >      284 </v>
   <v type="int" >      285 </v>
   <v type="int" >      286 </v>
   <v type="int" >      287 </v>
   <v type="int" >      288 </v>
   <v type="int" >      289 </v>
   <v type="int" >      290 </v>
   <v type="int" >      291 </v>
   <v type="int" >      292 </v>
   <v type="int" >      293 </v>
   <v type="int" >      294 </v>
   <v type="int" >      295 </v>
   <v type="int" >      296 </v>
   <v type="int" >      297 </v>
   <v type="int" >      298 </v>
   <v type="int" >      299 </v>
   <v type="int" >      300 </v>
   <v type="int" >      301 </v>
   <v type="int" >      302 </v>
   <v type="int" >      303 </v>
   <v type="int" >      304 </v>
   <v type="int" >      305 </v>
   <v type="int" >      306 </v>
   <v type="int" >      307 </v>
   <v type="int" >      308 </v>
   <v type="int" >      309 </v>
   <v type="int" >      310 </v>
   <v type="int" >      311 </v>
   <v type="int" >      312 </v>
   <v type="int" >      313 </v>
   <v type="int" >      314 </v>
   <v type="int" >      315 </v>
   <v type="int" >      316 </v>
   <v type="int" >      317 </v>
   <v type="int" >      318 </v>
   <v type="int" >      319 </v>
   <v type="int" >      320 </v>
   <v type="int" >      321 </v>
   <v type="int" >      322 </v>
   <v type="int" >      323 </v>
   <v type="int" >      324 </v>
   <v type="int" >      325 </v>
  </varray>
 </primitive_cell>
 <kpoints>
  <generation param="Gamma">
   <v type="int" name="divisions">       3        3        1 </v>
   <v name="usershift">      0.00000000       0.00000000       0.00000000 </v>
   <v name="genvec1">      0.33333333       0.00000000       0.00000000 </v>
   <v name="genvec2">      0.00000000       0.33333333       0.00000000 </v>
   <v name="genvec3">      0.00000000       0.00000000       1.00000000 </v>
   <v name="shift">      0.00000000       0.00000000       0.00000000 </v>
  </generation>
  <varray name="kpointlist" >
   <v>       0.00000000       0.00000000       0.00000000 </v>
   <v>       0.33333333       0.00000000       0.00000000 </v>
   <v>       0.00000000       0.33333333       0.00000000 </v>
   <v>       0.33333333       0.33333333       0.00000000 </v>
   <v>      -0.33333333       0.33333333       0.00000000 </v>
  </varray>
  <varray name="weights" >
   <v>       0.11111111 </v>
   <v>       0.22222222 </v>
   <v>       0.22222222 </v>
   <v>       0.22222222 </v>
   <v>       0.22222222 </v>
  </varray>
 </kpoints>
 <parameters>
  <separator name="general" >
   <i type="string" name="SYSTEM">PSC</i>
   <i type="logical" name="LCOMPAT"> F  </i>
  </separator>
  <separator name="electronic" >
   <i type="string" name="PREC">normal</i>
   <i name="ENMAX">    500.00000000</i>
   <i name="ENAUG">    644.87300000</i>
   <i name="EDIFF">      0.00010000</i>
   <i type="int" name="IALGO">    38</i>
   <i type="int" name="IWAVPR">    10</i>
   <i type="int" name="NBANDS">   732</i>
   <i type="int" name="NBANDSLOW">    -1</i>
   <i type="int" name="NBANDSHIGH">    -1</i>
   <i name="NELECT">   1134.00000000</i>
   <i type="int" name="TURBO">     0</i>
   <i type="int" name="IRESTART">     0</i>
   <i type="int" name="NREBOOT">     0</i>
   <i type="int" name="NMIN">     0</i>
   <i name="EREF">      0.00000000</i>
   <separator name="electronic smearing" >
    <i type="int" name="ISMEAR">     0</i>
    <i name="SIGMA">      0.05000000</i>
    <i name="KSPACING">      0.50000000</i>
    <i type="logical" name="KGAMMA"> T  </i>
    <i type="logical" name="KBLOWUP"> T  </i>
   </separator>
   <separator name="electronic projectors" >
    <i type="logical" name="LREAL"> T  </i>
    <v name="ROPT">     -0.00050000     -0.00050000     -0.00050000     -0.00050000     -0.00050000</v>
    <i type="int" name="LMAXPAW">  -100</i>
    <i type="int" name="LMAXMIX">     2</i>
    <i type="logical" name="NLSPLINE"> F  </i>
   </separator>
   <separator name="electronic startup" >
    <i type="int" name="ISTART">     0</i>
    <i type="int" name="ICHARG">     1</i>
    <i type="int" name="INIWAV">     1</i>
   </separator>
   <separator name="electronic spin" >
    <i type="int" name="ISPIN">     1</i>
    <i type="logical" name="LNONCOLLINEAR"> F  </i>
    <v name="MAGMOM">      1.00000000      1.00000000      1.00000000      1.00000000      1.00000000      1.00000000      1.00000000      1.00000000      1.00000000      1.00000000      1.00000000      1.00000000      1.00000000      1.00000000      1.00000000      1.00000000      1.00000000      1.00000000      1.00000000      1.00000000
      1.00000000      1.00000000      1.00000000      1.00000000      1.00000000      1.00000000      1.00000000      1.00000000      1.00000000      1.00000000      1.00000000      1.00000000      1.00000000      1.00000000      1.00000000      1.00000000      1.00000000      1.00000000      1.00000000      1.00000000
      1.00000000      1.00000000      1.00000000      1.00000000      1.00000000      1.00000000      1.00000000      1.00000000      1.00000000      1.00000000      1.00000000      1.00000000      1.00000000      1.00000000      1.00000000      1.00000000      1.00000000      1.00000000      1.00000000      1.00000000
      1.00000000      1.00000000      1.00000000      1.00000000      1.00000000      1.00000000      1.00000000      1.00000000      1.00000000      1.00000000      1.00000000      1.00000000      1.00000000      1.00000000      1.00000000      1.00000000      1.00000000      1.00000000      1.00000000      1.00000000
      1.00000000      1.00000000      1.00000000      1.00000000      1.00000000      1.00000000      1.00000000      1.00000000      1.00000000      1.00000000      1.00000000      1.00000000      1.00000000      1.00000000      1.00000000      1.00000000      1.00000000      1.00000000      1.00000000      1.00000000
      1.00000000      1.00000000      1.00000000      1.00000000      1.00000000      1.00000000      1.00000000      1.00000000      1.00000000      1.00000000      1.00000000      1.00000000      1.00000000      1.00000000      1.00000000      1.00000000      1.00000000      1.00000000      1.00000000      1.00000000
      1.00000000      1.00000000      1.00000000      1.00000000      1.00000000      1.00000000      1.00000000      1.00000000      1.00000000      1.00000000      1.00000000      1.00000000      1.00000000      1.00000000      1.00000000      1.00000000      1.00000000      1.00000000      1.00000000      1.00000000
      1.00000000      1.00000000      1.00000000      1.00000000      1.00000000      1.00000000      1.00000000      1.00000000      1.00000000      1.00000000      1.00000000      1.00000000      1.00000000      1.00000000      1.00000000      1.00000000      1.00000000      1.00000000      1.00000000      1.00000000
      1.00000000      1.00000000      1.00000000      1.00000000      1.00000000      1.00000000      1.00000000      1.00000000      1.00000000      1.00000000      1.00000000      1.00000000      1.00000000      1.00000000      1.00000000      1.00000000      1.00000000      1.00000000      1.00000000      1.00000000
      1.00000000      1.00000000      1.00000000      1.00000000      1.00000000      1.00000000      1.00000000      1.00000000      1.00000000      1.00000000      1.00000000      1.00000000      1.00000000      1.00000000      1.00000000      1.00000000      1.00000000      1.00000000      1.00000000      1.00000000
      1.00000000      1.00000000      1.00000000      1.00000000      1.00000000      1.00000000      1.00000000      1.00000000      1.00000000      1.00000000      1.00000000      1.00000000      1.00000000      1.00000000      1.00000000      1.00000000      1.00000000      1.00000000      1.00000000      1.00000000
      1.00000000      1.00000000      1.00000000      1.00000000      1.00000000      1.00000000      1.00000000      1.00000000      1.00000000      1.00000000      1.00000000      1.00000000      1.00000000      1.00000000      1.00000000      1.00000000      1.00000000      1.00000000      1.00000000      1.00000000
      1.00000000      1.00000000      1.00000000      1.00000000      1.00000000      1.00000000      1.00000000      1.00000000      1.00000000      1.00000000      1.00000000      1.00000000      1.00000000      1.00000000      1.00000000      1.00000000      1.00000000      1.00000000      1.00000000      1.00000000
      1.00000000      1.00000000      1.00000000      1.00000000      1.00000000      1.00000000      1.00000000      1.00000000      1.00000000      1.00000000      1.00000000      1.00000000      1.00000000      1.00000000      1.00000000      1.00000000      1.00000000      1.00000000      1.00000000      1.00000000
      1.00000000      1.00000000      1.00000000      1.00000000      1.00000000      1.00000000      1.00000000      1.00000000      1.00000000      1.00000000      1.00000000      1.00000000      1.00000000      1.00000000      1.00000000      1.00000000      1.00000000      1.00000000      1.00000000      1.00000000
      1.00000000      1.00000000      1.00000000      1.00000000      1.00000000      1.00000000      1.00000000      1.00000000      1.00000000      1.00000000      1.00000000      1.00000000      1.00000000      1.00000000      1.00000000      1.00000000      1.00000000      1.00000000      1.00000000      1.00000000
      1.00000000      1.00000000      1.00000000      1.00000000      1.00000000</v>
    <i name="NUPDOWN">     -1.00000000</i>
    <i type="logical" name="LSORBIT"> F  </i>
    <v name="SAXIS">      0.00000000      0.00000000      1.00000000</v>
    <i type="logical" name="LSPIRAL"> F  </i>
    <v name="QSPIRAL">      0.00000000      0.00000000      0.00000000</v>
    <i type="logical" name="LZEROZ"> F  </i>
   </separator>
   <separator name="electronic exchange-correlation" >
    <i type="logical" name="LASPH"> F  </i>
    <i type="logical" name="LMETAGGA"> F  </i>
   </separator>
   <separator name="electronic convergence" >
    <i type="int" name="NELM">   600</i>
    <i type="int" name="NELMDL">     0</i>
    <i type="int" name="NELMIN">     2</i>
    <i name="ENINI">    500.00000000</i>
    <separator name="electronic convergence detail" >
     <i type="logical" name="LDIAG"> T  </i>
     <i type="logical" name="LSUBROT"> F  </i>
     <i name="WEIMIN">      0.00000000</i>
     <i name="EBREAK">      0.00000003</i>
     <i name="DEPER">      0.30000000</i>
     <i type="int" name="NRMM">     4</i>
     <i name="TIME">      0.40000000</i>
    </separator>
   </separator>
   <separator name="electronic mixer" >
    <i name="AMIX">      0.40000000</i>
    <i name="BMIX">      0.01000000</i>
    <i name="AMIN">      0.01000000</i>
    <i name="AMIX_MAG">      1.60000000</i>
    <i name="BMIX_MAG">      0.01000000</i>
    <separator name="electronic mixer details" >
     <i type="int" name="IMIX">     4</i>
     <i type="logical" name="MIXFIRST"> F  </i>
     <i type="int" name="MAXMIX">   -45</i>
     <i name="WC">    100.00000000</i>
     <i type="int" name="INIMIX">     1</i>
     <i type="int" name="MIXPRE">     1</i>
     <i type="int" name="MREMOVE">     5</i>
    </separator>
   </separator>
   <separator name="electronic dipolcorrection" >
    <i type="logical" name="LDIPOL"> T  </i>
    <i type="logical" name="LMONO"> F  </i>
    <i type="int" name="IDIPOL">     3</i>
    <i name="EPSILON">      1.00000000</i>
    <v name="DIPOL">   -100.00000000   -100.00000000   -100.00000000</v>
    <i name="EFIELD">      0.00000000</i>
   </separator>
  </separator>
  <separator name="grids" >
   <i type="int" name="NGX">   100</i>
   <i type="int" name="NGY">   100</i>
   <i type="int" name="NGZ">   350</i>
   <i type="int" name="NGXF">   200</i>
   <i type="int" name="NGYF">   200</i>
   <i type="int" name="NGZF">   700</i>
   <i type="logical" name="ADDGRID"> F  </i>
  </separator>
  <separator name="ionic" >
   <i type="int" name="NSW">     0</i>
   <i type="int" name="IBRION">    -1</i>
   <i type="int" name="MDALGO">     0</i>
   <i type="int" name="ISIF">     2</i>
   <i name="PSTRESS">      0.00000000</i>
   <i name="EDIFFG">      0.00100000</i>
   <i type="int" name="NFREE">     0</i>
   <i name="POTIM">      0.50000000</i>
   <i name="SMASS">     -3.00000000</i>
   <i name="SCALEE">      1.00000000</i>
  </separator>
  <separator name="ionic md" >
   <i name="TEBEG">      0.00010000</i>
   <i name="TEEND">      0.00010000</i>
   <i type="int" name="NBLOCK">     1</i>
   <i type="int" name="KBLOCK">     1</i>
   <i type="int" name="NPACO">   256</i>
   <i name="APACO">     16.00000000</i>
  </separator>
  <separator name="symmetry" >
   <i type="int" name="ISYM">     0</i>
   <i name="SYMPREC">      0.00001000</i>
  </separator>
  <separator name="dos" >
   <i type="int" name="LORBIT">     0</i>
   <v name="RWIGS">     -1.00000000     -1.00000000     -1.00000000     -1.00000000     -1.00000000</v>
   <i type="int" name="NEDOS">   301</i>
   <i name="EMIN">     10.00000000</i>
   <i name="EMAX">    -10.00000000</i>
   <i name="EFERMI">      0.00000000</i>
  </separator>
  <separator name="writing" >
   <i type="int" name="NWRITE">     2</i>
   <i type="logical" name="LWAVE"> F  </i>
   <i type="logical" name="LDOWNSAMPLE"> F  </i>
   <i type="logical" name="LCHARG"> T  </i>
   <i type="logical" name="LPARD"> F  </i>
   <i type="logical" name="LVTOT"> T  </i>
   <i type="logical" name="LVHAR"> F  </i>
   <i type="logical" name="LELF"> F  </i>
   <i type="logical" name="LOPTICS"> F  </i>
   <v name="STM">      0.00000000      0.00000000      0.00000000      0.00000000      0.00000000      0.00000000      0.00000000</v>
  </separator>
  <separator name="performance" >
   <i type="int" name="NPAR">     4</i>
   <i type="int" name="NSIM">     4</i>
   <i type="int" name="NBLK">    -1</i>
   <i type="logical" name="LPLANE"> T  </i>
   <i type="logical" name="LSCALAPACK"> T  </i>
   <i type="logical" name="LSCAAWARE"> F  </i>
   <i type="logical" name="LSCALU"> F  </i>
   <i type="logical" name="LASYNC"> F  </i>
   <i type="logical" name="LORBITALREAL"> F  </i>
  </separator>
  <separator name="miscellaneous" >
   <i type="int" name="IDIOT">     3</i>
   <i type="int" name="PHON_NSTRUCT">    -1</i>
   <i type="logical" name="LMUSIC"> F  </i>
   <v name="POMASS">      1.00000000     12.01100000     14.00100000    126.90400000    207.20000000</v>
   <v name="DARWINR">      0.00000000      0.00000000      0.00000000      0.00000000      0.00000000</v>
   <v name="DARWINV">      1.00000000      1.00000000      1.00000000      1.00000000      1.00000000</v>
   <i type="logical" name="LCORR"> T  </i>
  </separator>
  <i type="logical" name="GGA_COMPAT"> F  </i>
  <i type="logical" name="LBERRY"> F  </i>
  <i type="int" name="ICORELEVEL">     0</i>
  <i type="logical" name="LDAU"> F  </i>
  <i type="int" name="I_CONSTRAINED_M">     0</i>
  <separator name="electronic exchange-correlation" >
   <i type="string" name="GGA">--</i>
   <i type="int" name="VOSKOWN">     0</i>
   <i type="logical" name="LHFCALC"> F  </i>
   <i type="string" name="PRECFOCK"></i>
   <i type="logical" name="LSYMGRAD"> F  </i>
   <i type="logical" name="LHFONE"> F  </i>
   <i type="logical" name="LRHFCALC"> F  </i>
   <i type="logical" name="LTHOMAS"> F  </i>
   <i type="logical" name="LMODELHF"> F  </i>
   <i type="logical" name="LFOCKACE"> F  </i>
   <i name="ENCUT4O">     -1.00000000</i>
   <i type="int" name="EXXOEP">     0</i>
   <i type="int" name="FOURORBIT">     0</i>
   <i name="AEXX">      0.00000000</i>
   <i name="HFALPHA">      0.00000000</i>
   <i name="MCALPHA">      0.00000000</i>
   <i name="ALDAX">      1.00000000</i>
   <i name="AGGAX">      1.00000000</i>
   <i name="ALDAC">      1.00000000</i>
   <i name="AGGAC">      1.00000000</i>
   <i type="int" name="NKREDX">     1</i>
   <i type="int" name="NKREDY">     1</i>
   <i type="int" name="NKREDZ">     1</i>
   <i type="logical" name="SHIFTRED"> F  </i>
   <i type="logical" name="ODDONLY"> F  </i>
   <i type="logical" name="EVENONLY"> F  </i>
   <i type="int" name="LMAXFOCK">     0</i>
   <i type="int" name="NMAXFOCKAE">     0</i>
   <i type="logical" name="LFOCKAEDFT"> F  </i>
   <i name="HFSCREEN">      0.00000000</i>
   <i name="HFSCREENC">      0.00000000</i>
   <i type="int" name="NBANDSGWLOW">     0</i>
  </separator>
  <separator name="vdW DFT" >
   <i type="logical" name="LUSE_VDW"> F  </i>
   <i name="Zab_VDW">     -0.84910000</i>
   <i name="PARAM1">      0.12340000</i>
   <i name="PARAM2">      1.00000000</i>
   <i name="PARAM3">      0.00000000</i>
  </separator>
  <separator name="model GW" >
   <i type="int" name="MODEL_GW">     0</i>
   <i name="MODEL_EPS0">     37.63423484</i>
   <i name="MODEL_ALPHA">      1.00000000</i>
  </separator>
  <separator name="linear response parameters" >
   <i type="logical" name="LEPSILON"> F  </i>
   <i type="logical" name="LRPA"> F  </i>
   <i type="logical" name="LNABLA"> F  </i>
   <i type="logical" name="LVEL"> F  </i>
   <i type="int" name="KINTER">     0</i>
   <i name="CSHIFT">      0.10000000</i>
   <i name="OMEGAMAX">     -1.00000000</i>
   <i name="DEG_THRESHOLD">      0.00200000</i>
   <i name="RTIME">     -0.10000000</i>
   <i name="WPLASMAI">      0.00000000</i>
   <v name="DFIELD">      0.00000000      0.00000000      0.00000000</v>
   <v name="WPLASMA">      0.00000000      0.00000000      0.00000000      0.00000000      0.00000000      0.00000000      0.00000000      0.00000000      0.00000000</v>
  </separator>
  <separator name="orbital magnetization" >
   <i type="logical" name="NUCIND"> F  </i>
   <v name="MAGPOS">      0.00000000      0.00000000      0.00000000</v>
   <i type="logical" name="LNICSALL"> T  </i>
   <i type="logical" name="ORBITALMAG"> F  </i>
   <i type="logical" name="LMAGBLOCH"> F  </i>
   <i type="logical" name="LCHIMAG"> F  </i>
   <i type="logical" name="LGAUGE"> T  </i>
   <i type="int" name="MAGATOM">     0</i>
   <v name="MAGDIPOL">      0.00000000      0.00000000      0.00000000</v>
   <v name="AVECCONST">      0.00000000      0.00000000      0.00000000</v>
  </separator>
  <separator name="response functions" >
   <i type="logical" name="LFINITE_TEMPERATURE"> F  </i>
   <i type="logical" name="LADDER"> F  </i>
   <i type="logical" name="LRPAFORCE"> F  </i>
   <i type="logical" name="LFXC"> F  </i>
   <i type="logical" name="LHARTREE"> T  </i>
   <i type="int" name="IBSE">     0</i>
   <v type="int" name="KPOINT">    -1     0     0     0</v>
   <i type="logical" name="LTCTC"> F  </i>
   <i type="logical" name="LTCTE"> F  </i>
   <i type="logical" name="LTETE"> F  </i>
   <i type="logical" name="LTRIPLET"> F  </i>
   <i type="logical" name="LFXCEPS"> F  </i>
   <i type="logical" name="LFXHEG"> F  </i>
   <i type="int" name="NATURALO">     2</i>
   <i type="logical" name="LHOLEGF"> F  </i>
   <i type="logical" name="L2ORDER"> F  </i>
   <i type="logical" name="LDMP1"> F  </i>
   <i type="logical" name="LMP2LT"> F  </i>
   <i type="logical" name="LSMP2LT"> F  </i>
   <i type="logical" name="LGWLF"> F  </i>
   <i name="ENCUTGW">     -2.00000000</i>
   <i name="ENCUTGWSOFT">     -2.00000000</i>
   <i name="ENCUTLF">     -1.00000000</i>
   <i type="logical" name="LESF_SPLINES"> F  </i>
   <i type="int" name="LMAXMP2">    -1</i>
   <i name="SCISSOR">      0.00000000</i>
   <i type="int" name="NOMEGA">     0</i>
   <i type="int" name="NOMEGAR">     0</i>
   <i type="int" name="NBANDSGW">    -1</i>
   <i type="int" name="NBANDSO">    -1</i>
   <i type="int" name="NBANDSV">    -1</i>
   <i type="int" name="NELM">   600</i>
   <i type="int" name="NELMHF">     1</i>
   <i type="int" name="DIM">     3</i>
   <i type="int" name="IESPILON">     4</i>
   <i type="int" name="ANTIRES">     0</i>
   <i name="OMEGAMAX">    -30.00000000</i>
   <i name="OMEGAMIN">    -30.00000000</i>
   <i name="OMEGATL">   -200.00000000</i>
   <i type="int" name="OMEGAGRID">     0</i>
   <i name="CSHIFT">     -0.10000000</i>
   <i type="logical" name="LSELFENERGY"> F  </i>
   <i type="logical" name="LSPECTRAL"> F  </i>
   <i type="logical" name="LSPECTRALGW"> F  </i>
   <i type="logical" name="LSINGLES"> F  </i>
   <i type="logical" name="LFERMIGW"> F  </i>
   <i type="logical" name="ODDONLYGW"> F  </i>
   <i type="logical" name="EVENONLYGW"> F  </i>
   <i type="int" name="NKREDLFX">     1</i>
   <i type="int" name="NKREDLFY">     1</i>
   <i type="int" name="NKREDLFZ">     1</i>
   <i type="int" name="MAXMEM">  2800</i>
   <i type="int" name="TELESCOPE">     0</i>
   <i type="int" name="NTAUPAR">    -1</i>
   <i type="int" name="NOMEGAPAR">    -1</i>
   <i name="DAMP_NEWTON">      0.80000001</i>
   <i name="LAMBDA">      1.00000000</i>
  </separator>
  <separator name="External order field" >
   <i name="OFIELD_KAPPA">      0.00000000</i>
   <v name="OFIELD_K">      0.00000000      0.00000000      0.00000000</v>
   <i name="OFIELD_Q6_NEAR">      0.00000000</i>
   <i name="OFIELD_Q6_FAR">      0.00000000</i>
   <i name="OFIELD_A">      0.00000000</i>
  </separator>
 </parameters>
 <atominfo>
  <atoms>     325 </atoms>
  <types>       5 </types>
  <array name="atoms" >
   <dimension dim="1">ion</dimension>
   <field type="string">element</field>
   <field type="int">atomtype</field>
   <set>
    <rc><c>H </c><c>   1</c></rc>
    <rc><c>H </c><c>   1</c></rc>
    <rc><c>H </c><c>   1</c></rc>
    <rc><c>H </c><c>   1</c></rc>
    <rc><c>H </c><c>   1</c></rc>
    <rc><c>H </c><c>   1</c></rc>
    <rc><c>H </c><c>   1</c></rc>
    <rc><c>H </c><c>   1</c></rc>
    <rc><c>H </c><c>   1</c></rc>
    <rc><c>H </c><c>   1</c></rc>
    <rc><c>H </c><c>   1</c></rc>
    <rc><c>H </c><c>   1</c></rc>
    <rc><c>H </c><c>   1</c></rc>
    <rc><c>H </c><c>   1</c></rc>
    <rc><c>H </c><c>   1</c></rc>
    <rc><c>H </c><c>   1</c></rc>
    <rc><c>H </c><c>   1</c></rc>
    <rc><c>H </c><c>   1</c></rc>
    <rc><c>H </c><c>   1</c></rc>
    <rc><c>H </c><c>   1</c></rc>
    <rc><c>H </c><c>   1</c></rc>
    <rc><c>H </c><c>   1</c></rc>
    <rc><c>H </c><c>   1</c></rc>
    <rc><c>H </c><c>   1</c></rc>
    <rc><c>H </c><c>   1</c></rc>
    <rc><c>H </c><c>   1</c></rc>
    <rc><c>H </c><c>   1</c></rc>
    <rc><c>H </c><c>   1</c></rc>
    <rc><c>H </c><c>   1</c></rc>
    <rc><c>H </c><c>   1</c></rc>
    <rc><c>H </c><c>   1</c></rc>
    <rc><c>H </c><c>   1</c></rc>
    <rc><c>H </c><c>   1</c></rc>
    <rc><c>H </c><c>   1</c></rc>
    <rc><c>H </c><c>   1</c></rc>
    <rc><c>H </c><c>   1</c></rc>
    <rc><c>H </c><c>   1</c></rc>
    <rc><c>H </c><c>   1</c></rc>
    <rc><c>H </c><c>   1</c></rc>
    <rc><c>H </c><c>   1</c></rc>
    <rc><c>H </c><c>   1</c></rc>
    <rc><c>H </c><c>   1</c></rc>
    <rc><c>H </c><c>   1</c></rc>
    <rc><c>H </c><c>   1</c></rc>
    <rc><c>H </c><c>   1</c></rc>
    <rc><c>H </c><c>   1</c></rc>
    <rc><c>H </c><c>   1</c></rc>
    <rc><c>H </c><c>   1</c></rc>
    <rc><c>H </c><c>   1</c></rc>
    <rc><c>H </c><c>   1</c></rc>
    <rc><c>H </c><c>   1</c></rc>
    <rc><c>H </c><c>   1</c></rc>
    <rc><c>H </c><c>   1</c></rc>
    <rc><c>H </c><c>   1</c></rc>
    <rc><c>H </c><c>   1</c></rc>
    <rc><c>H </c><c>   1</c></rc>
    <rc><c>H </c><c>   1</c></rc>
    <rc><c>H </c><c>   1</c></rc>
    <rc><c>H </c><c>   1</c></rc>
    <rc><c>H </c><c>   1</c></rc>
    <rc><c>H </c><c>   1</c></rc>
    <rc><c>H </c><c>   1</c></rc>
    <rc><c>H </c><c>   1</c></rc>
    <rc><c>H </c><c>   1</c></rc>
    <rc><c>H </c><c>   1</c></rc>
    <rc><c>H </c><c>   1</c></rc>
    <rc><c>H </c><c>   1</c></rc>
    <rc><c>H </c><c>   1</c></rc>
    <rc><c>H </c><c>   1</c></rc>
    <rc><c>H </c><c>   1</c></rc>
    <rc><c>H </c><c>   1</c></rc>
    <rc><c>H </c><c>   1</c></rc>
    <rc><c>H </c><c>   1</c></rc>
    <rc><c>H </c><c>   1</c></rc>
    <rc><c>H </c><c>   1</c></rc>
    <rc><c>H </c><c>   1</c></rc>
    <rc><c>H </c><c>   1</c></rc>
    <rc><c>H </c><c>   1</c></rc>
    <rc><c>H </c><c>   1</c></rc>
    <rc><c>H </c><c>   1</c></rc>
    <rc><c>H </c><c>   1</c></rc>
    <rc><c>H </c><c>   1</c></rc>
    <rc><c>H </c><c>   1</c></rc>
    <rc><c>H </c><c>   1</c></rc>
    <rc><c>H </c><c>   1</c></rc>
    <rc><c>H </c><c>   1</c></rc>
    <rc><c>H </c><c>   1</c></rc>
    <rc><c>H </c><c>   1</c></rc>
    <rc><c>H </c><c>   1</c></rc>
    <rc><c>H </c><c>   1</c></rc>
    <rc><c>H </c><c>   1</c></rc>
    <rc><c>H </c><c>   1</c></rc>
    <rc><c>H </c><c>   1</c></rc>
    <rc><c>H </c><c>   1</c></rc>
    <rc><c>H </c><c>   1</c></rc>
    <rc><c>H </c><c>   1</c></rc>
    <rc><c>H </c><c>   1</c></rc>
    <rc><c>H </c><c>   1</c></rc>
    <rc><c>H </c><c>   1</c></rc>
    <rc><c>H </c><c>   1</c></rc>
    <rc><c>H </c><c>   1</c></rc>
    <rc><c>H </c><c>   1</c></rc>
    <rc><c>H </c><c>   1</c></rc>
    <rc><c>H </c><c>   1</c></rc>
    <rc><c>H </c><c>   1</c></rc>
    <rc><c>H </c><c>   1</c></rc>
    <rc><c>H </c><c>   1</c></rc>
    <rc><c>H </c><c>   1</c></rc>
    <rc><c>H </c><c>   1</c></rc>
    <rc><c>H </c><c>   1</c></rc>
    <rc><c>H </c><c>   1</c></rc>
    <rc><c>H </c><c>   1</c></rc>
    <rc><c>H </c><c>   1</c></rc>
    <rc><c>H </c><c>   1</c></rc>
    <rc><c>H </c><c>   1</c></rc>
    <rc><c>H </c><c>   1</c></rc>
    <rc><c>H </c><c>   1</c></rc>
    <rc><c>H </c><c>   1</c></rc>
    <rc><c>H </c><c>   1</c></rc>
    <rc><c>H </c><c>   1</c></rc>
    <rc><c>H </c><c>   1</c></rc>
    <rc><c>H </c><c>   1</c></rc>
    <rc><c>H </c><c>   1</c></rc>
    <rc><c>H </c><c>   1</c></rc>
    <rc><c>H </c><c>   1</c></rc>
    <rc><c>H </c><c>   1</c></rc>
    <rc><c>H </c><c>   1</c></rc>
    <rc><c>H </c><c>   1</c></rc>
    <rc><c>H </c><c>   1</c></rc>
    <rc><c>H </c><c>   1</c></rc>
    <rc><c>H </c><c>   1</c></rc>
    <rc><c>H </c><c>   1</c></rc>
    <rc><c>H </c><c>   1</c></rc>
    <rc><c>H </c><c>   1</c></rc>
    <rc><c>H </c><c>   1</c></rc>
    <rc><c>H </c><c>   1</c></rc>
    <rc><c>H </c><c>   1</c></rc>
    <rc><c>H </c><c>   1</c></rc>
    <rc><c>H </c><c>   1</c></rc>
    <rc><c>H </c><c>   1</c></rc>
    <rc><c>H </c><c>   1</c></rc>
    <rc><c>H </c><c>   1</c></rc>
    <rc><c>H </c><c>   1</c></rc>
    <rc><c>C </c><c>   2</c></rc>
    <rc><c>C </c><c>   2</c></rc>
    <rc><c>C </c><c>   2</c></rc>
    <rc><c>C </c><c>   2</c></rc>
    <rc><c>C </c><c>   2</c></rc>
    <rc><c>C </c><c>   2</c></rc>
    <rc><c>C </c><c>   2</c></rc>
    <rc><c>C </c><c>   2</c></rc>
    <rc><c>C </c><c>   2</c></rc>
    <rc><c>C </c><c>   2</c></rc>
    <rc><c>C </c><c>   2</c></rc>
    <rc><c>C </c><c>   2</c></rc>
    <rc><c>C </c><c>   2</c></rc>
    <rc><c>C </c><c>   2</c></rc>
    <rc><c>C </c><c>   2</c></rc>
    <rc><c>C </c><c>   2</c></rc>
    <rc><c>C </c><c>   2</c></rc>
    <rc><c>C </c><c>   2</c></rc>
    <rc><c>C </c><c>   2</c></rc>
    <rc><c>C </c><c>   2</c></rc>
    <rc><c>C </c><c>   2</c></rc>
    <rc><c>C </c><c>   2</c></rc>
    <rc><c>C </c><c>   2</c></rc>
    <rc><c>C </c><c>   2</c></rc>
    <rc><c>C </c><c>   2</c></rc>
    <rc><c>C </c><c>   2</c></rc>
    <rc><c>C </c><c>   2</c></rc>
    <rc><c>C </c><c>   2</c></rc>
    <rc><c>C </c><c>   2</c></rc>
    <rc><c>C </c><c>   2</c></rc>
    <rc><c>C </c><c>   2</c></rc>
    <rc><c>C </c><c>   2</c></rc>
    <rc><c>C </c><c>   2</c></rc>
    <rc><c>C </c><c>   2</c></rc>
    <rc><c>C </c><c>   2</c></rc>
    <rc><c>C </c><c>   2</c></rc>
    <rc><c>C </c><c>   2</c></rc>
    <rc><c>C </c><c>   2</c></rc>
    <rc><c>C </c><c>   2</c></rc>
    <rc><c>N </c><c>   3</c></rc>
    <rc><c>N </c><c>   3</c></rc>
    <rc><c>N </c><c>   3</c></rc>
    <rc><c>N </c><c>   3</c></rc>
    <rc><c>N </c><c>   3</c></rc>
    <rc><c>N </c><c>   3</c></rc>
    <rc><c>N </c><c>   3</c></rc>
    <rc><c>N </c><c>   3</c></rc>
    <rc><c>N </c><c>   3</c></rc>
    <rc><c>N </c><c>   3</c></rc>
    <rc><c>N </c><c>   3</c></rc>
    <rc><c>N </c><c>   3</c></rc>
    <rc><c>N </c><c>   3</c></rc>
    <rc><c>N </c><c>   3</c></rc>
    <rc><c>N </c><c>   3</c></rc>
    <rc><c>N </c><c>   3</c></rc>
    <rc><c>N </c><c>   3</c></rc>
    <rc><c>N </c><c>   3</c></rc>
    <rc><c>N </c><c>   3</c></rc>
    <rc><c>N </c><c>   3</c></rc>
    <rc><c>N </c><c>   3</c></rc>
    <rc><c>N </c><c>   3</c></rc>
    <rc><c>N </c><c>   3</c></rc>
    <rc><c>N </c><c>   3</c></rc>
    <rc><c>N </c><c>   3</c></rc>
    <rc><c>N </c><c>   3</c></rc>
    <rc><c>N </c><c>   3</c></rc>
    <rc><c>N </c><c>   3</c></rc>
    <rc><c>N </c><c>   3</c></rc>
    <rc><c>N </c><c>   3</c></rc>
    <rc><c>N </c><c>   3</c></rc>
    <rc><c>N </c><c>   3</c></rc>
    <rc><c>N </c><c>   3</c></rc>
    <rc><c>N </c><c>   3</c></rc>
    <rc><c>N </c><c>   3</c></rc>
    <rc><c>N </c><c>   3</c></rc>
    <rc><c>N </c><c>   3</c></rc>
    <rc><c>N </c><c>   3</c></rc>
    <rc><c>N </c><c>   3</c></rc>
    <rc><c>N </c><c>   3</c></rc>
    <rc><c>N </c><c>   3</c></rc>
    <rc><c>N </c><c>   3</c></rc>
    <rc><c>N </c><c>   3</c></rc>
    <rc><c>N </c><c>   3</c></rc>
    <rc><c>N </c><c>   3</c></rc>
    <rc><c>N </c><c>   3</c></rc>
    <rc><c>N </c><c>   3</c></rc>
    <rc><c>I </c><c>   4</c></rc>
    <rc><c>I </c><c>   4</c></rc>
    <rc><c>I </c><c>   4</c></rc>
    <rc><c>I </c><c>   4</c></rc>
    <rc><c>I </c><c>   4</c></rc>
    <rc><c>I </c><c>   4</c></rc>
    <rc><c>I </c><c>   4</c></rc>
    <rc><c>I </c><c>   4</c></rc>
    <rc><c>I </c><c>   4</c></rc>
    <rc><c>I </c><c>   4</c></rc>
    <rc><c>I </c><c>   4</c></rc>
    <rc><c>I </c><c>   4</c></rc>
    <rc><c>I </c><c>   4</c></rc>
    <rc><c>I </c><c>   4</c></rc>
    <rc><c>I </c><c>   4</c></rc>
    <rc><c>I </c><c>   4</c></rc>
    <rc><c>I </c><c>   4</c></rc>
    <rc><c>I </c><c>   4</c></rc>
    <rc><c>I </c><c>   4</c></rc>
    <rc><c>I </c><c>   4</c></rc>
    <rc><c>I </c><c>   4</c></rc>
    <rc><c>I </c><c>   4</c></rc>
    <rc><c>I </c><c>   4</c></rc>
    <rc><c>I </c><c>   4</c></rc>
    <rc><c>I </c><c>   4</c></rc>
    <rc><c>I </c><c>   4</c></rc>
    <rc><c>I </c><c>   4</c></rc>
    <rc><c>I </c><c>   4</c></rc>
    <rc><c>I </c><c>   4</c></rc>
    <rc><c>I </c><c>   4</c></rc>
    <rc><c>I </c><c>   4</c></rc>
    <rc><c>I </c><c>   4</c></rc>
    <rc><c>I </c><c>   4</c></rc>
    <rc><c>I </c><c>   4</c></rc>
    <rc><c>I </c><c>   4</c></rc>
    <rc><c>I </c><c>   4</c></rc>
    <rc><c>I </c><c>   4</c></rc>
    <rc><c>I </c><c>   4</c></rc>
    <rc><c>I </c><c>   4</c></rc>
    <rc><c>I </c><c>   4</c></rc>
    <rc><c>I </c><c>   4</c></rc>
    <rc><c>I </c><c>   4</c></rc>
    <rc><c>I </c><c>   4</c></rc>
    <rc><c>I </c><c>   4</c></rc>
    <rc><c>I </c><c>   4</c></rc>
    <rc><c>I </c><c>   4</c></rc>
    <rc><c>I </c><c>   4</c></rc>
    <rc><c>I </c><c>   4</c></rc>
    <rc><c>I </c><c>   4</c></rc>
    <rc><c>I </c><c>   4</c></rc>
    <rc><c>I </c><c>   4</c></rc>
    <rc><c>I </c><c>   4</c></rc>
    <rc><c>I </c><c>   4</c></rc>
    <rc><c>I </c><c>   4</c></rc>
    <rc><c>I </c><c>   4</c></rc>
    <rc><c>I </c><c>   4</c></rc>
    <rc><c>I </c><c>   4</c></rc>
    <rc><c>I </c><c>   4</c></rc>
    <rc><c>I </c><c>   4</c></rc>
    <rc><c>I </c><c>   4</c></rc>
    <rc><c>I </c><c>   4</c></rc>
    <rc><c>I </c><c>   4</c></rc>
    <rc><c>I </c><c>   4</c></rc>
    <rc><c>I </c><c>   4</c></rc>
    <rc><c>I </c><c>   4</c></rc>
    <rc><c>I </c><c>   4</c></rc>
    <rc><c>I </c><c>   4</c></rc>
    <rc><c>I </c><c>   4</c></rc>
    <rc><c>I </c><c>   4</c></rc>
    <rc><c>I </c><c>   4</c></rc>
    <rc><c>I </c><c>   4</c></rc>
    <rc><c>I </c><c>   4</c></rc>
    <rc><c>Pb</c><c>   5</c></rc>
    <rc><c>Pb</c><c>   5</c></rc>
    <rc><c>Pb</c><c>   5</c></rc>
    <rc><c>Pb</c><c>   5</c></rc>
    <rc><c>Pb</c><c>   5</c></rc>
    <rc><c>Pb</c><c>   5</c></rc>
    <rc><c>Pb</c><c>   5</c></rc>
    <rc><c>Pb</c><c>   5</c></rc>
    <rc><c>Pb</c><c>   5</c></rc>
    <rc><c>Pb</c><c>   5</c></rc>
    <rc><c>Pb</c><c>   5</c></rc>
    <rc><c>Pb</c><c>   5</c></rc>
    <rc><c>Pb</c><c>   5</c></rc>
    <rc><c>Pb</c><c>   5</c></rc>
    <rc><c>Pb</c><c>   5</c></rc>
    <rc><c>Pb</c><c>   5</c></rc>
    <rc><c>Pb</c><c>   5</c></rc>
    <rc><c>Pb</c><c>   5</c></rc>
    <rc><c>Pb</c><c>   5</c></rc>
    <rc><c>Pb</c><c>   5</c></rc>
    <rc><c>Pb</c><c>   5</c></rc>
    <rc><c>Pb</c><c>   5</c></rc>
    <rc><c>Pb</c><c>   5</c></rc>
    <rc><c>Pb</c><c>   5</c></rc>
   </set>
  </array>
  <array name="atomtypes" >
   <dimension dim="1">type</dimension>
   <field type="int">atomspertype</field>
   <field type="string">element</field>
   <field>mass</field>
   <field>valence</field>
   <field type="string">pseudopotential</field>
   <set>
    <rc><c> 143</c><c>H </c><c>      1.00000000</c><c>      1.00000000</c><c>  PAW_PBE H 15Jun2001                   </c></rc>
    <rc><c>  39</c><c>C </c><c>     12.01100000</c><c>      4.00000000</c><c>  PAW_PBE C 08Apr2002                   </c></rc>
    <rc><c>  47</c><c>N </c><c>     14.00100000</c><c>      5.00000000</c><c>  PAW_PBE N 08Apr2002                   </c></rc>
    <rc><c>  72</c><c>I </c><c>    126.90400000</c><c>      7.00000000</c><c>  PAW_PBE I 08Apr2002                   </c></rc>
    <rc><c>  24</c><c>Pb</c><c>    207.20000000</c><c>      4.00000000</c><c>  PAW_PBE Pb 08Apr2002                  </c></rc>
   </set>
  </array>
 </atominfo>
 <structure name="initialpos" >
  <crystal>
   <varray name="basis" >
    <v>      18.06080055       0.00000000       0.00000000 </v>
    <v>      -0.00491865      18.06279945       0.00000000 </v>
    <v>       0.00000000       0.00000000      62.48749924 </v>
   </varray>
   <i name="volume">  20385.21054034 </i>
   <varray name="rec_basis" >
    <v>       0.05536853       0.00001508      -0.00000000 </v>
    <v>       0.00000000       0.05536240       0.00000000 </v>
    <v>       0.00000000      -0.00000000       0.01600320 </v>
   </varray>
  </crystal>
  <varray name="positions" >
   <v>       0.42483112       0.26001768       0.58115915 </v>
   <v>       0.41466641       0.73940279       0.57746114 </v>
   <v>       0.93481889       0.28817050       0.58180869 </v>
   <v>       0.94475436       0.81031802       0.57942247 </v>
   <v>       0.31209527       0.06150864       0.57882555 </v>
   <v>       0.30420224       0.57954555       0.57513243 </v>
   <v>       0.78722449       0.07570752       0.58124077 </v>
   <v>       0.10488896       0.20007662       0.56433181 </v>
   <v>       0.08457367       0.67522665       0.56487745 </v>
   <v>       0.60175889       0.19586769       0.56346756 </v>
   <v>       0.60725543       0.74267202       0.56326079 </v>
   <v>       0.37003583       0.01806007       0.56076188 </v>
   <v>       0.27008012       0.61372219       0.55151729 </v>
   <v>       0.85678579       0.05540664       0.56326384 </v>
   <v>       0.06894874       0.25238976       0.58513596 </v>
   <v>       0.00962440       0.69064596       0.58247734 </v>
   <v>       0.53487743       0.17857106       0.58231343 </v>
   <v>       0.54450062       0.69705153       0.58088675 </v>
   <v>       0.26897700       0.44619592       0.58356014 </v>
   <v>       0.17588880       0.02414766       0.57671349 </v>
   <v>       0.67482613       0.99253682       0.58000865 </v>
   <v>       0.42090396       0.32711485       0.56107255 </v>
   <v>       0.39438265       0.80440758       0.55773228 </v>
   <v>       0.88900712       0.25385986       0.55916024 </v>
   <v>       0.97628625       0.87097973       0.55942683 </v>
   <v>       0.21311635       0.40200543       0.56521589 </v>
   <v>       0.15338902       0.96101657       0.55687426 </v>
   <v>       0.67993921       0.91967818       0.56170860 </v>
   <v>       0.53223267       0.28971237       0.54679064 </v>
   <v>       0.51934284       0.80930167       0.54634426 </v>
   <v>       0.99376603       0.19976239       0.54569050 </v>
   <v>       0.06770094       0.78810165       0.54797630 </v>
   <v>       0.20714675       0.50472402       0.54289124 </v>
   <v>       0.27404431       0.95047369       0.54482021 </v>
   <v>       0.79479479       0.95497690       0.54894598 </v>
   <v>       0.43640628       0.28440156       0.67542220 </v>
   <v>       0.43098619       0.82104794       0.67171766 </v>
   <v>       0.97273162       0.27387198       0.68246798 </v>
   <v>       0.93408715       0.78615299       0.67514224 </v>
   <v>       0.29714240       0.04692897       0.67710809 </v>
   <v>       0.29825593       0.55058474       0.67549399 </v>
   <v>       0.79727904       0.05619118       0.67496941 </v>
   <v>       0.80707829       0.55243123       0.67643247 </v>
   <v>       0.08344364       0.16761074       0.64401181 </v>
   <v>       0.09689326       0.68825390       0.65393469 </v>
   <v>       0.58100865       0.17444316       0.64956480 </v>
   <v>       0.56138445       0.67516646       0.65642292 </v>
   <v>       0.18222726       0.41013910       0.64926188 </v>
   <v>       0.17285987       0.92133673       0.64628185 </v>
   <v>       0.67203694       0.42606724       0.65263554 </v>
   <v>       0.66727907       0.92661059       0.64964239 </v>
   <v>       0.07146879       0.17825166       0.67159453 </v>
   <v>       0.03736435       0.68775259       0.67591748 </v>
   <v>       0.53498524       0.18319409       0.67376245 </v>
   <v>       0.52309133       0.71825889       0.67889006 </v>
   <v>       0.21222994       0.43534380       0.67454294 </v>
   <v>       0.18809634       0.94742959       0.67250920 </v>
   <v>       0.71130993       0.44559931       0.67704814 </v>
   <v>       0.68856915       0.96248090       0.67463768 </v>
   <v>       0.42422698       0.33385550       0.65165439 </v>
   <v>       0.41677162       0.84008568       0.64473326 </v>
   <v>       0.92947829       0.31826574       0.66052817 </v>
   <v>       0.93530683       0.84142785       0.65222176 </v>
   <v>       0.33865924       0.07156089       0.65345998 </v>
   <v>       0.31522309       0.59055022       0.65088867 </v>
   <v>       0.83772807       0.07221588       0.65024908 </v>
   <v>       0.81696850       0.59430567       0.65139359 </v>
   <v>       0.99547021       0.25496412       0.63570149 </v>
   <v>       0.03676838       0.78587707       0.63745459 </v>
   <v>       0.51610065       0.26893085       0.63375725 </v>
   <v>       0.49733675       0.75094901       0.63300558 </v>
   <v>       0.26475696       0.99671541       0.63239730 </v>
   <v>       0.24482226       0.50687468       0.63239870 </v>
   <v>       0.76044837       0.99282309       0.63248503 </v>
   <v>       0.73311385       0.51701644       0.63472211 </v>
   <v>       0.44874502       0.30128397       0.76888902 </v>
   <v>       0.44874501       0.80128391       0.76888902 </v>
   <v>       0.94874497       0.30128397       0.76888902 </v>
   <v>       0.94874501       0.80128391       0.76888902 </v>
   <v>       0.30127600       0.05129450       0.76887296 </v>
   <v>       0.30127601       0.55129450       0.76887296 </v>
   <v>       0.80127594       0.05129450       0.76887296 </v>
   <v>       0.80127598       0.55129450       0.76887296 </v>
   <v>       0.07877100       0.17118050       0.74344197 </v>
   <v>       0.07877101       0.67118045       0.74344197 </v>
   <v>       0.57877100       0.17118050       0.74344197 </v>
   <v>       0.57877099       0.67118045       0.74344197 </v>
   <v>       0.17119950       0.42117448       0.74342103 </v>
   <v>       0.17119950       0.92117451       0.74342103 </v>
   <v>       0.67119951       0.42117448       0.74342103 </v>
   <v>       0.67119950       0.92117451       0.74342103 </v>
   <v>       0.05125600       0.19871499       0.76888902 </v>
   <v>       0.05125600       0.69871493       0.76888902 </v>
   <v>       0.55125603       0.19871499       0.76888902 </v>
   <v>       0.55125602       0.69871493       0.76888902 </v>
   <v>       0.19872349       0.44870397       0.76887205 </v>
   <v>       0.19872349       0.94870397       0.76887205 </v>
   <v>       0.69872352       0.44870397       0.76887205 </v>
   <v>       0.69872351       0.94870397       0.76887205 </v>
   <v>       0.42123152       0.32881747       0.74344197 </v>
   <v>       0.42123151       0.82881744       0.74344197 </v>
   <v>       0.92123147       0.32881747       0.74344197 </v>
   <v>       0.92123151       0.82881744       0.74344197 </v>
   <v>       0.32880050       0.07882500       0.74342103 </v>
   <v>       0.32880049       0.57882496       0.74342103 </v>
   <v>       0.82880048       0.07882500       0.74342103 </v>
   <v>       0.82880052       0.57882496       0.74342103 </v>
   <v>       0.00000350       0.25000148       0.72582199 </v>
   <v>       0.00000350       0.75000145       0.72582199 </v>
   <v>       0.50000351       0.25000148       0.72582199 </v>
   <v>       0.50000350       0.75000145       0.72582199 </v>
   <v>       0.25000050       0.00000000       0.72580398 </v>
   <v>       0.25000052       0.50000000       0.72580398 </v>
   <v>       0.75000050       0.00000000       0.72580398 </v>
   <v>       0.75000049       0.50000000       0.72580398 </v>
   <v>       0.78598119       0.50849182       0.51852772 </v>
   <v>       0.87134428       0.50628224       0.53202200 </v>
   <v>       0.75238854       0.62781775       0.53886352 </v>
   <v>       0.76781157       0.62765117       0.56653171 </v>
   <v>       0.67927653       0.45404710       0.55812768 </v>
   <v>       0.67048973       0.55013728       0.56371724 </v>
   <v>       0.80023708       0.42820574       0.57089763 </v>
   <v>       0.86685938       0.50152923       0.57156519 </v>
   <v>       0.86195283       0.38019143       0.54223449 </v>
   <v>       0.76474918       0.37715923       0.53820927 </v>
   <v>       0.77638904       0.38104487       0.49953787 </v>
   <v>       0.86460900       0.41971109       0.49999789 </v>
   <v>       0.89204999       0.61065828       0.53297568 </v>
   <v>       0.90669962       0.60996394       0.56133224 </v>
   <v>       0.86746683       0.68960072       0.54852408 </v>
   <v>       0.59675972       0.52281774       0.53366320 </v>
   <v>       0.66734592       0.48325685       0.51817926 </v>
   <v>       0.66927311       0.58085541       0.52353599 </v>
   <v>       0.72421641       0.48214308       0.59659729 </v>
   <v>       0.75084496       0.57456614       0.59306796 </v>
   <v>       0.81347322       0.51130225       0.60577558 </v>
   <v>       0.83461092       0.26358831       0.51757190 </v>
   <v>       0.84527714       0.27776032       0.48999403 </v>
   <v>       0.93966275       0.17446450       0.50274710 </v>
   <v>       0.97378332       0.40742871       0.51443669 </v>
   <v>       0.07359813       0.15168071       0.50352799 </v>
   <v>       0.10702869       0.38435453       0.51613021 </v>
   <v>       0.15897535       0.25914248       0.51125427 </v>
   <v>       0.99699741       0.22697680       0.56093617 </v>
   <v>       0.03029383       0.77251223       0.56110893 </v>
   <v>       0.51089172       0.25995147       0.56069583 </v>
   <v>       0.50213361       0.77177797       0.55924046 </v>
   <v>       0.23925169       0.50714686       0.55738663 </v>
   <v>       0.26248567       0.98741587       0.55791664 </v>
   <v>       0.76854477       0.98616625       0.56157027 </v>
   <v>       0.00656066       0.24304018       0.65249129 </v>
   <v>       0.01568505       0.76431475       0.65294639 </v>
   <v>       0.50281335       0.25412197       0.65038973 </v>
   <v>       0.48955506       0.75780912       0.65037844 </v>
   <v>       0.24840604       0.49982788       0.64976918 </v>
   <v>       0.25569819       0.99640049       0.64996630 </v>
   <v>       0.74435026       0.51052533       0.65156013 </v>
   <v>       0.75250559       0.99895370       0.64975752 </v>
   <v>       0.49998898       0.24999498       0.74327702 </v>
   <v>       0.49998903       0.74999496       0.74327702 </v>
   <v>       0.99998898       0.24999498       0.74327702 </v>
   <v>       0.99998903       0.74999496       0.74327702 </v>
   <v>       0.25000050       0.00000100       0.74325596 </v>
   <v>       0.25000052       0.50000100       0.74325596 </v>
   <v>       0.75000050       0.00000100       0.74325596 </v>
   <v>       0.75000049       0.50000100       0.74325596 </v>
   <v>       0.94514417       0.29077429       0.50790057 </v>
   <v>       0.97594116       0.22079507       0.50538386 </v>
   <v>       0.99446614       0.35037873       0.51228777 </v>
   <v>       0.05241804       0.20807629       0.50615162 </v>
   <v>       0.07030293       0.33802351       0.51283237 </v>
   <v>       0.09995484       0.26774903       0.50982185 </v>
   <v>       0.81330851       0.48702053       0.53282318 </v>
   <v>       0.78866447       0.60493132       0.55149617 </v>
   <v>       0.69208079       0.51040162       0.55187216 </v>
   <v>       0.80730439       0.48880736       0.57228103 </v>
   <v>       0.81611423       0.40209073       0.53213219 </v>
   <v>       0.82907736       0.38007569       0.50823419 </v>
   <v>       0.86890758       0.62873928       0.54849514 </v>
   <v>       0.65610327       0.52577146       0.53039338 </v>
   <v>       0.77150745       0.51673840       0.59293079 </v>
   <v>       0.86197277       0.30140746       0.50568620 </v>
   <v>       0.05938973       0.22453142       0.57124170 </v>
   <v>       0.04162264       0.70821735       0.56994310 </v>
   <v>       0.54943010       0.20596558       0.56892397 </v>
   <v>       0.55365912       0.72903327       0.56768947 </v>
   <v>       0.44744406       0.28369394       0.56820984 </v>
   <v>       0.43186236       0.77197036       0.56557229 </v>
   <v>       0.93692336       0.25922701       0.56769771 </v>
   <v>       0.97818178       0.81896402       0.56652188 </v>
   <v>       0.23927414       0.44883670       0.56956930 </v>
   <v>       0.19388652       0.99060635       0.56429042 </v>
   <v>       0.70210827       0.96742708       0.56760095 </v>
   <v>       0.31671061       0.02610628       0.56598808 </v>
   <v>       0.27274017       0.56995511       0.56182349 </v>
   <v>       0.80590695       0.04191538       0.56930418 </v>
   <v>       0.05667586       0.19303025       0.65657175 </v>
   <v>       0.05159021       0.71042583       0.66163270 </v>
   <v>       0.54156570       0.20112327       0.65862435 </v>
   <v>       0.52787798       0.71420292       0.66320705 </v>
   <v>       0.21317301       0.44637189       0.65890907 </v>
   <v>       0.20346572       0.95367042       0.65720255 </v>
   <v>       0.70659950       0.45730017       0.66112357 </v>
   <v>       0.70093709       0.96126095       0.65909185 </v>
   <v>       0.45082302       0.29302918       0.66009064 </v>
   <v>       0.44293562       0.80975066       0.65641535 </v>
   <v>       0.96726994       0.28058521       0.66634061 </v>
   <v>       0.95749509       0.79850031       0.66061132 </v>
   <v>       0.29775901       0.03905558       0.66124652 </v>
   <v>       0.29000190       0.54994747       0.65971545 </v>
   <v>       0.79884638       0.04523036       0.65940118 </v>
   <v>       0.79271596       0.55559508       0.66061815 </v>
   <v>       0.04586250       0.20411950       0.75272599 </v>
   <v>       0.04586250       0.70411946       0.75272599 </v>
   <v>       0.54586251       0.20411950       0.75272599 </v>
   <v>       0.54586250       0.70411946       0.75272599 </v>
   <v>       0.20411900       0.45410100       0.75270499 </v>
   <v>       0.20411899       0.95410095       0.75270499 </v>
   <v>       0.70411898       0.45410100       0.75270499 </v>
   <v>       0.70411896       0.95410095       0.75270499 </v>
   <v>       0.45414002       0.29588849       0.75272697 </v>
   <v>       0.45414001       0.79588852       0.75272697 </v>
   <v>       0.95414002       0.29588849       0.75272697 </v>
[...]
   <v>       0.60175889       0.19586769       0.56346756 </v>
   <v>       0.60725543       0.74267202       0.56326079 </v>
   <v>       0.37003583       0.01806007       0.56076188 </v>
   <v>       0.27008012       0.61372219       0.55151729 </v>
   <v>       0.85678579       0.05540664       0.56326384 </v>
   <v>       0.06894874       0.25238976       0.58513596 </v>
   <v>       0.00962440       0.69064596       0.58247734 </v>
   <v>       0.53487743       0.17857106       0.58231343 </v>
   <v>       0.54450062       0.69705153       0.58088675 </v>
   <v>       0.26897700       0.44619592       0.58356014 </v>
   <v>       0.17588880       0.02414766       0.57671349 </v>
   <v>       0.67482613       0.99253682       0.58000865 </v>
   <v>       0.42090396       0.32711485       0.56107255 </v>
   <v>       0.39438265       0.80440758       0.55773228 </v>
   <v>       0.88900712       0.25385986       0.55916024 </v>
   <v>       0.97628625       0.87097973       0.55942683 </v>
   <v>       0.21311635       0.40200543       0.56521589 </v>
   <v>       0.15338902       0.96101657       0.55687426 </v>
   <v>       0.67993921       0.91967818       0.56170860 </v>
   <v>       0.53223267       0.28971237       0.54679064 </v>
   <v>       0.51934284       0.80930167       0.54634426 </v>
   <v>       0.99376603       0.19976239       0.54569050 </v>
   <v>       0.06770094       0.78810165       0.54797630 </v>
   <v>       0.20714675       0.50472402       0.54289124 </v>
   <v>       0.27404431       0.95047369       0.54482021 </v>
   <v>       0.79479479       0.95497690       0.54894598 </v>
   <v>       0.43640628       0.28440156       0.67542220 </v>
   <v>       0.43098619       0.82104794       0.67171766 </v>
   <v>       0.97273162       0.27387198       0.68246798 </v>
   <v>       0.93408715       0.78615299       0.67514224 </v>
   <v>       0.29714240       0.04692897       0.67710809 </v>
   <v>       0.29825593       0.55058474       0.67549399 </v>
   <v>       0.79727904       0.05619118       0.67496941 </v>
   <v>       0.80707829       0.55243123       0.67643247 </v>
   <v>       0.08344364       0.16761074       0.64401181 </v>
   <v>       0.09689326       0.68825390       0.65393469 </v>
   <v>       0.58100865       0.17444316       0.64956480 </v>
   <v>       0.56138445       0.67516646       0.65642292 </v>
   <v>       0.18222726       0.41013910       0.64926188 </v>
   <v>       0.17285987       0.92133673       0.64628185 </v>
   <v>       0.67203694       0.42606724       0.65263554 </v>
   <v>       0.66727907       0.92661059       0.64964239 </v>
   <v>       0.07146879       0.17825166       0.67159453 </v>
   <v>       0.03736435       0.68775259       0.67591748 </v>
   <v>       0.53498524       0.18319409       0.67376245 </v>
   <v>       0.52309133       0.71825889       0.67889006 </v>
   <v>       0.21222994       0.43534380       0.67454294 </v>
   <v>       0.18809634       0.94742959       0.67250920 </v>
   <v>       0.71130993       0.44559931       0.67704814 </v>
   <v>       0.68856915       0.96248090       0.67463768 </v>
   <v>       0.42422698       0.33385550       0.65165439 </v>
   <v>       0.41677162       0.84008568       0.64473326 </v>
   <v>       0.92947829       0.31826574       0.66052817 </v>
   <v>       0.93530683       0.84142785       0.65222176 </v>
   <v>       0.33865924       0.07156089       0.65345998 </v>
   <v>       0.31522309       0.59055022       0.65088867 </v>
   <v>       0.83772807       0.07221588       0.65024908 </v>
   <v>       0.81696850       0.59430567       0.65139359 </v>
   <v>       0.99547021       0.25496412       0.63570149 </v>
   <v>       0.03676838       0.78587707       0.63745459 </v>
   <v>       0.51610065       0.26893085       0.63375725 </v>
   <v>       0.49733675       0.75094901       0.63300558 </v>
   <v>       0.26475696       0.99671541       0.63239730 </v>
   <v>       0.24482226       0.50687468       0.63239870 </v>
   <v>       0.76044837       0.99282309       0.63248503 </v>
   <v>       0.73311385       0.51701644       0.63472211 </v>
   <v>       0.44874502       0.30128397       0.76888902 </v>
   <v>       0.44874501       0.80128391       0.76888902 </v>
   <v>       0.94874497       0.30128397       0.76888902 </v>
   <v>       0.94874501       0.80128391       0.76888902 </v>
   <v>       0.30127600       0.05129450       0.76887296 </v>
   <v>       0.30127601       0.55129450       0.76887296 </v>
   <v>       0.80127594       0.05129450       0.76887296 </v>
   <v>       0.80127598       0.55129450       0.76887296 </v>
   <v>       0.07877100       0.17118050       0.74344197 </v>
   <v>       0.07877101       0.67118045       0.74344197 </v>
   <v>       0.57877100       0.17118050       0.74344197 </v>
   <v>       0.57877099       0.67118045       0.74344197 </v>
   <v>       0.17119950       0.42117448       0.74342103 </v>
   <v>       0.17119950       0.92117451       0.74342103 </v>
   <v>       0.67119951       0.42117448       0.74342103 </v>
   <v>       0.67119950       0.92117451       0.74342103 </v>
   <v>       0.05125600       0.19871499       0.76888902 </v>
   <v>       0.05125600       0.69871493       0.76888902 </v>
   <v>       0.55125603       0.19871499       0.76888902 </v>
   <v>       0.55125602       0.69871493       0.76888902 </v>
   <v>       0.19872349       0.44870397       0.76887205 </v>
   <v>       0.19872349       0.94870397       0.76887205 </v>
   <v>       0.69872352       0.44870397       0.76887205 </v>
   <v>       0.69872351       0.94870397       0.76887205 </v>
   <v>       0.42123152       0.32881747       0.74344197 </v>
   <v>       0.42123151       0.82881744       0.74344197 </v>
   <v>       0.92123147       0.32881747       0.74344197 </v>
   <v>       0.92123151       0.82881744       0.74344197 </v>
   <v>       0.32880050       0.07882500       0.74342103 </v>
   <v>       0.32880049       0.57882496       0.74342103 </v>
   <v>       0.82880048       0.07882500       0.74342103 </v>
   <v>       0.82880052       0.57882496       0.74342103 </v>
   <v>       0.00000350       0.25000148       0.72582199 </v>
   <v>       0.00000350       0.75000145       0.72582199 </v>
   <v>       0.50000351       0.25000148       0.72582199 </v>
   <v>       0.50000350       0.75000145       0.72582199 </v>
   <v>       0.25000050       0.00000000       0.72580398 </v>
   <v>       0.25000052       0.50000000       0.72580398 </v>
   <v>       0.75000050       0.00000000       0.72580398 </v>
   <v>       0.75000049       0.50000000       0.72580398 </v>
   <v>       0.78598119       0.50849182       0.51852772 </v>
   <v>       0.87134428       0.50628224       0.53202200 </v>
   <v>       0.75238854       0.62781775       0.53886352 </v>
   <v>       0.76781157       0.62765117       0.56653171 </v>
   <v>       0.67927653       0.45404710       0.55812768 </v>
   <v>       0.67048973       0.55013728       0.56371724 </v>
   <v>       0.80023708       0.42820574       0.57089763 </v>
   <v>       0.86685938       0.50152923       0.57156519 </v>
   <v>       0.86195283       0.38019143       0.54223449 </v>
   <v>       0.76474918       0.37715923       0.53820927 </v>
   <v>       0.77638904       0.38104487       0.49953787 </v>
   <v>       0.86460900       0.41971109       0.49999789 </v>
   <v>       0.89204999       0.61065828       0.53297568 </v>
   <v>       0.90669962       0.60996394       0.56133224 </v>
   <v>       0.86746683       0.68960072       0.54852408 </v>
   <v>       0.59675972       0.52281774       0.53366320 </v>
   <v>       0.66734592       0.48325685       0.51817926 </v>
   <v>       0.66927311       0.58085541       0.52353599 </v>
   <v>       0.72421641       0.48214308       0.59659729 </v>
   <v>       0.75084496       0.57456614       0.59306796 </v>
   <v>       0.81347322       0.51130225       0.60577558 </v>
   <v>       0.83461092       0.26358831       0.51757190 </v>
   <v>       0.84527714       0.27776032       0.48999403 </v>
   <v>       0.93966275       0.17446450       0.50274710 </v>
   <v>       0.97378332       0.40742871       0.51443669 </v>
   <v>       0.07359813       0.15168071       0.50352799 </v>
   <v>       0.10702869       0.38435453       0.51613021 </v>
   <v>       0.15897535       0.25914248       0.51125427 </v>
   <v>       0.99699741       0.22697680       0.56093617 </v>
   <v>       0.03029383       0.77251223       0.56110893 </v>
   <v>       0.51089172       0.25995147       0.56069583 </v>
   <v>       0.50213361       0.77177797       0.55924046 </v>
   <v>       0.23925169       0.50714686       0.55738663 </v>
   <v>       0.26248567       0.98741587       0.55791664 </v>
   <v>       0.76854477       0.98616625       0.56157027 </v>
   <v>       0.00656066       0.24304018       0.65249129 </v>
   <v>       0.01568505       0.76431475       0.65294639 </v>
   <v>       0.50281335       0.25412197       0.65038973 </v>
   <v>       0.48955506       0.75780912       0.65037844 </v>
   <v>       0.24840604       0.49982788       0.64976918 </v>
   <v>       0.25569819       0.99640049       0.64996630 </v>
   <v>       0.74435026       0.51052533       0.65156013 </v>
   <v>       0.75250559       0.99895370       0.64975752 </v>
   <v>       0.49998898       0.24999498       0.74327702 </v>
   <v>       0.49998903       0.74999496       0.74327702 </v>
   <v>       0.99998898       0.24999498       0.74327702 </v>
   <v>       0.99998903       0.74999496       0.74327702 </v>
   <v>       0.25000050       0.00000100       0.74325596 </v>
   <v>       0.25000052       0.50000100       0.74325596 </v>
   <v>       0.75000050       0.00000100       0.74325596 </v>
   <v>       0.75000049       0.50000100       0.74325596 </v>
   <v>       0.94514417       0.29077429       0.50790057 </v>
   <v>       0.97594116       0.22079507       0.50538386 </v>
   <v>       0.99446614       0.35037873       0.51228777 </v>
   <v>       0.05241804       0.20807629       0.50615162 </v>
   <v>       0.07030293       0.33802351       0.51283237 </v>
   <v>       0.09995484       0.26774903       0.50982185 </v>
   <v>       0.81330851       0.48702053       0.53282318 </v>
   <v>       0.78866447       0.60493132       0.55149617 </v>
   <v>       0.69208079       0.51040162       0.55187216 </v>
   <v>       0.80730439       0.48880736       0.57228103 </v>
   <v>       0.81611423       0.40209073       0.53213219 </v>
   <v>       0.82907736       0.38007569       0.50823419 </v>
   <v>       0.86890758       0.62873928       0.54849514 </v>
   <v>       0.65610327       0.52577146       0.53039338 </v>
   <v>       0.77150745       0.51673840       0.59293079 </v>
   <v>       0.86197277       0.30140746       0.50568620 </v>
   <v>       0.05938973       0.22453142       0.57124170 </v>
   <v>       0.04162264       0.70821735       0.56994310 </v>
   <v>       0.54943010       0.20596558       0.56892397 </v>
   <v>       0.55365912       0.72903327       0.56768947 </v>
   <v>       0.44744406       0.28369394       0.56820984 </v>
   <v>       0.43186236       0.77197036       0.56557229 </v>
   <v>       0.93692336       0.25922701       0.56769771 </v>
   <v>       0.97818178       0.81896402       0.56652188 </v>
   <v>       0.23927414       0.44883670       0.56956930 </v>
   <v>       0.19388652       0.99060635       0.56429042 </v>
   <v>       0.70210827       0.96742708       0.56760095 </v>
   <v>       0.31671061       0.02610628       0.56598808 </v>
   <v>       0.27274017       0.56995511       0.56182349 </v>
   <v>       0.80590695       0.04191538       0.56930418 </v>
   <v>       0.05667586       0.19303025       0.65657175 </v>
   <v>       0.05159021       0.71042583       0.66163270 </v>
   <v>       0.54156570       0.20112327       0.65862435 </v>
   <v>       0.52787798       0.71420292       0.66320705 </v>
   <v>       0.21317301       0.44637189       0.65890907 </v>
   <v>       0.20346572       0.95367042       0.65720255 </v>
   <v>       0.70659950       0.45730017       0.66112357 </v>
   <v>       0.70093709       0.96126095       0.65909185 </v>
   <v>       0.45082302       0.29302918       0.66009064 </v>
   <v>       0.44293562       0.80975066       0.65641535 </v>
   <v>       0.96726994       0.28058521       0.66634061 </v>
   <v>       0.95749509       0.79850031       0.66061132 </v>
   <v>       0.29775901       0.03905558       0.66124652 </v>
   <v>       0.29000190       0.54994747       0.65971545 </v>
   <v>       0.79884638       0.04523036       0.65940118 </v>
   <v>       0.79271596       0.55559508       0.66061815 </v>
   <v>       0.04586250       0.20411950       0.75272599 </v>
   <v>       0.04586250       0.70411946       0.75272599 </v>
   <v>       0.54586251       0.20411950       0.75272599 </v>
   <v>       0.54586250       0.70411946       0.75272599 </v>
   <v>       0.20411900       0.45410100       0.75270499 </v>
   <v>       0.20411899       0.95410095       0.75270499 </v>
   <v>       0.70411898       0.45410100       0.75270499 </v>
   <v>       0.70411896       0.95410095       0.75270499 </v>
   <v>       0.45414002       0.29588849       0.75272697 </v>
   <v>       0.45414001       0.79588852       0.75272697 </v>
   <v>       0.95414002       0.29588849       0.75272697 </v>
   <v>       0.95414006       0.79588852       0.75272697 </v>
   <v>       0.29588249       0.04590050       0.75270499 </v>
   <v>       0.29588248       0.54590053       0.75270499 </v>
   <v>       0.79588244       0.04590050       0.75270499 </v>
   <v>       0.79588248       0.54590053       0.75270499 </v>
   <v>       0.77526537       0.52140583       0.55184268 </v>
   <v>       0.50752658       0.98939913       0.55341086 </v>
   <v>       0.45692064       0.47695074       0.55470671 </v>
   <v>       0.99481501       0.01058478       0.55131034 </v>
   <v>       0.03501398       0.49077783       0.55805144 </v>
   <v>       0.24524413       0.24640273       0.55545564 </v>
   <v>       0.23931829       0.77090955       0.55143592 </v>
   <v>       0.74324725       0.22649261       0.55463004 </v>
   <v>       0.71557113       0.78901853       0.54480629 </v>
   <v>       0.00218970       0.99681844       0.65421099 </v>
   <v>       0.99971762       0.50587433       0.65643849 </v>
   <v>       0.49534443       0.00178893       0.65515594 </v>
   <v>       0.49527539       0.49864885       0.65525795 </v>
   <v>       0.25478210       0.23953631       0.65567661 </v>
   <v>       0.25280531       0.75359465       0.65397455 </v>
   <v>       0.74391288       0.24989108       0.65549830 </v>
   <v>       0.75706256       0.75581881       0.65377835 </v>
   <v>       0.14890345       0.10524237       0.60996587 </v>
   <v>       0.15114096       0.60701646       0.60921517 </v>
   <v>       0.64648229       0.10693018       0.61049381 </v>
   <v>       0.61023284       0.64021280       0.61493781 </v>
   <v>       0.36274425       0.38852898       0.61280256 </v>
   <v>       0.36153579       0.89032502       0.60868833 </v>
   <v>       0.88959713       0.36200468       0.61614558 </v>
   <v>       0.86144278       0.89138562       0.60839549 </v>
   <v>       0.11748438       0.35966611       0.61202463 </v>
   <v>       0.11525633       0.87108818       0.60841313 </v>
   <v>       0.61691903       0.37010342       0.60667774 </v>
   <v>       0.61838350       0.86612815       0.61261014 </v>
   <v>       0.39790578       0.14147035       0.60888741 </v>
   <v>       0.38424088       0.63976117       0.60748472 </v>
   <v>       0.88570987       0.13679193       0.61343233 </v>
   <v>       0.91489419       0.66501595       0.61442038 </v>
   <v>       0.00000000       0.00000000       0.75492797 </v>
   <v>       0.00000000       0.50000000       0.75492797 </v>
   <v>       0.50000000       0.00000000       0.75492797 </v>
   <v>       0.49999999       0.50000000       0.75492797 </v>
   <v>       0.25000050       0.25000000       0.75493902 </v>
   <v>       0.25000051       0.74999997       0.75493902 </v>
   <v>       0.75000047       0.25000000       0.75493902 </v>
   <v>       0.75000046       0.74999997       0.75493902 </v>
   <v>       0.13579050       0.11421000       0.70478299 </v>
   <v>       0.13579050       0.61420998       0.70478299 </v>
   <v>       0.63579045       0.11421000       0.70478299 </v>
   <v>       0.63579049       0.61420998       0.70478299 </v>
   <v>       0.36420952       0.38578999       0.70478299 </v>
   <v>       0.36420950       0.88578996       0.70478299 </v>
   <v>       0.86420954       0.38578999       0.70478299 </v>
   <v>       0.86420953       0.88578996       0.70478299 </v>
   <v>       0.11421799       0.36421899       0.70478098 </v>
   <v>       0.11421799       0.86421899       0.70478098 </v>
   <v>       0.61421800       0.36421899       0.70478098 </v>
   <v>       0.61421799       0.86421899       0.70478098 </v>
   <v>       0.38578201       0.13578149       0.70478202 </v>
   <v>       0.38578200       0.63578149       0.70478202 </v>
   <v>       0.88578199       0.13578149       0.70478202 </v>
   <v>       0.88578203       0.63578149       0.70478202 </v>
   <v>       0.13466700       0.11533200       0.80125603 </v>
   <v>       0.13466699       0.61533199       0.80125603 </v>
   <v>       0.63466699       0.11533200       0.80125603 </v>
   <v>       0.63466698       0.61533199       0.80125603 </v>
   <v>       0.36533300       0.38466799       0.80125603 </v>
   <v>       0.36533299       0.88466796       0.80125603 </v>
   <v>       0.86533295       0.38466799       0.80125603 </v>
   <v>       0.86533294       0.88466796       0.80125603 </v>
   <v>       0.11532850       0.36533700       0.80126500 </v>
   <v>       0.11532850       0.86533698       0.80126500 </v>
   <v>       0.61532850       0.36533700       0.80126500 </v>
   <v>       0.61532849       0.86533698       0.80126500 </v>
   <v>       0.38467151       0.13466300       0.80126500 </v>
   <v>       0.38467150       0.63466297       0.80126500 </v>
   <v>       0.88467149       0.13466300       0.80126500 </v>
   <v>       0.88467153       0.63466297       0.80126500 </v>
   <v>       0.99479552       0.00501277       0.60404171 </v>
   <v>       0.00899279       0.50494387       0.60668586 </v>
   <v>       0.50102372       0.99502862       0.60311556 </v>
   <v>       0.49534625       0.50077095       0.60304536 </v>
   <v>       0.25170121       0.24967751       0.60528195 </v>
   <v>       0.24344897       0.75660597       0.60342190 </v>
   <v>       0.75209733       0.25358906       0.60551082 </v>
   <v>       0.75034674       0.75500784       0.60486585 </v>
   <v>       0.00000050       0.00000050       0.70482896 </v>
   <v>       0.00000050       0.50000048       0.70482896 </v>
   <v>       0.50000048       0.00000050       0.70482896 </v>
   <v>       0.50000046       0.50000048       0.70482896 </v>
   <v>       0.24999999       0.24999947       0.70482499 </v>
   <v>       0.25000001       0.74999950       0.70482499 </v>
   <v>       0.74999999       0.24999947       0.70482499 </v>
   <v>       0.74999998       0.74999950       0.70482499 </v>
   <v>       0.00000000       0.00000000       0.80731797 </v>
   <v>       0.00000000       0.50000000       0.80731797 </v>
   <v>       0.50000000       0.00000000       0.80731797 </v>
   <v>       0.49999999       0.50000000       0.80731797 </v>
   <v>       0.24999999       0.25000000       0.80731797 </v>
   <v>       0.25000001       0.74999997       0.80731797 </v>
   <v>       0.74999999       0.25000000       0.80731797 </v>
   <v>       0.74999998       0.74999997       0.80731797 </v>
  </varray>
 </structure>
</modeling>
