 vasp.6.2.1 16May21 (build Nov 15 2021 14:57:28) complex                         
 executed on             LinuxPGI date 2023.07.25  01:31:43
 running on    4 total cores
 distrk:  each k-point on    4 cores,    1 groups
 distr:  one band on NCORE=   1 cores,    4 groups


--------------------------------------------------------------------------------------------------------


 INCAR:
   SYSTEM = PSC
   ISTART = 1
   ICHARG = 1
   PREC = Normal
   ENCUT = 500
   GGA_COMPAT = F
   NELM = 600
   ISYM = 0
   LREAL = Auto
   ISMEAR = 0
   SIGMA = 0.05
   AMIN = 0.01
   BMIX = 0.01
   LVTOT = T
   LWAVE = F
   LDIPOL = T
   IDIPOL = 3
   LVDW = T
   IVDW = 12

 POTCAR:    PAW_PBE H 15Jun2001                   
 POTCAR:    PAW_PBE C 08Apr2002                   
 POTCAR:    PAW_PBE N 08Apr2002                   
 POTCAR:    PAW_PBE I 08Apr2002                   
 POTCAR:    PAW_PBE Pb 08Apr2002                  
 WARNING: For LVTOT=.TRUE., VASP.5.x writes the TOTAL local potential to the
     file LOCPOT. If you want only the Hartree contributions, use LVHAR=.TRUE.
     instead. 

 POTCAR:    PAW_PBE H 15Jun2001                   
   SHA256 =  030f79b5d3ab3cf0e668861823c8fb652ff669f3e15e46930bd03bfd63a607b6 H/POTCAR              
   COPYR  = (c) Copyright 15Jun2001 Georg Kresse                                                    
   COPYR  = This file is part of the software VASP. Any use, copying, and all other rights are regul
   COPYR  = If you do not have a valid VASP license, you may not use, copy or distribute this file. 
   VRHFIN =H: ultrasoft test                                                                        
   LEXCH  = PE                                                                                      
   EATOM  =    12.4884 eV,    0.9179 Ry                                                             
                                                                                                    
   TITEL  = PAW_PBE H 15Jun2001                                                                     
   LULTRA =        F    use ultrasoft PP ?                                                          
   IUNSCR =        0    unscreen: 0-lin 1-nonlin 2-no                                               
   RPACOR =    0.000    partial core radius                                                         
   POMASS =    1.000; ZVAL   =    1.000    mass and valenz                                          
   RCORE  =    1.100    outmost cutoff radius                                                       
   RWIGS  =    0.700; RWIGS  =    0.370    wigner-seitz radius (au A)                               
   ENMAX  =  250.000; ENMIN  =  200.000 eV                                                          
   RCLOC  =    0.701    cutoff for local pot                                                        
   LCOR   =        T    correct aug charges                                                         
   LPAW   =        T    paw PP                                                                      
   EAUG   =  400.000                                                                                
   RMAX   =    1.123    core radius for proj-oper                                                   
   RAUG   =    1.200    factor for augmentation sphere                                              
   RDEP   =    1.112    radius for radial grids                                                     
   RDEPT  =    0.926    core radius for aug-charge                                                  
                                                                                                    
   Atomic configuration                                                                             
    2 entries                                                                                       
     n  l   j            E        occ.                                                              
     1  0  0.50        -6.4927   1.0000                                                             
     2  1  0.50        -3.4015   0.0000                                                             
   Description                                                                                      
     l       E           TYP  RCUT    TYP  RCUT                                                     
     0     -6.4927494     23  1.100                                                                 
     0      6.8029130     23  1.100                                                                 
     1     -4.0817478     23  1.100                                                                 
  local pseudopotential read in
  atomic valenz-charges read in
  non local Contribution for L=            0  read in
    real space projection operators read in
  non local Contribution for L=            0  read in
    real space projection operators read in
  non local Contribution for L=            1  read in
    real space projection operators read in
    PAW grid and wavefunctions read in
 
   number of l-projection  operators is LMAX  =            3
   number of lm-projection operators is LMMAX =            5
 
 POTCAR:    PAW_PBE C 08Apr2002                   
   SHA256 =  253f7b50bb8d59471dbedb8285d89021f4a42ed1a2c5d38a03a736e69125dd95 C/POTCAR              
   COPYR  = (c) Copyright 08Apr2002 Georg Kresse                                                    
   COPYR  = This file is part of the software VASP. Any use, copying, and all other rights are regul
   COPYR  = If you do not have a valid VASP license, you may not use, copy or distribute this file. 
   VRHFIN =C: s2p2                                                                                  
   LEXCH  = PE                                                                                      
   EATOM  =   147.1560 eV,   10.8157 Ry                                                             
                                                                                                    
   TITEL  = PAW_PBE C 08Apr2002                                                                     
   LULTRA =        F    use ultrasoft PP ?                                                          
   IUNSCR =        1    unscreen: 0-lin 1-nonlin 2-no                                               
   RPACOR =    1.200    partial core radius                                                         
   POMASS =   12.011; ZVAL   =    4.000    mass and valenz                                          
   RCORE  =    1.500    outmost cutoff radius                                                       
   RWIGS  =    1.630; RWIGS  =    0.863    wigner-seitz radius (au A)                               
   ENMAX  =  400.000; ENMIN  =  300.000 eV                                                          
   ICORE  =        2    local potential                                                             
   LCOR   =        T    correct aug charges                                                         
   LPAW   =        T    paw PP                                                                      
   EAUG   =  644.873                                                                                
   DEXC   =    0.000                                                                                
   RMAX   =    1.529    core radius for proj-oper                                                   
   RAUG   =    1.300    factor for augmentation sphere                                              
   RDEP   =    1.501    radius for radial grids                                                     
   RDEPT  =    1.300    core radius for aug-charge                                                  
                                                                                                    
   Atomic configuration                                                                             
    4 entries                                                                                       
     n  l   j            E        occ.                                                              
     1  0  0.50      -273.3789   2.0000                                                             
     2  0  0.50       -13.7508   2.0000                                                             
     2  1  0.50        -5.2854   2.0000                                                             
     3  2  1.50        -5.4423   0.0000                                                             
   Description                                                                                      
     l       E           TYP  RCUT    TYP  RCUT                                                     
     0    -13.7508458     23  1.200                                                                 
     0     -8.2022199     23  1.200                                                                 
     1     -5.2854383     23  1.500                                                                 
     1     34.0145650     23  1.500                                                                 
     2     -5.4423304      7  1.500                                                                 
  local pseudopotential read in
  partial core-charges read in
  partial kinetic energy density read in
  atomic valenz-charges read in
  non local Contribution for L=            0  read in
    real space projection operators read in
  non local Contribution for L=            0  read in
    real space projection operators read in
  non local Contribution for L=            1  read in
    real space projection operators read in
  non local Contribution for L=            1  read in
    real space projection operators read in
    PAW grid and wavefunctions read in
 
   number of l-projection  operators is LMAX  =            4
   number of lm-projection operators is LMMAX =            8
 
 POTCAR:    PAW_PBE N 08Apr2002                   
   SHA256 =  e053789ff3a61a86a1b75d8a110fcc91f86041011e7b0817c7c99e4e8a6349d7 N/POTCAR              
   COPYR  = (c) Copyright 08Apr2002 Georg Kresse                                                    
   COPYR  = This file is part of the software VASP. Any use, copying, and all other rights are regul
   COPYR  = If you do not have a valid VASP license, you may not use, copy or distribute this file. 
   VRHFIN =N: s2p3                                                                                  
   LEXCH  = PE                                                                                      
   EATOM  =   264.5486 eV,   19.4438 Ry                                                             
                                                                                                    
   TITEL  = PAW_PBE N 08Apr2002                                                                     
   LULTRA =        F    use ultrasoft PP ?                                                          
   IUNSCR =        1    unscreen: 0-lin 1-nonlin 2-no                                               
   RPACOR =    1.200    partial core radius                                                         
   POMASS =   14.001; ZVAL   =    5.000    mass and valenz                                          
   RCORE  =    1.500    outmost cutoff radius                                                       
   RWIGS  =    1.400; RWIGS  =    0.741    wigner-seitz radius (au A)                               
   ENMAX  =  400.000; ENMIN  =  300.000 eV                                                          
   ICORE  =        2    local potential                                                             
   LCOR   =        T    correct aug charges                                                         
   LPAW   =        T    paw PP                                                                      
   EAUG   =  627.112                                                                                
   DEXC   =    0.000                                                                                
   RMAX   =    1.529    core radius for proj-oper                                                   
   RAUG   =    1.300    factor for augmentation sphere                                              
   RDEP   =    1.514    radius for radial grids                                                     
   RDEPT  =    1.338    core radius for aug-charge                                                  
                                                                                                    
   Atomic configuration                                                                             
    4 entries                                                                                       
     n  l   j            E        occ.                                                              
     1  0  0.50      -384.7179   2.0000                                                             
     2  0  0.50       -18.5828   2.0000                                                             
     2  1  0.50        -7.0898   3.0000                                                             
     3  2  1.50        -6.8029   0.0000                                                             
   Description                                                                                      
     l       E           TYP  RCUT    TYP  RCUT                                                     
     0    -18.5828119     23  1.200                                                                 
     0    -13.5018863     23  1.200                                                                 
     1     -7.0897853     23  1.500                                                                 
     1      9.5240782     23  1.500                                                                 
     2     -6.8029130      7  1.500                                                                 
  local pseudopotential read in
  partial core-charges read in
  partial kinetic energy density read in
  atomic valenz-charges read in
  non local Contribution for L=            0  read in
    real space projection operators read in
  non local Contribution for L=            0  read in
    real space projection operators read in
  non local Contribution for L=            1  read in
    real space projection operators read in
  non local Contribution for L=            1  read in
    real space projection operators read in
    PAW grid and wavefunctions read in
 
   number of l-projection  operators is LMAX  =            4
   number of lm-projection operators is LMMAX =            8
 
 POTCAR:    PAW_PBE I 08Apr2002                   
   SHA256 =  e40f3f59b681c1fc3e3091736183c4589116986673d2b852a5012aec72758799 I/POTCAR              
   COPYR  = (c) Copyright 08Apr2002 Georg Kresse                                                    
   COPYR  = This file is part of the software VASP. Any use, copying, and all other rights are regul
   COPYR  = If you do not have a valid VASP license, you may not use, copy or distribute this file. 
   VRHFIN =I : s2p5                                                                                 
   LEXCH  = PE                                                                                      
   EATOM  =   315.8678 eV,   23.2156 Ry                                                             
                                                                                                    
   TITEL  = PAW_PBE I 08Apr2002                                                                     
   LULTRA =        F    use ultrasoft PP ?                                                          
   IUNSCR =        1    unscreen: 0-lin 1-nonlin 2-no                                               
   RPACOR =    2.200    partial core radius                                                         
   POMASS =  126.904; ZVAL   =    7.000    mass and valenz                                          
   RCORE  =    2.300    outmost cutoff radius                                                       
   RWIGS  =    2.810; RWIGS  =    1.487    wigner-seitz radius (au A)                               
   ENMAX  =  175.647; ENMIN  =  131.735 eV                                                          
   ICORE  =        3    local potential                                                             
   LCOR   =        T    correct aug charges                                                         
   LPAW   =        T    paw PP                                                                      
   EAUG   =  370.139                                                                                
   DEXC   =    0.000                                                                                
   RMAX   =    2.359    core radius for proj-oper                                                   
   RAUG   =    1.300    factor for augmentation sphere                                              
   RDEP   =    2.392    radius for radial grids                                                     
   RDEPT  =    2.170    core radius for aug-charge                                                  
                                                                                                    
   Atomic configuration                                                                             
   13 entries                                                                                       
     n  l   j            E        occ.                                                              
     1  0  0.50    -32976.3739   2.0000                                                             
     2  0  0.50     -5094.5933   2.0000                                                             
     2  1  1.50     -4572.0131   6.0000                                                             
     3  0  0.50     -1028.2813   2.0000                                                             
     3  1  1.50      -859.0250   6.0000                                                             
     3  2  2.50      -605.7620  10.0000                                                             
     4  0  0.50      -180.5540   2.0000                                                             
     4  1  1.50      -127.5306   6.0000                                                             
     4  2  2.50       -50.2720  10.0000                                                             
     5  0  0.50       -17.4058   2.0000                                                             
     5  1  0.50        -7.0851   5.0000                                                             
     5  2  1.50        -7.0750   0.0000                                                             
     4  3  2.50        -7.0750   0.0000                                                             
   Description                                                                                      
     l       E           TYP  RCUT    TYP  RCUT                                                     
     0    -17.4058016     23  2.300                                                                 
     0    -18.7663842     23  2.300                                                                 
     1     -7.0850686     23  2.300                                                                 
     1     -4.2150896     23  2.300                                                                 
     2     -7.0750295     23  2.300                                                                 
     3     -1.3605826     23  2.300                                                                 
  local pseudopotential read in
  partial core-charges read in
  partial kinetic energy density read in
  atomic valenz-charges read in
  non local Contribution for L=            0  read in
    real space projection operators read in
  non local Contribution for L=            0  read in
    real space projection operators read in
  non local Contribution for L=            1  read in
    real space projection operators read in
  non local Contribution for L=            1  read in
    real space projection operators read in
  non local Contribution for L=            2  read in
    real space projection operators read in
    PAW grid and wavefunctions read in
 
   number of l-projection  operators is LMAX  =            5
   number of lm-projection operators is LMMAX =           13
 
 POTCAR:    PAW_PBE Pb 08Apr2002                  
   SHA256 =  797118a27cf1bcd06b9881c67a26cdde129e3cd1a551dd4a281f9681ce847303 Pb/POTCAR             
   COPYR  = (c) Copyright 08Apr2002 Georg Kresse                                                    
   COPYR  = This file is part of the software VASP. Any use, copying, and all other rights are regul
   COPYR  = If you do not have a valid VASP license, you may not use, copy or distribute this file. 
   VRHFIN =Pb:                                                                                      
   LEXCH  = PE                                                                                      
   EATOM  =    96.9868 eV,    7.1283 Ry                                                             
                                                                                                    
   TITEL  = PAW_PBE Pb 08Apr2002                                                                    
   LULTRA =        F    use ultrasoft PP ?                                                          
   IUNSCR =        1    unscreen: 0-lin 1-nonlin 2-no                                               
   RPACOR =    2.200    partial core radius                                                         
   POMASS =  207.200; ZVAL   =    4.000    mass and valenz                                          
   RCORE  =    3.100    outmost cutoff radius                                                       
   RWIGS  =    3.260; RWIGS  =    1.725    wigner-seitz radius (au A)                               
   ENMAX  =   97.973; ENMIN  =   73.480 eV                                                          
   ICORE  =        3    local potential                                                             
   LCOR   =        T    correct aug charges                                                         
   LPAW   =        T    paw PP                                                                      
   EAUG   =  234.873                                                                                
   DEXC   =    0.000                                                                                
   RMAX   =    3.158    core radius for proj-oper                                                   
   RAUG   =    1.300    factor for augmentation sphere                                              
   RDEP   =    3.202    radius for radial grids                                                     
   RDEPT  =    2.659    core radius for aug-charge                                                  
                                                                                                    
   Atomic configuration                                                                             
   17 entries                                                                                       
     n  l   j            E        occ.                                                              
     1  0  0.50    -88091.8466   2.0000                                                             
     2  0  0.50    -15753.4197   2.0000                                                             
     2  1  1.50    -13508.1797   6.0000                                                             
     3  0  0.50     -3781.7194   2.0000                                                             
     3  1  1.50     -3138.2529   6.0000                                                             
     3  2  2.50     -2483.2977  10.0000                                                             
     4  0  0.50      -856.2895   2.0000                                                             
     4  1  1.50      -645.4943   6.0000                                                             
     4  2  2.50      -401.8768  10.0000                                                             
     4  3  3.50      -132.9059  14.0000                                                             
     5  0  0.50      -144.0950   2.0000                                                             
     5  1  1.50       -85.7879   6.0000                                                             
     5  2  2.50       -21.1769  10.0000                                                             
     6  0  0.50       -12.0372   2.0000                                                             
     6  1  1.50        -3.4971   2.0000                                                             
     6  2  2.50        -1.3606   0.0000                                                             
     5  3  2.50        -2.7212   0.0000                                                             
   Description                                                                                      
     l       E           TYP  RCUT    TYP  RCUT                                                     
     0    -12.0371566     23  3.100                                                                 
     0    -13.3977392     23  3.100                                                                 
     1     -3.4971341     23  3.100                                                                 
     1     -5.4423304     23  3.100                                                                 
     2     -1.3605826     23  3.100                                                                 
     3     -1.3605826     23  3.100                                                                 
  local pseudopotential read in
  partial core-charges read in
  partial kinetic energy density read in
  atomic valenz-charges read in
  non local Contribution for L=            0  read in
    real space projection operators read in
  non local Contribution for L=            0  read in
    real space projection operators read in
  non local Contribution for L=            1  read in
    real space projection operators read in
  non local Contribution for L=            1  read in
    real space projection operators read in
  non local Contribution for L=            2  read in
    real space projection operators read in
    PAW grid and wavefunctions read in
 
   number of l-projection  operators is LMAX  =            5
   number of lm-projection operators is LMMAX =           13
 
 Optimization of the real space projectors (new method)

 maximal supplied QI-value         = 34.20
 optimisation between [QCUT,QGAM] = [ 11.29, 22.57] = [ 35.68,142.71] Ry 
 Optimized for a Real-space Cutoff    1.16 Angstroem

   l    n(q)    QCUT    max X(q) W(low)/X(q) W(high)/X(q)  e(spline) 
   0      8    11.287    19.460    0.40E-03    0.73E-03    0.16E-06
   0      8    11.287    12.209    0.38E-03    0.70E-03    0.15E-06
   1      7    11.287     4.655    0.22E-03    0.25E-04    0.22E-06
 Optimization of the real space projectors (new method)

 maximal supplied QI-value         = 25.13
 optimisation between [QCUT,QGAM] = [ 11.31, 22.87] = [ 35.82,146.48] Ry 
 Optimized for a Real-space Cutoff    1.00 Angstroem

   l    n(q)    QCUT    max X(q) W(low)/X(q) W(high)/X(q)  e(spline) 
   0      7    11.310   115.676    0.43E-03    0.13E-02    0.19E-06
   0      7    11.310    87.132    0.43E-03    0.13E-02    0.18E-06
   1      6    11.310     4.429    0.42E-03    0.74E-03    0.11E-06
   1      6    11.310     2.733    0.34E-03    0.55E-03    0.92E-07
 Optimization of the real space projectors (new method)

 maximal supplied QI-value         = 25.13
 optimisation between [QCUT,QGAM] = [ 11.31, 22.87] = [ 35.82,146.48] Ry 
 Optimized for a Real-space Cutoff    1.27 Angstroem

   l    n(q)    QCUT    max X(q) W(low)/X(q) W(high)/X(q)  e(spline) 
   0      9    11.310    79.467    0.75E-04    0.16E-03    0.36E-06
   0      9    11.310    66.151    0.74E-04    0.16E-03    0.36E-06
   1      8    11.310    17.416    0.35E-03    0.12E-03    0.95E-06
   1      8    11.310    12.382    0.37E-03    0.13E-03    0.98E-06
 Optimization of the real space projectors (new method)

 maximal supplied QI-value         = 16.25
 optimisation between [QCUT,QGAM] = [ 11.38, 22.75] = [ 36.24,144.96] Ry 
 Optimized for a Real-space Cutoff    1.31 Angstroem

   l    n(q)    QCUT    max X(q) W(low)/X(q) W(high)/X(q)  e(spline) 
   0      9    11.376   194.483    0.24E-03    0.23E-03    0.67E-07
   0      9    11.376   190.334    0.23E-03    0.22E-03    0.65E-07
   1      8    11.376   116.687    0.25E-03    0.63E-04    0.16E-06
   1      8    11.376    88.696    0.25E-03    0.61E-04    0.16E-06
   2      8    11.376     4.877    0.17E-03    0.14E-03    0.29E-07
 Optimization of the real space projectors (new method)

 maximal supplied QI-value         = 12.09
 optimisation between [QCUT,QGAM] = [ 11.37, 22.86] = [ 36.19,146.31] Ry 
 Optimized for a Real-space Cutoff    1.66 Angstroem

   l    n(q)    QCUT    max X(q) W(low)/X(q) W(high)/X(q)  e(spline) 
   0     11    11.369   135.111    0.12E-03    0.69E-04    0.19E-05
   0     11    11.369   146.850    0.11E-03    0.65E-04    0.18E-05
   1     11    11.369   148.016    0.17E-03    0.32E-03    0.89E-06
   1     11    11.369   122.989    0.17E-03    0.32E-03    0.91E-06
   2     10    11.369     8.916    0.12E-03    0.45E-04    0.33E-06
  PAW_PBE H 15Jun2001                   :
 energy of atom  1       EATOM=  -12.4884
 kinetic energy error for atom=    0.0020 (will be added to EATOM!!)
  PAW_PBE C 08Apr2002                   :
 energy of atom  2       EATOM= -147.1560
 kinetic energy error for atom=    0.0076 (will be added to EATOM!!)
  PAW_PBE N 08Apr2002                   :
 energy of atom  3       EATOM= -264.5486
 kinetic energy error for atom=    0.0138 (will be added to EATOM!!)
  PAW_PBE I 08Apr2002                   :
 energy of atom  4       EATOM= -315.8678
 kinetic energy error for atom=    0.0009 (will be added to EATOM!!)
  PAW_PBE Pb 08Apr2002                  :
 energy of atom  5       EATOM=  -96.9868
 kinetic energy error for atom=    0.0000 (will be added to EATOM!!)
 
 
 POSCAR:  H  C  N  I Pb
  positions in cartesian coordinates
  No initial velocities read in
 exchange correlation table for  LEXCH =        8
   RHO(1)=    0.500       N(1)  =     2000
   RHO(2)=  100.500       N(2)  =     4000
 


--------------------------------------------------------------------------------------------------------


 ion  position               nearest neighbor table
   1  0.446  0.332  0.566- 187 1.02
   2  0.424  0.831  0.568- 188 1.03
   3  0.961  0.324  0.577- 189 1.03
   4  0.947  0.815  0.574- 190 1.03
   5  0.325  0.952  0.574- 194 1.03
   6  0.349  0.555  0.563- 195 1.03
   7  0.805  0.085  0.570- 196 1.03
   8  0.013  0.141  0.560- 183 1.02
   9  0.066  0.655  0.569- 184 1.02
  10  0.558  0.169  0.556- 185 1.02
  11  0.498  0.647  0.562- 186 1.02
  12  0.364  0.021  0.558- 194 1.01
  13  0.293  0.630  0.555- 195 1.02
  14  0.875  0.023  0.562- 196 1.02
  15  0.961  0.187  0.579- 183 1.02
  16  0.991  0.690  0.583- 184 1.03
  17  0.563  0.258  0.567- 185 1.03
  18  0.431  0.695  0.576- 186 1.02
  19  0.282  0.437  0.572- 191 1.03
  20  0.191  0.930  0.571- 192 1.02
  21  0.677  0.034  0.570- 193 1.02
  22  0.369  0.287  0.555- 187 1.03
  23  0.492  0.869  0.552- 188 1.02
  24  0.018  0.367  0.558- 189 1.03
  25  0.997  0.863  0.554- 190 1.03
  26  0.190  0.435  0.565- 191 1.02
  27  0.140  0.992  0.556- 192 1.02
  28  0.667  0.943  0.561- 193 1.00
  29  0.436  0.183  0.546- 146 1.09
  30  0.549  0.754  0.547- 147 1.09
  31  0.060  0.251  0.545- 144 1.09
  32  0.082  0.764  0.549- 145 1.09
  33  0.187  0.556  0.554- 148 1.09
  34  0.246  0.060  0.546- 149 1.09
  35  0.791  0.928  0.555- 150 1.09
  36  0.485  0.338  0.665- 205 1.02
  37  0.447  0.812  0.674- 206 1.02
  38  0.967  0.282  0.678- 207 1.02
  39  0.927  0.725  0.673- 208 1.03
  40  0.309  0.053  0.671- 209 1.03
  41  0.299  0.550  0.675- 210 1.03
  42  0.799  0.058  0.675- 211 1.02
  43  0.752  0.598  0.661- 212 1.03
  44  0.084  0.162  0.645- 197 1.03
  45  0.112  0.719  0.650- 198 1.02
  46  0.578  0.168  0.649- 199 1.03
  47  0.563  0.664  0.651- 200 1.02
  48  0.181  0.414  0.649- 201 1.01
  49  0.175  0.922  0.648- 202 1.00
  50  0.709  0.401  0.662- 203 1.02
  51  0.674  0.925  0.649- 204 1.01
  52  0.063  0.178  0.672- 197 1.03
  53  0.057  0.675  0.669- 198 1.03
  54  0.597  0.256  0.659- 199 1.02
  55  0.530  0.696  0.676- 200 1.02
  56  0.200  0.446  0.674- 201 1.02
  57  0.206  0.951  0.673- 202 1.02
  58  0.670  0.487  0.667- 203 1.02
  59  0.694  0.961  0.675- 204 1.03
  60  0.399  0.298  0.659- 205 1.02
  61  0.433  0.845  0.648- 206 1.02
  62  0.937  0.326  0.654- 207 1.02
  63  0.902  0.796  0.656- 208 1.02
  64  0.333  0.079  0.645- 209 1.02
  65  0.332  0.575  0.650- 210 1.01
  66  0.837  0.076  0.650- 211 1.02
  67  0.838  0.579  0.649- 212 1.03
  68  0.009  0.254  0.632- 151 1.08
  69  0.019  0.799  0.640- 152 1.09
  70  0.451  0.188  0.648- 153 1.09
  71  0.505  0.755  0.632- 154 1.10
  72  0.251  0.999  0.629- 156 1.09
  73  0.261  0.491  0.632- 155 1.09
  74  0.763  0.992  0.632- 158 1.09
  75  0.818  0.451  0.649- 157 1.09
  76  0.449  0.301  0.769- 221 1.02
  77  0.449  0.801  0.769- 222 1.02
  78  0.949  0.301  0.769- 223 1.02
  79  0.949  0.801  0.769- 224 1.02
  80  0.301  0.051  0.769- 225 1.02
  81  0.301  0.551  0.769- 226 1.02
  82  0.801  0.051  0.769- 227 1.02
  83  0.801  0.551  0.769- 228 1.02
  84  0.079  0.171  0.743- 213 1.02
  85  0.079  0.671  0.743- 214 1.02
  86  0.579  0.171  0.743- 215 1.02
  87  0.579  0.671  0.743- 216 1.02
  88  0.171  0.421  0.743- 217 1.02
  89  0.171  0.921  0.743- 218 1.02
  90  0.671  0.421  0.743- 219 1.02
  91  0.671  0.921  0.743- 220 1.02
  92  0.051  0.199  0.769- 213 1.02
  93  0.051  0.699  0.769- 214 1.02
  94  0.551  0.199  0.769- 215 1.02
  95  0.551  0.699  0.769- 216 1.02
  96  0.199  0.449  0.769- 217 1.02
  97  0.199  0.949  0.769- 218 1.02
  98  0.699  0.449  0.769- 219 1.02
  99  0.699  0.949  0.769- 220 1.02
 100  0.421  0.329  0.743- 221 1.02
 101  0.421  0.829  0.743- 222 1.02
 102  0.921  0.329  0.743- 223 1.02
 103  0.921  0.829  0.743- 224 1.02
 104  0.329  0.079  0.743- 225 1.02
 105  0.329  0.579  0.743- 226 1.02
 106  0.829  0.079  0.743- 227 1.02
 107  0.829  0.579  0.743- 228 1.02
 108  0.000  0.250  0.726- 161 1.09
 109  0.000  0.750  0.726- 162 1.09
 110  0.500  0.250  0.726- 159 1.09
 111  0.500  0.750  0.726- 160 1.09
 112  0.250  0.000  0.726- 163 1.09
 113  0.250  0.500  0.726- 164 1.09
 114  0.750  0.000  0.726- 165 1.09
 115  0.750  0.500  0.726- 166 1.09
 116  0.776  0.556  0.519- 173 1.10
 117  0.721  0.478  0.525- 173 1.09
 118  0.870  0.501  0.540- 174 1.10
 119  0.857  0.481  0.568- 174 1.10
 120  0.743  0.642  0.560- 175 1.10
 121  0.809  0.596  0.577- 175 1.09
 122  0.666  0.549  0.569- 176 1.10
 123  0.679  0.457  0.561- 176 1.10
 124  0.616  0.557  0.537- 177 1.10
 125  0.672  0.636  0.535- 177 1.09
 126  0.606  0.646  0.504- 178 1.11
 127  0.687  0.602  0.495- 178 1.11
 128  0.786  0.392  0.531- 179 1.10
 129  0.779  0.369  0.558- 179 1.11
 130  0.866  0.368  0.545- 179 1.10
 131  0.863  0.695  0.555- 180 1.10
 132  0.844  0.647  0.531- 180 1.10
 133  0.908  0.610  0.550- 180 1.10
 134  0.763  0.529  0.598- 181 1.09
 135  0.773  0.435  0.590- 181 1.09
 136  0.688  0.467  0.600- 181 1.10
 137  0.536  0.530  0.503- 182 1.09
 138  0.578  0.548  0.479- 182 1.10
 139  0.697  0.478  0.469- 168 1.09
 140  0.560  0.416  0.522- 169 1.09
 141  0.763  0.358  0.471- 170 1.09
 142  0.626  0.296  0.525- 171 1.09
 143  0.729  0.267  0.500- 172 1.09
 144  0.020  0.254  0.558-  31 1.09 189 1.31 183 1.32
 145  0.035  0.759  0.561-  32 1.09 184 1.31 190 1.32
 146  0.464  0.228  0.554-  29 1.09 185 1.31 187 1.31
 147  0.498  0.757  0.556-  30 1.09 188 1.31 186 1.31
 148  0.240  0.532  0.559-  33 1.09 195 1.31 191 1.32
 149  0.251  0.011  0.556-  34 1.09 192 1.31 194 1.31
 150  0.772  0.982  0.561-  35 1.09 196 1.31 193 1.31
 151  0.011  0.244  0.649-  68 1.08 197 1.31 207 1.32
 152  0.008  0.760  0.652-  69 1.09 198 1.31 208 1.32
 153  0.487  0.232  0.653-  70 1.09 205 1.31 199 1.31
 154  0.498  0.755  0.649-  71 1.10 200 1.31 206 1.31
 155  0.256  0.494  0.649-  73 1.09 201 1.31 210 1.32
 156  0.254  0.000  0.647-  72 1.09 209 1.31 202 1.32
 157  0.776  0.488  0.655-  75 1.09 212 1.30 203 1.32
 158  0.756  1.000  0.649-  74 1.09 211 1.31 204 1.31
 159  0.500  0.250  0.743- 110 1.09 221 1.31 215 1.31
 160  0.500  0.750  0.743- 111 1.09 222 1.31 216 1.31
 161  1.000  0.250  0.743- 108 1.09 223 1.31 213 1.31
 162  1.000  0.750  0.743- 109 1.09 224 1.31 214 1.31
 163  0.250  0.000  0.743- 112 1.09 225 1.31 218 1.31
 164  0.250  0.500  0.743- 113 1.09 226 1.31 217 1.31
 165  0.750  0.000  0.743- 114 1.09 227 1.31 220 1.31
 166  0.750  0.500  0.743- 115 1.09 228 1.31 219 1.31
 167  0.624  0.456  0.495- 169 1.40 168 1.40 182 1.50
 168  0.682  0.438  0.481- 139 1.09 170 1.40 167 1.40
 169  0.604  0.403  0.511- 140 1.09 171 1.39 167 1.40
 170  0.719  0.371  0.483- 141 1.09 168 1.40 172 1.40
 171  0.641  0.336  0.513- 142 1.09 169 1.39 172 1.40
 172  0.699  0.319  0.499- 143 1.09 171 1.40 170 1.40
 173  0.732  0.535  0.530- 117 1.09 116 1.10 229 1.52 177 1.53
 174  0.831  0.478  0.552- 118 1.10 119 1.10 229 1.52 179 1.52
 175  0.792  0.605  0.560- 121 1.09 120 1.10 180 1.51 229 1.51
 176  0.706  0.504  0.568- 123 1.10 122 1.10 181 1.51 229 1.53
 177  0.662  0.582  0.528- 125 1.09 124 1.10 173 1.53 178 1.54
 178  0.638  0.593  0.505- 127 1.11 126 1.11 177 1.54 182 1.54
 179  0.813  0.398  0.546- 130 1.10 128 1.10 129 1.11 174 1.52
 180  0.855  0.639  0.548- 132 1.10 131 1.10 133 1.10 175 1.51
 181  0.736  0.483  0.590- 135 1.09 134 1.09 136 1.10 176 1.51
 182  0.589  0.531  0.495- 137 1.09 138 1.10 167 1.50 178 1.54
 183  0.998  0.191  0.567-  15 1.02   8 1.02 144 1.32
 184  0.031  0.699  0.572-   9 1.02  16 1.03 145 1.31
 185  0.535  0.220  0.558-  10 1.02  17 1.03 146 1.31
 186  0.473  0.696  0.565-  11 1.02  18 1.02 147 1.31
 187  0.425  0.288  0.558-   1 1.02  22 1.03 146 1.31
 188  0.468  0.822  0.558-  23 1.02   2 1.03 147 1.31
 189  0.996  0.319  0.564-   3 1.03  24 1.03 144 1.31
 190  0.988  0.814  0.562-  25 1.03   4 1.03 145 1.32
 191  0.239  0.461  0.564-  26 1.02  19 1.03 148 1.32
 192  0.191  0.974  0.560-  20 1.02  27 1.02 149 1.31
 193  0.700  0.988  0.563-  28 1.00  21 1.02 150 1.31
 194  0.317  0.993  0.563-  12 1.01   5 1.03 149 1.31
 195  0.298  0.575  0.559-  13 1.02   6 1.03 148 1.31
 196  0.821  0.033  0.565-  14 1.02   7 1.03 150 1.31
 197  0.055  0.192  0.656-  52 1.03  44 1.03 151 1.31
 198  0.061  0.714  0.657-  45 1.02  53 1.03 152 1.31
 199  0.558  0.218  0.654-  54 1.02  46 1.03 153 1.31
 200  0.532  0.701  0.660-  55 1.02  47 1.02 154 1.31
 201  0.210  0.449  0.658-  48 1.01  56 1.02 155 1.31
 202  0.209  0.955  0.657-  49 1.00  57 1.02 156 1.32
 203  0.713  0.457  0.661-  50 1.02  58 1.02 157 1.32
 204  0.705  0.959  0.659-  51 1.01  59 1.03 158 1.31
 205  0.456  0.294  0.659-  36 1.02  60 1.02 153 1.31
 206  0.458  0.807  0.658-  61 1.02  37 1.02 154 1.31
 207  0.969  0.286  0.661-  38 1.02  62 1.02 151 1.32
 208  0.942  0.762  0.661-  63 1.02  39 1.03 152 1.32
 209  0.301  0.046  0.655-  64 1.02  40 1.03 156 1.31
 210  0.299  0.543  0.659-  65 1.01  41 1.03 155 1.32
 211  0.800  0.047  0.659-  42 1.02  66 1.02 158 1.31
 212  0.789  0.558  0.656-  67 1.03  43 1.03 157 1.30
 213  0.046  0.204  0.753-  92 1.02  84 1.02 161 1.31
 214  0.046  0.704  0.753-  93 1.02  85 1.02 162 1.31
 215  0.546  0.204  0.753-  94 1.02  86 1.02 159 1.31
 216  0.546  0.704  0.753-  95 1.02  87 1.02 160 1.31
 217  0.204  0.454  0.753-  96 1.02  88 1.02 164 1.31
 218  0.204  0.954  0.753-  97 1.02  89 1.02 163 1.31
 219  0.704  0.454  0.753-  98 1.02  90 1.02 166 1.31
 220  0.704  0.954  0.753-  99 1.02  91 1.02 165 1.31
 221  0.454  0.296  0.753-  76 1.02 100 1.02 159 1.31
 222  0.454  0.796  0.753-  77 1.02 101 1.02 160 1.31
 223  0.954  0.296  0.753-  78 1.02 102 1.02 161 1.31
 224  0.954  0.796  0.753-  79 1.02 103 1.02 162 1.31
 225  0.296  0.046  0.753-  80 1.02 104 1.02 163 1.31
 226  0.296  0.546  0.753-  81 1.02 105 1.02 164 1.31
 227  0.796  0.046  0.753-  82 1.02 106 1.02 165 1.31
 228  0.796  0.546  0.753-  83 1.02 107 1.02 166 1.31
 229  0.765  0.530  0.552- 175 1.51 174 1.52 173 1.52 176 1.53
 230  0.508  0.016  0.551- 304 3.26
 231  0.478  0.499  0.555- 305 3.15
 232  0.004  0.004  0.549- 302 3.51
 233  0.040  0.506  0.553- 303 3.28
 234  0.234  0.243  0.552- 306 3.17
 235  0.255  0.764  0.553- 307 3.19
 236  0.736  0.202  0.555- 308 3.08
 237  0.703  0.792  0.554- 309 3.21
 238  0.000  0.983  0.654- 302 3.05 310 3.19
 239  0.998  0.501  0.655- 311 3.11 303 3.13
 240  0.503  0.015  0.654- 304 3.17 312 3.19
 241  0.513  0.488  0.655- 313 3.11 305 3.16
 242  0.261  0.246  0.654- 314 3.17 306 3.25
 243  0.259  0.753  0.655- 315 3.15 307 3.18
 244  0.754  0.263  0.655- 316 3.15 308 3.26
 245  0.744  0.751  0.654- 317 3.15 309 3.22
 246  0.135  0.110  0.608- 306 3.18 302 3.19
 247  0.151  0.604  0.609- 307 3.12 303 3.19
 248  0.648  0.105  0.611- 308 3.09 304 3.18
 249  0.617  0.630  0.611- 309 3.19 305 3.31
 250  0.361  0.384  0.606- 305 3.16 306 3.25
 251  0.373  0.882  0.607- 304 3.28 307 3.33
 252  0.892  0.365  0.611- 303 3.26 308 3.49
 253  0.872  0.874  0.606- 302 3.20 309 3.24
 254  0.125  0.368  0.609- 306 3.14 303 3.21
 255  0.124  0.867  0.608- 307 3.19 302 3.27
 256  0.589  0.335  0.602- 308 3.22 305 3.29
 257  0.618  0.873  0.612- 309 3.07 304 3.26
 258  0.385  0.134  0.605- 304 3.12 306 3.22
 259  0.385  0.630  0.611- 307 3.23 305 3.24
 260  0.886  0.132  0.612- 302 3.20 308 3.35
 261  0.900  0.641  0.612- 303 3.22 309 3.64
 262  0.000  0.000  0.755- 310 3.13 318 3.27
 263  0.000  0.500  0.755- 311 3.13 319 3.27
 264  0.500  0.000  0.755- 312 3.13 320 3.27
 265  0.500  0.500  0.755- 313 3.13 321 3.27
 266  0.250  0.250  0.755- 314 3.13 322 3.27
 267  0.250  0.750  0.755- 315 3.13 323 3.27
 268  0.750  0.250  0.755- 316 3.13 324 3.27
 269  0.750  0.750  0.755- 317 3.13 325 3.27
 270  0.136  0.114  0.705- 310 3.20 314 3.20
 271  0.136  0.614  0.705- 311 3.20 315 3.20
 272  0.636  0.114  0.705- 312 3.20 316 3.20
 273  0.636  0.614  0.705- 313 3.20 317 3.20
 274  0.364  0.386  0.705- 313 3.20 314 3.20
 275  0.364  0.886  0.705- 312 3.20 315 3.20
 276  0.864  0.386  0.705- 311 3.20 316 3.20
 277  0.864  0.886  0.705- 310 3.20 317 3.20
 278  0.114  0.364  0.705- 314 3.21 311 3.21
 279  0.114  0.864  0.705- 315 3.21 310 3.21
 280  0.614  0.364  0.705- 316 3.21 313 3.21
 281  0.614  0.864  0.705- 317 3.21 312 3.21
 282  0.386  0.136  0.705- 314 3.21 312 3.21
 283  0.386  0.636  0.705- 315 3.21 313 3.21
 284  0.886  0.136  0.705- 316 3.21 310 3.21
 285  0.886  0.636  0.705- 317 3.21 311 3.21
 286  0.135  0.115  0.801- 318 3.22 322 3.22
 287  0.135  0.615  0.801- 319 3.22 323 3.22
 288  0.635  0.115  0.801- 320 3.22 324 3.22
 289  0.635  0.615  0.801- 321 3.22 325 3.22
 290  0.365  0.385  0.801- 321 3.22 322 3.22
 291  0.365  0.885  0.801- 320 3.22 323 3.22
 292  0.865  0.385  0.801- 319 3.22 324 3.22
 293  0.865  0.885  0.801- 318 3.22 325 3.22
 294  0.115  0.365  0.801- 319 3.23 322 3.23
 295  0.115  0.865  0.801- 318 3.23 323 3.23
 296  0.615  0.365  0.801- 321 3.23 324 3.23
 297  0.615  0.865  0.801- 320 3.23 325 3.23
 298  0.385  0.135  0.801- 320 3.23 322 3.23
 299  0.385  0.635  0.801- 321 3.23 323 3.23
 300  0.885  0.135  0.801- 318 3.23 324 3.23
 301  0.885  0.635  0.801- 319 3.23 325 3.23
 302  0.999  0.998  0.605- 238 3.05 246 3.19 253 3.20 260 3.20 255 3.27 232 3.51
 303  0.008  0.501  0.605- 239 3.13 247 3.19 254 3.21 261 3.22 252 3.26 233 3.28
 304  0.503  0.008  0.603- 258 3.12 240 3.17 248 3.18 257 3.26 230 3.26 251 3.28
 305  0.498  0.492  0.605- 231 3.15 241 3.16 250 3.16 259 3.24 256 3.29 249 3.31
 306  0.246  0.245  0.602- 254 3.14 234 3.17 246 3.18 258 3.22 242 3.25 250 3.25
 307  0.250  0.745  0.604- 247 3.12 243 3.18 235 3.19 255 3.19 259 3.23 251 3.33
 308  0.743  0.245  0.603- 236 3.08 248 3.09 256 3.22 244 3.26 260 3.35 252 3.49
 309  0.738  0.756  0.603- 257 3.07 249 3.19 237 3.21 245 3.22 253 3.24 261 3.64
 310  0.000  0.000  0.705- 262 3.13 238 3.19 270 3.20 277 3.20 279 3.21 284 3.21
 311  0.000  0.500  0.705- 239 3.11 263 3.13 271 3.20 276 3.20 278 3.21 285 3.21
 312  0.500  0.000  0.705- 264 3.13 240 3.19 272 3.20 275 3.20 281 3.21 282 3.21
 313  0.500  0.500  0.705- 241 3.11 265 3.13 273 3.20 274 3.20 280 3.21 283 3.21
 314  0.250  0.250  0.705- 266 3.13 242 3.17 270 3.20 274 3.20 282 3.21 278 3.21
 315  0.250  0.750  0.705- 267 3.13 243 3.15 271 3.20 275 3.20 283 3.21 279 3.21
 316  0.750  0.250  0.705- 268 3.13 244 3.15 272 3.20 276 3.20 284 3.21 280 3.21
 317  0.750  0.750  0.705- 269 3.13 245 3.15 273 3.20 277 3.20 285 3.21 281 3.21
 318  0.000  0.000  0.807- 286 3.22 293 3.22 300 3.23 295 3.23 262 3.27
 319  0.000  0.500  0.807- 287 3.22 292 3.22 301 3.23 294 3.23 263 3.27
 320  0.500  0.000  0.807- 288 3.22 291 3.22 298 3.23 297 3.23 264 3.27
 321  0.500  0.500  0.807- 289 3.22 290 3.22 299 3.23 296 3.23 265 3.27
 322  0.250  0.250  0.807- 290 3.22 286 3.22 294 3.23 298 3.23 266 3.27
 323  0.250  0.750  0.807- 291 3.22 287 3.22 299 3.23 295 3.23 267 3.27
 324  0.750  0.250  0.807- 292 3.22 288 3.22 296 3.23 300 3.23 268 3.27
 325  0.750  0.750  0.807- 293 3.22 289 3.22 297 3.23 301 3.23 269 3.27
 

IMPORTANT INFORMATION: All symmetrisations will be switched off!
NOSYMM: (Re-)initialisation of all symmetry stuff for point group C_1.


----------------------------------------------------------------------------------------

                                     Primitive cell                                     

  volume of cell :   20385.2105

  direct lattice vectors                    reciprocal lattice vectors
    18.060800552  0.000000000  0.000000000     0.055368531  0.000015077 -0.000000000
    -0.004918649 18.062799454  0.000000000     0.000000000  0.055362404  0.000000000
     0.000000000  0.000000000 62.487499237     0.000000000 -0.000000000  0.016003201

  length of vectors
    18.060800552 18.062800123 62.487499237     0.055368533  0.055362404  0.016003201

  position of ions in fractional coordinates (direct lattice)
     0.446475978  0.331848794  0.566219757
     0.423525763  0.831122588  0.568431015
     0.960613111  0.324239800  0.577189969
     0.947110990  0.815008043  0.573698243
     0.324582984  0.952138279  0.573966973
     0.349434474  0.554854279  0.562706237
     0.805363572  0.084842556  0.570070564
     0.013475367  0.140791212  0.560398219
     0.066128008  0.655402699  0.568860239
     0.558456947  0.169420291  0.555625536
     0.497955492  0.646982680  0.561965855
     0.363856582  0.020520081  0.558107600
     0.292544155  0.629540167  0.554803167
     0.874824099  0.023172598  0.561510685
     0.960897591  0.187259883  0.578903324
     0.991055397  0.689861331  0.583442868
     0.563311256  0.257542706  0.567396811
     0.431009475  0.695484550  0.575623860
     0.282435467  0.437480551  0.572469603
     0.190574656  0.929633406  0.570555341
     0.677123237  0.034022678  0.570200229
     0.369370104  0.287169266  0.554793461
     0.492325245  0.869314598  0.552427143
     0.018003169  0.367269057  0.558239279
     0.997233756  0.863298036  0.554421316
     0.189898835  0.434515432  0.565409414
     0.139521520  0.991677212  0.555684996
     0.667427791  0.943176565  0.561380899
     0.435860130  0.182510676  0.546152999
     0.549139050  0.754098818  0.546626544
     0.060104800  0.250900676  0.545022219
     0.081517523  0.764079167  0.549428069
     0.186789775  0.555550628  0.553849485
     0.245570642  0.059576235  0.545535078
     0.791416802  0.928252119  0.554933625
     0.485256355  0.338347188  0.665077787
     0.447222601  0.812044877  0.673760310
     0.966772037  0.281608427  0.677655803
     0.926624542  0.724758395  0.673147821
     0.308996005  0.053134516  0.671310296
     0.299354900  0.550184322  0.674985835
     0.799363461  0.057923310  0.674795551
     0.752328318  0.598046179  0.660524447
     0.084374078  0.162276854  0.644839486
     0.111557946  0.718987817  0.650278074
     0.578304119  0.168288929  0.649177878
     0.562835551  0.664329207  0.650958019
     0.180600154  0.413564643  0.648548968
     0.175340968  0.922084833  0.648416679
     0.709313794  0.400607981  0.661748752
     0.674302822  0.924597119  0.649468830
     0.063034774  0.178037325  0.671766747
     0.057328955  0.675244498  0.669220644
     0.596765643  0.255847530  0.659389576
     0.530150955  0.696153656  0.675684156
     0.199819857  0.445960970  0.674035206
     0.206291937  0.950870946  0.673219857
     0.670167394  0.487023856  0.667339409
     0.693909646  0.961326772  0.674619124
     0.399380798  0.298060851  0.659421260
     0.433078880  0.845195710  0.647938311
     0.937130667  0.326078216  0.654414521
     0.902139614  0.796028430  0.655594140
     0.332919424  0.078558349  0.645446846
     0.332335101  0.575401878  0.649858129
     0.837306807  0.076095534  0.649923144
     0.838129225  0.578666993  0.649372436
     0.008549706  0.254313150  0.632123320
     0.018995103  0.799494863  0.639562552
     0.450700985  0.188312854  0.647739480
     0.504944729  0.754594694  0.631698125
     0.251249577  0.999057451  0.629224913
     0.261200416  0.491383309  0.631515837
     0.763325513  0.992378685  0.632121183
     0.818199436  0.450743914  0.648565146
     0.448745018  0.301283966  0.768889017
     0.448745007  0.801283913  0.768889017
     0.948744965  0.301283966  0.768889017
     0.948745007  0.801283913  0.768889017
     0.301275995  0.051294496  0.768872961
     0.301276011  0.551294499  0.768872961
     0.801275943  0.051294496  0.768872961
     0.801275984  0.551294499  0.768872961
     0.078771004  0.171180501  0.743441971
     0.078771006  0.671180448  0.743441971
     0.578771004  0.171180501  0.743441971
     0.578770992  0.671180448  0.743441971
     0.171199499  0.421174482  0.743421032
     0.171199501  0.921174508  0.743421032
     0.671199512  0.421174482  0.743421032
     0.671199501  0.921174508  0.743421032
     0.051256000  0.198714991  0.768889017
     0.051256002  0.698714925  0.768889017
     0.551256027  0.198714991  0.768889017
     0.551256016  0.698714925  0.768889017
     0.198723491  0.448703970  0.768872046
     0.198723493  0.948703970  0.768872046
     0.698723518  0.448703970  0.768872046
     0.698723507  0.948703970  0.768872046
     0.421231519  0.328817467  0.743441971
     0.421231508  0.828817440  0.743441971
     0.921231466  0.328817467  0.743441971
     0.921231508  0.828817440  0.743441971
     0.328800503  0.078824997  0.743421032
     0.328800492  0.578824964  0.743421032
     0.828800477  0.078824997  0.743421032
     0.828800519  0.578824964  0.743421032
     0.000003500  0.250001478  0.725821992
     0.000003500  0.750001452  0.725821992
     0.500003506  0.250001478  0.725821992
     0.500003495  0.750001452  0.725821992
     0.250000502  0.000000000  0.725803983
     0.250000517  0.500000000  0.725803983
     0.750000502  0.000000000  0.725803983
     0.750000490  0.500000000  0.725803983
     0.776310449  0.556461969  0.519464129
     0.721153995  0.478001943  0.525358496
     0.869578637  0.501264927  0.540146244
     0.857301465  0.481375294  0.567631783
     0.743296289  0.641737862  0.560021740
     0.808607203  0.596184585  0.576750672
     0.665956942  0.548865066  0.569465585
     0.678535240  0.456832598  0.560578370
     0.616340130  0.556767932  0.537162249
     0.672318288  0.636494311  0.535321304
     0.605990489  0.645614533  0.503931359
     0.686845372  0.601530774  0.494646634
     0.785648161  0.392183210  0.530542394
     0.779002619  0.369095356  0.558369615
     0.865962076  0.368476831  0.545170015
     0.863081056  0.694771253  0.554661659
     0.844392997  0.647319635  0.530831576
     0.908256173  0.609630892  0.549977617
     0.763254947  0.529181713  0.598195330
     0.772671178  0.435481656  0.589701993
     0.687923006  0.467042301  0.600155378
     0.535890448  0.530419608  0.503479730
     0.577612027  0.548132445  0.478545178
     0.697224830  0.477915724  0.468868590
     0.559628294  0.415682095  0.522100520
     0.762841794  0.357717345  0.471407367
     0.625873939  0.296071275  0.524933973
     0.728567462  0.266883966  0.499877997
     0.019570150  0.253973344  0.557970182
     0.035207376  0.759188463  0.560609504
     0.464286925  0.228484514  0.553874759
     0.498198892  0.757408442  0.556001893
     0.239543260  0.531739497  0.558891876
     0.251009476  0.010968986  0.555857882
     0.771648796  0.981587570  0.560808824
     0.010748041  0.244148457  0.649184288
     0.007512656  0.759512430  0.652131533
     0.487126398  0.232114593  0.653463586
     0.498322319  0.754592212  0.649136732
     0.256386624  0.493966965  0.648856830
     0.253984163  0.000302700  0.646576833
     0.775767804  0.487500038  0.654937819
     0.756367702  0.999770934  0.649241795
     0.499988984  0.249994984  0.743277021
     0.499989025  0.749994958  0.743277021
     0.999988984  0.249994984  0.743277021
     0.999989025  0.749994958  0.743277021
     0.250000502  0.000001000  0.743255960
     0.250000517  0.500001003  0.743255960
     0.750000502  0.000001000  0.743255960
     0.750000491  0.500001003  0.743255960
     0.624426280  0.455849663  0.495498795
     0.681523946  0.438314517  0.481177510
     0.604368150  0.403437991  0.510957392
     0.718746454  0.370528021  0.482693255
     0.641150656  0.335883647  0.512550698
     0.699024715  0.319207493  0.498549576
     0.732409369  0.535131275  0.530073306
     0.830709390  0.477893443  0.551825582
     0.791838520  0.604838867  0.560100247
     0.706331992  0.503613950  0.568342191
     0.662278299  0.582098897  0.528237246
     0.637593945  0.593091326  0.504882141
     0.812898240  0.398061759  0.546196648
     0.855425938  0.639211016  0.547921786
     0.735546555  0.483056108  0.590215768
     0.589162676  0.531187814  0.495145391
     0.997797039  0.190796484  0.566629263
     0.031457979  0.698593121  0.571996120
     0.534709589  0.219955612  0.558202773
     0.472671959  0.696494834  0.564592418
     0.425345027  0.288121578  0.557901260
     0.467587647  0.822461811  0.558223468
     0.995704716  0.319023942  0.564272468
     0.987519778  0.813954253  0.562106569
     0.239299315  0.461286929  0.564287608
     0.190707961  0.974044593  0.560462991
     0.699658705  0.987960454  0.563350592
     0.317441590  0.993417882  0.562751717
     0.297827735  0.574975536  0.558742065
     0.820529730  0.032791931  0.565136777
     0.054589660  0.191554461  0.656022021
     0.060814670  0.713758891  0.657215497
     0.558229138  0.218421654  0.654352924
     0.532425302  0.701359509  0.659509962
     0.209684419  0.448535386  0.657970225
     0.208911161  0.955366885  0.656893044
     0.713246267  0.456962903  0.661245783
     0.705132913  0.959307788  0.658534913
     0.455874320  0.294224227  0.659342265
     0.457776174  0.807167795  0.657711690
     0.968670642  0.286421809  0.661469704
     0.942059466  0.761640442  0.661374409
     0.301377819  0.046125525  0.655170288
     0.298965156  0.542618675  0.658687593
     0.799660037  0.047376454  0.658785757
     0.789372660  0.558349540  0.655534313
     0.045862501  0.204119496  0.752725994
     0.045862500  0.704119456  0.752725994
     0.545862507  0.204119496  0.752725994
     0.545862496  0.704119456  0.752725994
     0.204119002  0.454101003  0.752704994
     0.204118991  0.954100951  0.752704994
     0.704118976  0.454101003  0.752704994
     0.704118964  0.954100951  0.752704994
     0.454140018  0.295888490  0.752726971
     0.454140007  0.795888516  0.752726971
     0.954140018  0.295888490  0.752726971
     0.954140060  0.795888516  0.752726971
     0.295882492  0.045900498  0.752704994
     0.295882481  0.545900528  0.752704994
     0.795882439  0.045900498  0.752704994
     0.795882481  0.545900528  0.752704994
     0.765003018  0.529993636  0.552478972
     0.507643948  0.016483855  0.551279696
     0.477672537  0.498643046  0.555004746
     0.004381922  0.004140398  0.549268308
     0.039619808  0.505570052  0.553477279
     0.233791886  0.242702011  0.551905554
     0.255212487  0.763869297  0.553196889
     0.735747157  0.201726717  0.555170306
     0.703391245  0.792467383  0.553650288
     0.000248339  0.983294290  0.654067040
     0.998015766  0.500754902  0.655141901
     0.502631063  0.014617221  0.653958070
     0.512916338  0.488443111  0.655270588
     0.261215274  0.245605225  0.654187425
     0.258615683  0.753233411  0.654554381
     0.754062726  0.263476614  0.654576968
     0.744176468  0.751270550  0.654436315
     0.135006377  0.109837800  0.607651567
     0.150968002  0.603952869  0.609150890
     0.648009316  0.104794306  0.610692947
     0.616695476  0.630366451  0.610966500
     0.360748797  0.383850202  0.606087472
     0.372585244  0.881966353  0.606739153
     0.891670210  0.364747333  0.610929994
     0.872186779  0.873982232  0.606004570
     0.125047586  0.368039507  0.609145152
     0.123512923  0.866889652  0.607730074
     0.588908373  0.335354482  0.601687361
     0.617757197  0.872535258  0.612069382
     0.384859262  0.133814656  0.604544439
     0.384950976  0.630149716  0.611068327
     0.885783620  0.132089623  0.612070236
     0.900481744  0.640830111  0.611846437
     0.000000000  0.000000000  0.754927972
     0.000000000  0.500000000  0.754927972
     0.500000000  0.000000000  0.754927972
     0.499999989  0.500000000  0.754927972
     0.250000496  0.250000000  0.754939022
     0.250000511  0.749999974  0.754939022
     0.750000470  0.250000000  0.754939022
     0.750000458  0.749999974  0.754939022
     0.135790500  0.114209997  0.704782994
     0.135790502  0.614209984  0.704782994
     0.635790447  0.114209997  0.704782994
     0.635790488  0.614209984  0.704782994
     0.364209516  0.385789989  0.704782994
     0.364209505  0.885789963  0.704782994
     0.864209542  0.385789989  0.704782994
     0.864209531  0.885789963  0.704782994
     0.114217990  0.364218986  0.704780979
     0.114217992  0.864218986  0.704780979
     0.614218004  0.364218986  0.704780979
     0.614217992  0.864218986  0.704780979
     0.385782012  0.135781489  0.704782017
     0.385782001  0.635781489  0.704782017
     0.885781985  0.135781489  0.704782017
     0.885782027  0.635781489  0.704782017
     0.134667000  0.115332001  0.801256025
     0.134666989  0.615331988  0.801256025
     0.634666987  0.115332001  0.801256025
     0.634666976  0.615331988  0.801256025
     0.365333002  0.384667985  0.801256025
     0.365332990  0.884667959  0.801256025
     0.865332949  0.384667985  0.801256025
     0.865332938  0.884667959  0.801256025
     0.115328503  0.365337004  0.801264999
     0.115328505  0.865336978  0.801264999
     0.615328503  0.365337004  0.801264999
     0.615328492  0.865336978  0.801264999
     0.384671513  0.134662996  0.801264999
     0.384671501  0.634662970  0.801264999
     0.884671486  0.134662996  0.801264999
     0.884671528  0.634662970  0.801264999
     0.998937638  0.997714981  0.605423949
     0.008110100  0.500906801  0.605132020
     0.502931436  0.008123968  0.603336312
     0.497883891  0.492452674  0.604967070
     0.246107682  0.245427165  0.602424997
     0.249949091  0.744607427  0.603861075
     0.742514060  0.245049529  0.602812770
     0.737573841  0.755857140  0.603020819
     0.000000500  0.000000500  0.704828963
     0.000000500  0.500000475  0.704828963
     0.500000475  0.000000500  0.704828963
     0.500000464  0.500000475  0.704828963
     0.249999994  0.249999472  0.704824995
     0.250000010  0.749999498  0.704824995
     0.749999994  0.249999472  0.704824995
     0.749999983  0.749999498  0.704824995
     0.000000000  0.000000000  0.807317968
     0.000000000  0.500000000  0.807317968
     0.500000000  0.000000000  0.807317968
     0.499999989  0.500000000  0.807317968
     0.249999994  0.250000000  0.807317968
     0.250000010  0.749999974  0.807317968
     0.749999994  0.250000000  0.807317968
     0.749999983  0.749999974  0.807317968

  ion indices of the primitive-cell ions
   primitive index   ion index
                 1           1
                 2           2
                 3           3
                 4           4
                 5           5
                 6           6
                 7           7
                 8           8
                 9           9
                10          10
                11          11
                12          12
                13          13
                14          14
                15          15
                16          16
                17          17
                18          18
                19          19
                20          20
                21          21
                22          22
                23          23
                24          24
                25          25
                26          26
                27          27
                28          28
                29          29
                30          30
                31          31
                32          32
                33          33
                34          34
                35          35
                36          36
                37          37
                38          38
                39          39
                40          40
                41          41
                42          42
                43          43
                44          44
                45          45
                46          46
                47          47
                48          48
                49          49
                50          50
                51          51
                52          52
                53          53
                54          54
                55          55
                56          56
                57          57
                58          58
                59          59
                60          60
                61          61
                62          62
                63          63
                64          64
                65          65
                66          66
                67          67
                68          68
                69          69
                70          70
                71          71
                72          72
                73          73
                74          74
                75          75
                76          76
                77          77
                78          78
                79          79
                80          80
                81          81
                82          82
                83          83
                84          84
                85          85
                86          86
                87          87
                88          88
                89          89
                90          90
                91          91
                92          92
                93          93
                94          94
                95          95
                96          96
                97          97
                98          98
                99          99
               100         100
               101         101
               102         102
               103         103
               104         104
               105         105
               106         106
               107         107
               108         108
               109         109
               110         110
               111         111
               112         112
               113         113
               114         114
               115         115
               116         116
               117         117
               118         118
               119         119
               120         120
               121         121
               122         122
               123         123
               124         124
               125         125
               126         126
               127         127
               128         128
               129         129
               130         130
               131         131
               132         132
               133         133
               134         134
               135         135
               136         136
               137         137
               138         138
               139         139
               140         140
               141         141
               142         142
               143         143
               144         144
               145         145
               146         146
               147         147
               148         148
               149         149
               150         150
               151         151
               152         152
               153         153
               154         154
               155         155
               156         156
               157         157
               158         158
               159         159
               160         160
               161         161
               162         162
               163         163
               164         164
               165         165
               166         166
               167         167
               168         168
               169         169
               170         170
               171         171
               172         172
               173         173
               174         174
               175         175
               176         176
               177         177
               178         178
               179         179
               180         180
               181         181
               182         182
               183         183
               184         184
               185         185
               186         186
               187         187
               188         188
               189         189
               190         190
               191         191
               192         192
               193         193
               194         194
               195         195
               196         196
               197         197
               198         198
               199         199
               200         200
               201         201
               202         202
               203         203
               204         204
               205         205
               206         206
               207         207
               208         208
               209         209
               210         210
               211         211
               212         212
               213         213
               214         214
               215         215
               216         216
               217         217
               218         218
               219         219
               220         220
               221         221
               222         222
               223         223
               224         224
               225         225
               226         226
               227         227
               228         228
               229         229
               230         230
               231         231
               232         232
               233         233
               234         234
               235         235
               236         236
               237         237
               238         238
               239         239
               240         240
               241         241
               242         242
               243         243
               244         244
               245         245
               246         246
               247         247
               248         248
               249         249
               250         250
               251         251
               252         252
               253         253
               254         254
               255         255
               256         256
               257         257
               258         258
               259         259
               260         260
               261         261
               262         262
               263         263
               264         264
               265         265
               266         266
               267         267
               268         268
               269         269
               270         270
               271         271
               272         272
               273         273
               274         274
               275         275
               276         276
               277         277
               278         278
               279         279
               280         280
               281         281
               282         282
               283         283
               284         284
               285         285
               286         286
               287         287
               288         288
               289         289
               290         290
               291         291
               292         292
               293         293
               294         294
               295         295
               296         296
               297         297
               298         298
               299         299
               300         300
               301         301
               302         302
               303         303
               304         304
               305         305
               306         306
               307         307
               308         308
               309         309
               310         310
               311         311
               312         312
               313         313
               314         314
               315         315
               316         316
               317         317
               318         318
               319         319
               320         320
               321         321
               322         322
               323         323
               324         324
               325         325

----------------------------------------------------------------------------------------

 
 
 KPOINTS: Automatic Mesh                          

Automatic generation of k-mesh.
 Grid dimensions read from file:
 generate k-points for:    3    3    1

 Generating k-lattice:

  Cartesian coordinates                     Fractional coordinates (reciprocal lattice)
     0.018456177  0.000005026 -0.000000000     0.333333333  0.000000000  0.000000000
     0.000000000  0.018454135  0.000000000     0.000000000  0.333333333  0.000000000
     0.000000000 -0.000000000  0.016003201     0.000000000  0.000000000  1.000000000

  Length of vectors
     0.018456178  0.018454135  0.016003201

  Shift w.r.t. Gamma in fractional coordinates (k-lattice)
     0.000000000  0.000000000  0.000000000

 
 Subroutine IBZKPT returns following result:
 ===========================================
 
 Found      5 irreducible k-points:
 
 Following reciprocal coordinates:
            Coordinates               Weight
  0.000000  0.000000  0.000000      1.000000
  0.333333  0.000000  0.000000      2.000000
  0.000000  0.333333  0.000000      2.000000
  0.333333  0.333333  0.000000      2.000000
 -0.333333  0.333333  0.000000      2.000000
 
 Following cartesian coordinates:
            Coordinates               Weight
  0.000000  0.000000  0.000000      1.000000
  0.018456  0.000005  0.000000      2.000000
  0.000000  0.018454  0.000000      2.000000
  0.018456  0.018459  0.000000      2.000000
 -0.018456  0.018449  0.000000      2.000000
 


--------------------------------------------------------------------------------------------------------




 Dimension of arrays:
   k-points           NKPTS =      5   k-points in BZ     NKDIM =      5   number of bands    NBANDS=    732
   number of dos      NEDOS =    301   number of ions     NIONS =    325
   non local maximal  LDIM  =      5   non local SUM 2l+1 LMDIM =     13
   total plane-waves  NPLWV = ******
   max r-space proj   IRMAX =   3336   max aug-charges    IRDMAX=  19845
   dimension x,y,z NGX =   100 NGY =  100 NGZ =  350
   dimension x,y,z NGXF=   200 NGYF=  200 NGZF=  700
   support grid    NGXF=   200 NGYF=  200 NGZF=  700
   ions per type =             143  39  47  72  24
   NGX,Y,Z   is equivalent  to a cutoff of   9.20,  9.20,  9.31 a.u.
   NGXF,Y,Z  is equivalent  to a cutoff of  18.41, 18.41, 18.62 a.u.

 SYSTEM =  PSC                                     
 POSCAR =   H  C  N  I Pb                          

 Startparameter for this run:
   NWRITE =      2    write-flag & timer
   PREC   = normal    normal or accurate (medium, high low for compatibility)
   ISTART =      0    job   : 0-new  1-cont  2-samecut
   ICHARG =      1    charge: 1-file 2-atom 10-const
   ISPIN  =      1    spin polarized calculation?
   LNONCOLLINEAR =      F non collinear calculations
   LSORBIT =      F    spin-orbit coupling
   INIWAV =      1    electr: 0-lowe 1-rand  2-diag
   LASPH  =      F    aspherical Exc in radial PAW
 Electronic Relaxation 1
   ENCUT  =  500.0 eV  36.75 Ry    6.06 a.u.  32.93 32.93113.93*2*pi/ulx,y,z
   ENINI  =  500.0     initial cutoff
   ENAUG  =  644.9 eV  augmentation charge cutoff
   NELM   =    600;   NELMIN=  2; NELMDL=  0     # of ELM steps 
   EDIFF  = 0.1E-03   stopping-criterion for ELM
   LREAL  =      T    real-space projection
   NLSPLINE    = F    spline interpolate recip. space projectors
   LCOMPAT=      F    compatible to vasp.4.4
   GGA_COMPAT  = F    GGA compatible to vasp.4.4-vasp.4.6
   LMAXPAW     = -100 max onsite density
   LMAXMIX     =    2 max onsite mixed and CHGCAR
   VOSKOWN=      0    Vosko Wilk Nusair interpolation
   ROPT   =   -0.00050  -0.00050  -0.00050  -0.00050
   ROPT   =   -0.00050
 Ionic relaxation
   EDIFFG = 0.1E-02   stopping-criterion for IOM
   NSW    =      0    number of steps for IOM
   NBLOCK =      1;   KBLOCK =      1    inner block; outer block 
   IBRION =     -1    ionic relax: 0-MD 1-quasi-New 2-CG
   NFREE  =      0    steps in history (QN), initial steepest desc. (CG)
   ISIF   =      2    stress and relaxation
   IWAVPR =     10    prediction:  0-non 1-charg 2-wave 3-comb
   ISYM   =      0    0-nonsym 1-usesym 2-fastsym
   LCORR  =      T    Harris-Foulkes like correction to forces

   POTIM  = 0.5000    time-step for ionic-motion
   TEIN   =    0.0    initial temperature
   TEBEG  =    0.0;   TEEND  =   0.0 temperature during run
   SMASS  =  -3.00    Nose mass-parameter (am)
   estimated Nose-frequenzy (Omega)   =  0.10E-29 period in steps = 0.13E+47 mass=  -0.745E-26a.u.
   SCALEE = 1.0000    scale energy and forces
   NPACO  =    256;   APACO  = 16.0  distance and # of slots for P.C.
   PSTRESS=    0.0 pullay stress

  Mass of Ions in am
   POMASS =   1.00 12.01 14.00126.90207.20
  Ionic Valenz
   ZVAL   =   1.00  4.00  5.00  7.00  4.00
  Atomic Wigner-Seitz radii
   RWIGS  =  -1.00 -1.00 -1.00 -1.00 -1.00
  virtual crystal weights 
   VCA    =   1.00  1.00  1.00  1.00  1.00
   NELECT =    1134.0000    total number of electrons
   NUPDOWN=      -1.0000    fix difference up-down

 DOS related values:
   EMIN   =  10.00;   EMAX   =-10.00  energy-range for DOS
   EFERMI =   0.00
   ISMEAR =     0;   SIGMA  =   0.05  broadening in eV -4-tet -1-fermi 0-gaus

 Electronic relaxation 2 (details)
   IALGO  =     38    algorithm
   LDIAG  =      T    sub-space diagonalisation (order eigenvalues)
   LSUBROT=      F    optimize rotation matrix (better conditioning)
   TURBO    =      0    0=normal 1=particle mesh
   IRESTART =      0    0=no restart 2=restart with 2 vectors
   NREBOOT  =      0    no. of reboots
   NMIN     =      0    reboot dimension
   EREF     =   0.00    reference energy to select bands
   IMIX   =      4    mixing-type and parameters
     AMIX     =   0.40;   BMIX     =  0.01
     AMIX_MAG =   1.60;   BMIX_MAG =  0.01
     AMIN     =   0.01
     WC   =   100.;   INIMIX=   1;  MIXPRE=   1;  MAXMIX= -45

 Intra band minimization:
   WEIMIN = 0.0000     energy-eigenvalue tresh-hold
   EBREAK =  0.34E-07  absolut break condition
   DEPER  =   0.30     relativ break condition  

   TIME   =   0.40     timestep for ELM

  volume/ion in A,a.u.               =      62.72       423.28
  Fermi-wavevector in a.u.,A,eV,Ry     =   0.624944  1.180972  5.313816  0.390554
  Thomas-Fermi vector in A             =   1.685677
 
 Write flags
   LWAVE        =      F    write WAVECAR
   LDOWNSAMPLE  =      F    k-point downsampling of WAVECAR
   LCHARG       =      T    write CHGCAR
   LVTOT        =      T    write LOCPOT, total local potential
   LVHAR        =      F    write LOCPOT, Hartree potential only
   LELF         =      F    write electronic localiz. function (ELF)
   LORBIT       =      0    0 simple, 1 ext, 2 COOP (PROOUT), +10 PAW based schemes


 Dipole corrections
   LMONO  =      F    monopole corrections only (constant potential shift)
   LDIPOL =      T    correct potential (dipole corrections)
   IDIPOL =      3    1-x, 2-y, 3-z, 4-all directions 
   EPSILON=  1.0000000 bulk dielectric constant

 Exchange correlation treatment:
   GGA     =    --    GGA type
   LEXCH   =     8    internal setting for exchange type
   VOSKOWN=      0    Vosko Wilk Nusair interpolation
   LHFCALC =     F    Hartree Fock is set to
   LHFONE  =     F    Hartree Fock one center treatment
   AEXX    =    0.0000 exact exchange contribution

 Linear response parameters
   LEPSILON=     F    determine dielectric tensor
   LRPA    =     F    only Hartree local field effects (RPA)
   LNABLA  =     F    use nabla operator in PAW spheres
   LVEL    =     F    velocity operator in full k-point grid
   LINTERFAST=   F  fast interpolation
   KINTER  =     0    interpolate to denser k-point grid
   CSHIFT  =0.1000    complex shift for real part using Kramers Kronig
   OMEGAMAX=  -1.0    maximum frequency
   DEG_THRESHOLD= 0.2000000E-02 threshold for treating states as degnerate
   RTIME   =   -0.100 relaxation time in fs
  (WPLASMAI=    0.000 imaginary part of plasma frequency in eV, 0.658/RTIME)
   DFIELD  = 0.0000000 0.0000000 0.0000000 field for delta impulse in time
 
 Orbital magnetization related:
   ORBITALMAG=     F  switch on orbital magnetization
   LCHIMAG   =     F  perturbation theory with respect to B field
   DQ        =  0.001000  dq finite difference perturbation B field
   LLRAUG    =     F  two centre corrections for induced B field



--------------------------------------------------------------------------------------------------------


 Static calculation
 charge density and potential will be updated during run
 non-spin polarized calculation
 Variant of blocked Davidson
 Davidson routine will perform the subspace rotation
 perform sub-space diagonalisation
    after iterative eigenvector-optimisation
 modified Broyden-mixing scheme, WC =      100.0
 initial mixing is a Kerker type mixing with AMIX =  0.4000 and BMIX =      0.0100
 Hartree-type preconditioning will be used
 using additional bands           165
 real space projection scheme for non local part
[...]
     13.54561      0.00000     45.35368        -0.001506     -0.003474      0.013307
     13.54315      9.03140     45.35368         0.001196     -0.008301     -0.009190
     14.01805     10.05126     32.46001        -0.070838     -0.020513      0.192927
     13.02227      8.63405     32.82834        -0.045101     -0.018303     -0.075179
     15.70282      9.05425     33.75239        -0.043132      0.000349      0.044502
     15.48118      8.69499     35.46989        -0.035719      0.029811     -0.084991
     13.42137     11.59158     34.99436         0.126606     -0.093207     -0.016054
     14.60116     10.76876     36.03971         0.026637      0.077185      0.053833
     12.02502      9.91404     35.58448         0.035412     -0.013069      0.025804
     12.25264      8.25168     35.02914        -0.035842     -0.105930      0.028178
     11.12886     10.05679     33.56593         0.022655     -0.049799      0.044952
     12.13948     11.49687     33.45089         0.025711      0.258987      0.052753
     10.94150     11.66161     31.48941         0.104404     -0.217420      0.011108
     12.40202     10.86533     30.90923        -0.056852     -0.007727      0.049403
     14.18751      7.08393     33.15227         0.058619     -0.054171      0.135044
     14.06760      6.66690     34.89112         0.173359      0.219384     -0.261655
     15.63816      6.65572     34.06631        -0.059632     -0.021201      0.017851
     15.58452     12.54951     34.65942        -0.030505      0.076616      0.008975
     15.24723     11.69240     33.17034        -0.048221     -0.030692     -0.056338
     16.40084     11.01164     34.36673        -0.143887     -0.024618     -0.041599
     13.78239      9.55850     37.37973         0.084271      0.054688      0.122039
     13.95292      7.86602     36.84900         0.109810     -0.077342      0.020992
     12.42214      8.43609     37.50221         0.092427      0.061784     -0.066018
      9.67600      9.58086     31.46119        -0.144157     -0.103341      0.145374
     10.42944      9.90081     29.90309        -0.048293     -0.097621     -0.047619
     12.59009      8.63250     29.29843         0.045860      0.103737     -0.110740
     10.10529      7.50838     32.62476        -0.063763      0.091593      0.035128
     13.77577      6.46138     29.45707         0.077493     -0.034567     -0.038442
     11.30233      5.34788     32.80181        -0.017137      0.029359     -0.017437
     13.15720      4.82067     31.23613         0.014068     -0.068033      0.030583
      0.35220      4.58747     34.86616        -0.257910     -0.506473      0.310658
      0.63214     13.71307     35.03109        -0.019203      0.058361     -0.009704
      8.38427      4.12707     34.61025        -0.149455      0.028820      0.036778
      8.99415     13.68092     34.74317         0.181341     -0.052631     -0.144343
      4.32373      9.60470     34.92376        -0.015254      0.152516     -0.064886
      4.53338      0.19813     34.73417         0.250263      0.151946     -0.182448
     13.93177     17.73022     35.04354        -0.136156     -0.243106      0.093693
      0.19292      4.41000     40.56590        -0.326111      0.264117      0.662992
      0.13195     13.71892     40.75007        -0.355256      0.048920      0.297508
      8.79675      4.19264     40.83331        -0.149138     -0.027665      0.200525
      8.99639     13.63005     40.56293         0.004905      0.003372     -0.228868
      4.62812      8.92243     40.54544         0.369761      0.398641      0.087635
      4.58716      0.00547     40.40297        -0.316873     -0.323269      0.108772
     14.00859      8.80562     40.92543        -0.507093     -0.348198      0.156084
     13.65569     18.05866     40.56950        -0.337985     -0.317234      0.077714
      9.02897      4.51561     46.44552         0.014071     -0.002176     -0.003696
      9.02651     13.54701     46.44552         0.011601      0.005444      0.036370
     18.05937      4.51561     46.44552        -0.004868      0.021955      0.050155
     18.05691     13.54701     46.44552         0.006151      0.014978      0.007828
      4.51521      0.00002     46.44421         0.004863      0.002654      0.054835
      4.51275      9.03142     46.44421        -0.004344     -0.006939      0.035473
     13.54561      0.00002     46.44421        -0.008590     -0.009801      0.013414
     13.54315      9.03142     46.44421        -0.012913     -0.017903      0.005158
     11.27540      8.23392     30.96248         0.018061      0.088237     -0.017949
     12.30671      7.91719     30.06758         0.071965     -0.290641      0.175219
     10.91339      7.28722     31.92845        -0.091170     -0.073979      0.061596
     12.97931      6.69277     30.16229        -0.167503      0.022501      0.094886
     11.57804      6.06700     32.02801         0.116132     -0.150173      0.015968
     12.62338      5.76578     31.15312         0.066424      0.181975     -0.221875
     13.22527      9.66597     33.12296        -0.255379     -0.053857      0.006115
     15.00093      8.63209     34.48220         0.024286     -0.240456      0.009333
     14.29826     10.92508     34.99926        -0.099617      0.066848      0.102529
     12.75444      9.09668     35.51428        -0.112150     -0.049448     -0.256434
     11.95841     10.51434     33.00822         0.080960     -0.170364     -0.079129
     11.51254     10.71289     31.54882         0.114648      0.242168     -0.103997
     14.67964      7.19011     34.13046        -0.086374     -0.071998      0.144546
     15.44653     11.54594     34.23826         0.191479      0.065120     -0.020201
     13.28218      8.72535     36.88111        -0.190040     -0.049869     -0.139582
     10.63814      9.59474     30.94040         0.100516      0.311156     -0.113535
     18.02007      3.44632     35.40725         0.236014      0.306003     -0.506321
      0.56472     12.61855     35.74261        -0.060685     -0.163278     -0.012928
      9.65620      3.97301     34.88070         0.233366     -0.161569      0.040023
      8.53341     12.58065     35.27997         0.058859     -0.127076     -0.001670
      7.68065      5.20428     34.86185        -0.032820      0.019949     -0.062075
      8.44096     14.85596     34.88199        -0.330227      0.434029      0.259399
     17.98166      5.76247     35.25998         0.143412     -0.018583     -0.193020
     17.83139     14.70229     35.12463         0.013922      0.076529     -0.116173
      4.31967      8.33213     35.26092         0.081869      0.035682      0.169250
      3.43955     17.59397     35.02193         0.037054     -0.138388      0.151845
     12.63154     17.84533     35.20237         0.533170      0.664272      0.214041
      5.72836     17.94391     35.16495        -0.621660     -0.368311      0.215865
      5.37618     10.38567     34.91439         0.234935     -0.611107      0.158454
     14.81926      0.59231     35.31398        -0.165322      0.158141      0.010686
      0.98499      3.46001     40.99318         0.225292     -0.209728     -0.196181
      1.09485     12.89248     41.06775         0.096892     -0.266309      0.182989
     10.08099      3.94531     40.88888         0.338218     -0.397472     -0.176065
      9.61258     12.66852     41.21113        -0.234677      0.306626      0.067874
      3.78486      8.10180     41.11491         0.071073      0.169761      0.337180
      3.76840     17.25660     41.04760         0.511304      0.494523      0.501128
     12.87955      8.25403     41.31960         0.106395      0.225402      0.018094
     12.73055     17.32778     41.15020         0.317581      0.346094      0.509351
      8.23201      5.31451     41.20065         0.016511      0.190700      0.109375
      8.26383     14.57971     41.09876         0.006862     -0.009662     -0.007028
     17.49356      5.17358     41.33359         0.359487     -0.339107     -0.365411
     17.01060     13.75736     41.32763         0.138731     -0.122179     -0.073500
      5.44290      0.83316     40.93995         0.159983      0.154288      0.391521
      5.39688      9.80121     41.15974        -0.515348     -0.490377      0.521772
     14.44227      0.85575     41.16587         0.177275      0.200536      0.126699
     14.25396     10.08536     40.96270         0.335975      0.808411     -0.174735
      0.82731      3.68697     47.03596         0.028693     -0.035622     -0.087979
      0.82485     12.71837     47.03596         0.029651     -0.032395     -0.068290
      9.85771      3.68697     47.03596         0.019187     -0.025121     -0.064219
      9.85525     12.71837     47.03596         0.022732     -0.026026     -0.095888
      3.68432      8.20234     47.03465        -0.012525     -0.008099     -0.067426
      3.68186     17.23373     47.03465        -0.012346     -0.008875     -0.059834
     12.71472      8.20234     47.03465        -0.010391     -0.005444     -0.064497
     12.71226     17.23373     47.03465        -0.010956     -0.010794     -0.055945
      8.20068      5.34457     47.03603        -0.027013      0.024342     -0.065134
      8.19822     14.37597     47.03603        -0.022254      0.016842     -0.090908
     17.23108      5.34457     47.03603        -0.005745      0.004106     -0.088343
     17.22862     14.37597     47.03603        -0.013890      0.014629     -0.065610
      5.34365      0.82909     47.03465         0.004068      0.005630     -0.063610
      5.34119      9.86049     47.03465         0.013672      0.019579     -0.068531
     14.37405      0.82909     47.03465         0.025527      0.020731     -0.055378
     14.37159      9.86049     47.03465         0.026812      0.029860     -0.068564
     13.81396      9.57317     34.52303         0.109075      0.144029     -0.106755
      9.16838      0.29774     34.44809         0.037295      0.048246      0.014215
      8.62470      9.00689     34.68086         0.056126     -0.031443      0.014694
      0.07912      0.07479     34.32240         0.022499     -0.016634     -0.016422
      0.71308      9.13201     34.58541        -0.058719     -0.020487     -0.035178
      4.22127      4.38388     34.48720        -0.002625     -0.014155      0.017565
      4.60558     13.79762     34.56789        -0.032994      0.076618      0.022682
     13.28719      3.64375     34.69120         0.041203      0.102935     -0.057377
     12.69991     14.31418     34.59622        -0.013509     -0.069028     -0.032028
     -0.00035     17.76105     40.87101         0.014380     -0.004525      0.011511
     18.02250      9.04504     40.93818         0.010557      0.015115      0.006091
      9.07785      0.26403     40.86420        -0.045838     -0.024941      0.031825
      9.26128      8.82265     40.94622         0.001720      0.008948     -0.016583
      4.71655      4.43632     40.87854        -0.009814      0.005721      0.023169
      4.66710     13.60550     40.90147        -0.037878      0.008684      0.021382
     13.61768      4.75913     40.90288        -0.034819     -0.014984     -0.000327
     13.43673     13.57005     40.89409         0.003853      0.020580      0.011127
      2.43778      1.98398     37.97063         0.010342      0.022711     -0.011212
      2.72363     10.90908     38.06432        -0.013642      0.010942     -0.010013
     11.70305      1.89288     38.16068         0.016156      0.002950     -0.020542
     11.13491     11.38618     38.17777        -0.013668     -0.014321     -0.127316
      6.51352      6.93341     37.87289        -0.013703      0.070784     -0.040875
      6.72485     15.93078     37.91361         0.030206     -0.026831      0.033130
     16.10248      6.58836     38.17549        -0.055456     -0.036948     -0.134575
     15.74809     15.78657     37.86771        -0.014269     -0.000203     -0.009185
      2.25665      6.64782     38.06396        -0.013159     -0.048444      0.029037
      2.22648     15.65845     37.97553        -0.004980      0.017344     -0.051372
     10.63451      6.05744     37.59794         0.045463      0.024570      0.004942
     11.15290     15.76043     38.24669        -0.019851     -0.010867     -0.006017
      6.95021      2.41707     37.77647         0.017820     -0.000015      0.014774
      6.94942     11.38227     38.18413         0.012777     -0.044201      0.020632
     15.99731      2.38591     38.24674         0.024833      0.044700     -0.053228
     16.26027     11.57519     38.23275        -0.078846      0.061236     -0.156826
      0.00000      0.00000     47.17356         0.002274      0.005167      0.312241
     -0.00246      9.03140     47.17356        -0.001077      0.003624      0.432445
      9.03040      0.00000     47.17356        -0.002886     -0.003206      0.373479
      9.02794      9.03140     47.17356         0.003858      0.003992      0.427684
      4.51398      4.51570     47.17425        -0.004266     -0.003125      0.420496
      4.51152     13.54710     47.17425         0.006276     -0.001431      0.414122
     13.54438      4.51570     47.17425         0.004104      0.001721      0.433755
     13.54192     13.54710     47.17425        -0.005954     -0.007438      0.403932
      2.45192      2.06295     44.04013        -0.018218     -0.019544     -0.053796
      2.44946     11.09435     44.04013         0.020560     -0.019865     -0.068964
     11.48232      2.06295     44.04013         0.055801     -0.030905     -0.058083
     11.47986     11.09435     44.04013        -0.004231     -0.020439     -0.078298
      6.57602      6.96845     44.04013        -0.036777      0.059040     -0.013102
      6.57356     15.99985     44.04013         0.006173      0.010874     -0.042407
     15.60642      6.96845     44.04013         0.067683     -0.018111      0.014054
     15.60396     15.99985     44.04013        -0.032056      0.022223     -0.009565
      2.06108      6.57881     44.04000         0.013559      0.001207     -0.043354
      2.05862     15.61021     44.04000         0.070819      0.045237     -0.028101
     11.09148      6.57881     44.04000        -0.029224     -0.050508     -0.008523
     11.08902     15.61021     44.04000        -0.028970      0.011953     -0.042925
      6.96686      2.45259     44.04007        -0.060178     -0.075802     -0.022753
      6.96440     11.48399     44.04007         0.034528      0.004017     -0.042248
     15.99726      2.45259     44.04007         0.044236      0.017991     -0.049631
     15.99481     11.48399     44.04007        -0.000077      0.008842     -0.014787
      2.43163      2.08322     50.06849         0.001547     -0.018599      0.024556
      2.42917     11.11462     50.06849         0.014158     -0.007130      0.025936
     11.46203      2.08322     50.06849         0.006153     -0.016053      0.028439
     11.45957     11.11462     50.06849         0.012091     -0.006334      0.023826
      6.59631      6.94818     50.06849        -0.013312      0.009439      0.027018
      6.59385     15.97958     50.06849        -0.009276      0.010018      0.024028
     15.62671      6.94818     50.06849        -0.007982      0.011647      0.025645
     15.62425     15.97958     50.06849        -0.004175      0.017038      0.027007
      2.08113      6.59901     50.06905        -0.009726     -0.010935      0.025380
      2.07867     15.63041     50.06905        -0.015893     -0.003502      0.025664
     11.11153      6.59901     50.06905        -0.009625     -0.009097      0.026480
     11.10907     15.63041     50.06905        -0.011960     -0.010701      0.026210
      6.94681      2.43239     50.06905         0.011077      0.006434      0.026516
      6.94435     11.46379     50.06905         0.007318      0.013577      0.024594
     15.97721      2.43239     50.06905         0.021377     -0.000159      0.026506
     15.97475     11.46379     50.06905         0.006783      0.012142      0.025486
     18.03671     18.02153     37.83143         0.005342     -0.007545     -0.038659
      0.14401      9.04778     37.81319        -0.008444      0.038285      0.016845
      9.08330      0.14674     37.70098        -0.023915     -0.056723      0.014548
      8.98976      8.89507     37.80288        -0.008917      0.002946     -0.041101
      4.44369      4.43310     37.64403         0.013325     -0.011394     -0.019551
      4.51062     13.44969     37.73377         0.029245      0.013185     -0.008984
     13.40919      4.42628     37.66826        -0.000011      0.068196      0.023935
     13.31746     13.65290     37.68126        -0.025337      0.000613     -0.041664
      0.00001      0.00001     44.04300        -0.046555     -0.136400      0.174047
     -0.00245      9.03141     44.04300        -0.036575     -0.069545      0.184121
      9.03041      0.00001     44.04300         0.050067      0.101188      0.089847
      9.02795      9.03141     44.04300        -0.054586     -0.073129      0.278012
      4.51397      4.51569     44.04275         0.087510      0.025898      0.042412
      4.51151     13.54709     44.04275        -0.074006      0.034598      0.103826
     13.54437      4.51569     44.04275        -0.058778      0.014130      0.167832
     13.54191     13.54709     44.04275         0.007235      0.122676      0.147392
      0.00000      0.00000     50.44728        -0.003272      0.002386     -0.604957
     -0.00246      9.03140     50.44728        -0.002874     -0.002575     -0.634877
      9.03040      0.00000     50.44728         0.003451      0.005936     -0.624211
      9.02794      9.03140     50.44728         0.002198     -0.005976     -0.635555
      4.51397      4.51570     50.44728         0.006200      0.007680     -0.634628
      4.51151     13.54710     50.44728         0.003154     -0.007976     -0.630434
     13.54437      4.51570     50.44728        -0.007281      0.006654     -0.641750
     13.54191     13.54710     50.44728        -0.002920     -0.007142     -0.630591
 -----------------------------------------------------------------------------------
    total drift:                                0.048502      0.039236      0.690027


--------------------------------------------------------------------------------------------------------



  FREE ENERGIE OF THE ION-ELECTRON SYSTEM (eV)
  ---------------------------------------------------
  free  energy   TOTEN  =     -1575.99342322 eV

  energy  without entropy=    -1575.99342322  energy(sigma->0) =    -1575.99342322
 


--------------------------------------------------------------------------------------------------------


    POTLOK:  cpu time    0.5007: real time    0.5006


--------------------------------------------------------------------------------------------------------


     LOOP+:  cpu time  266.5923: real time  267.1271
 vacuum level on the upper side and lower side of the slab         2.310         1.602
    4ORBIT:  cpu time    0.0000: real time    0.0000

 total amount of memory used by VASP MPI-rank0  8653576. kBytes
=======================================================================

   base      :      30000. kBytes
   nonlr-proj:      53614. kBytes
   fftplans  :     249280. kBytes
   grid      :     701440. kBytes
   one-center:       2636. kBytes
   wavefun   :    7616606. kBytes
 
  
  
 General timing and accounting informations for this job:
 ========================================================
  
                  Total CPU time used (sec):      479.788
                            User time (sec):      392.031
                          System time (sec):       87.758
                         Elapsed time (sec):      482.989
  
                   Maximum memory used (kb):    10323640.
                   Average memory used (kb):          N/A
  
                          Minor page faults:      3578035
                          Major page faults:           11
                 Voluntary context switches:        10856
