<?xml version="1.0" encoding="ISO-8859-1"?>
<modeling>
 <generator>
  <i name="program" type="string">vasp </i>
  <i name="version" type="string">6.2.1  </i>
  <i name="subversion" type="string">16May21 (build Nov 15 2021 14:57:28) complex                          parallel </i>
  <i name="platform" type="string">LinuxPGI </i>
  <i name="date" type="string">2023 07 25 </i>
  <i name="time" type="string">01:31:43 </i>
 </generator>
 <incar>
  <i type="string" name="SYSTEM">PSC</i>
  <i type="int" name="ISTART">     1</i>
  <i type="string" name="PREC">Normal</i>
  <i name="BMIX">      0.01000000</i>
  <i name="AMIN">      0.01000000</i>
  <i type="int" name="ICHARG">     1</i>
  <i type="int" name="NELM">   600</i>
  <i type="int" name="ISYM">     0</i>
  <i name="ENCUT">    500.00000000</i>
  <i type="string" name="LREAL">Auto</i>
  <i type="int" name="ISMEAR">     0</i>
  <i name="SIGMA">      0.05000000</i>
  <i type="logical" name="LWAVE"> F  </i>
  <i type="logical" name="LVTOT"> T  </i>
  <i type="logical" name="GGA_COMPAT"> F  </i>
  <i type="logical" name="LDIPOL"> T  </i>
  <i type="int" name="IDIPOL">     3</i>
  <i type="int" name="IVDW">    12</i>
 </incar>
 <primitive_cell>
  <structure name="primitive_cell" >
   <crystal>
    <varray name="basis" >
     <v>      18.06080055       0.00000000       0.00000000 </v>
     <v>      -0.00491865      18.06279945       0.00000000 </v>
     <v>       0.00000000       0.00000000      62.48749924 </v>
    </varray>
    <i name="volume">  20385.21054034 </i>
    <varray name="rec_basis" >
     <v>       0.05536853       0.00001508      -0.00000000 </v>
     <v>       0.00000000       0.05536240       0.00000000 </v>
     <v>       0.00000000      -0.00000000       0.01600320 </v>
    </varray>
   </crystal>
   <varray name="positions" >
    <v>       0.44647598       0.33184879       0.56621976 </v>
    <v>       0.42352576       0.83112259       0.56843101 </v>
    <v>       0.96061311       0.32423980       0.57718997 </v>
    <v>       0.94711099       0.81500804       0.57369824 </v>
    <v>       0.32458298       0.95213828       0.57396697 </v>
    <v>       0.34943447       0.55485428       0.56270624 </v>
    <v>       0.80536357       0.08484256       0.57007056 </v>
    <v>       0.01347537       0.14079121       0.56039822 </v>
    <v>       0.06612801       0.65540270       0.56886024 </v>
    <v>       0.55845695       0.16942029       0.55562554 </v>
    <v>       0.49795549       0.64698268       0.56196585 </v>
    <v>       0.36385658       0.02052008       0.55810760 </v>
    <v>       0.29254416       0.62954017       0.55480317 </v>
    <v>       0.87482410       0.02317260       0.56151069 </v>
    <v>       0.96089759       0.18725988       0.57890332 </v>
    <v>       0.99105540       0.68986133       0.58344287 </v>
    <v>       0.56331126       0.25754271       0.56739681 </v>
    <v>       0.43100947       0.69548455       0.57562386 </v>
    <v>       0.28243547       0.43748055       0.57246960 </v>
    <v>       0.19057466       0.92963341       0.57055534 </v>
    <v>       0.67712324       0.03402268       0.57020023 </v>
    <v>       0.36937010       0.28716927       0.55479346 </v>
    <v>       0.49232525       0.86931460       0.55242714 </v>
    <v>       0.01800317       0.36726906       0.55823928 </v>
    <v>       0.99723376       0.86329804       0.55442132 </v>
    <v>       0.18989883       0.43451543       0.56540941 </v>
    <v>       0.13952152       0.99167721       0.55568500 </v>
    <v>       0.66742779       0.94317656       0.56138090 </v>
    <v>       0.43586013       0.18251068       0.54615300 </v>
    <v>       0.54913905       0.75409882       0.54662654 </v>
    <v>       0.06010480       0.25090068       0.54502222 </v>
    <v>       0.08151752       0.76407917       0.54942807 </v>
    <v>       0.18678977       0.55555063       0.55384949 </v>
    <v>       0.24557064       0.05957623       0.54553508 </v>
    <v>       0.79141680       0.92825212       0.55493363 </v>
    <v>       0.48525635       0.33834719       0.66507779 </v>
    <v>       0.44722260       0.81204488       0.67376031 </v>
    <v>       0.96677204       0.28160843       0.67765580 </v>
    <v>       0.92662454       0.72475840       0.67314782 </v>
    <v>       0.30899601       0.05313452       0.67131030 </v>
    <v>       0.29935490       0.55018432       0.67498584 </v>
    <v>       0.79936346       0.05792331       0.67479555 </v>
    <v>       0.75232832       0.59804618       0.66052445 </v>
    <v>       0.08437408       0.16227685       0.64483949 </v>
    <v>       0.11155795       0.71898782       0.65027807 </v>
    <v>       0.57830412       0.16828893       0.64917788 </v>
    <v>       0.56283555       0.66432921       0.65095802 </v>
    <v>       0.18060015       0.41356464       0.64854897 </v>
    <v>       0.17534097       0.92208483       0.64841668 </v>
    <v>       0.70931379       0.40060798       0.66174875 </v>
    <v>       0.67430282       0.92459712       0.64946883 </v>
    <v>       0.06303477       0.17803733       0.67176675 </v>
    <v>       0.05732896       0.67524450       0.66922064 </v>
    <v>       0.59676564       0.25584753       0.65938958 </v>
    <v>       0.53015096       0.69615366       0.67568416 </v>
    <v>       0.19981986       0.44596097       0.67403521 </v>
    <v>       0.20629194       0.95087095       0.67321986 </v>
    <v>       0.67016739       0.48702386       0.66733941 </v>
    <v>       0.69390965       0.96132677       0.67461912 </v>
    <v>       0.39938080       0.29806085       0.65942126 </v>
    <v>       0.43307888       0.84519571       0.64793831 </v>
    <v>       0.93713067       0.32607822       0.65441452 </v>
    <v>       0.90213961       0.79602843       0.65559414 </v>
    <v>       0.33291942       0.07855835       0.64544685 </v>
    <v>       0.33233510       0.57540188       0.64985813 </v>
    <v>       0.83730681       0.07609553       0.64992314 </v>
    <v>       0.83812923       0.57866699       0.64937244 </v>
    <v>       0.00854971       0.25431315       0.63212332 </v>
    <v>       0.01899510       0.79949486       0.63956255 </v>
    <v>       0.45070098       0.18831285       0.64773948 </v>
    <v>       0.50494473       0.75459469       0.63169812 </v>
    <v>       0.25124958       0.99905745       0.62922491 </v>
    <v>       0.26120042       0.49138331       0.63151584 </v>
    <v>       0.76332551       0.99237869       0.63212118 </v>
    <v>       0.81819944       0.45074391       0.64856515 </v>
    <v>       0.44874502       0.30128397       0.76888902 </v>
    <v>       0.44874501       0.80128391       0.76888902 </v>
    <v>       0.94874497       0.30128397       0.76888902 </v>
    <v>       0.94874501       0.80128391       0.76888902 </v>
    <v>       0.30127600       0.05129450       0.76887296 </v>
    <v>       0.30127601       0.55129450       0.76887296 </v>
    <v>       0.80127594       0.05129450       0.76887296 </v>
    <v>       0.80127598       0.55129450       0.76887296 </v>
    <v>       0.07877100       0.17118050       0.74344197 </v>
    <v>       0.07877101       0.67118045       0.74344197 </v>
    <v>       0.57877100       0.17118050       0.74344197 </v>
    <v>       0.57877099       0.67118045       0.74344197 </v>
    <v>       0.17119950       0.42117448       0.74342103 </v>
    <v>       0.17119950       0.92117451       0.74342103 </v>
    <v>       0.67119951       0.42117448       0.74342103 </v>
    <v>       0.67119950       0.92117451       0.74342103 </v>
    <v>       0.05125600       0.19871499       0.76888902 </v>
    <v>       0.05125600       0.69871493       0.76888902 </v>
    <v>       0.55125603       0.19871499       0.76888902 </v>
    <v>       0.55125602       0.69871493       0.76888902 </v>
    <v>       0.19872349       0.44870397       0.76887205 </v>
    <v>       0.19872349       0.94870397       0.76887205 </v>
    <v>       0.69872352       0.44870397       0.76887205 </v>
    <v>       0.69872351       0.94870397       0.76887205 </v>
    <v>       0.42123152       0.32881747       0.74344197 </v>
    <v>       0.42123151       0.82881744       0.74344197 </v>
    <v>       0.92123147       0.32881747       0.74344197 </v>
    <v>       0.92123151       0.82881744       0.74344197 </v>
    <v>       0.32880050       0.07882500       0.74342103 </v>
    <v>       0.32880049       0.57882496       0.74342103 </v>
    <v>       0.82880048       0.07882500       0.74342103 </v>
    <v>       0.82880052       0.57882496       0.74342103 </v>
    <v>       0.00000350       0.25000148       0.72582199 </v>
    <v>       0.00000350       0.75000145       0.72582199 </v>
    <v>       0.50000351       0.25000148       0.72582199 </v>
    <v>       0.50000350       0.75000145       0.72582199 </v>
    <v>       0.25000050       0.00000000       0.72580398 </v>
    <v>       0.25000052       0.50000000       0.72580398 </v>
    <v>       0.75000050       0.00000000       0.72580398 </v>
    <v>       0.75000049       0.50000000       0.72580398 </v>
    <v>       0.77631045       0.55646197       0.51946413 </v>
    <v>       0.72115399       0.47800194       0.52535850 </v>
    <v>       0.86957864       0.50126493       0.54014624 </v>
    <v>       0.85730146       0.48137529       0.56763178 </v>
    <v>       0.74329629       0.64173786       0.56002174 </v>
    <v>       0.80860720       0.59618458       0.57675067 </v>
    <v>       0.66595694       0.54886507       0.56946558 </v>
    <v>       0.67853524       0.45683260       0.56057837 </v>
    <v>       0.61634013       0.55676793       0.53716225 </v>
    <v>       0.67231829       0.63649431       0.53532130 </v>
    <v>       0.60599049       0.64561453       0.50393136 </v>
    <v>       0.68684537       0.60153077       0.49464663 </v>
    <v>       0.78564816       0.39218321       0.53054239 </v>
    <v>       0.77900262       0.36909536       0.55836962 </v>
    <v>       0.86596208       0.36847683       0.54517001 </v>
    <v>       0.86308106       0.69477125       0.55466166 </v>
    <v>       0.84439300       0.64731963       0.53083158 </v>
    <v>       0.90825617       0.60963089       0.54997762 </v>
    <v>       0.76325495       0.52918171       0.59819533 </v>
    <v>       0.77267118       0.43548166       0.58970199 </v>
    <v>       0.68792301       0.46704230       0.60015538 </v>
    <v>       0.53589045       0.53041961       0.50347973 </v>
    <v>       0.57761203       0.54813244       0.47854518 </v>
    <v>       0.69722483       0.47791572       0.46886859 </v>
    <v>       0.55962829       0.41568210       0.52210052 </v>
    <v>       0.76284179       0.35771735       0.47140737 </v>
    <v>       0.62587394       0.29607128       0.52493397 </v>
    <v>       0.72856746       0.26688397       0.49987800 </v>
    <v>       0.01957015       0.25397334       0.55797018 </v>
    <v>       0.03520738       0.75918846       0.56060950 </v>
    <v>       0.46428692       0.22848451       0.55387476 </v>
    <v>       0.49819889       0.75740844       0.55600189 </v>
    <v>       0.23954326       0.53173950       0.55889188 </v>
    <v>       0.25100948       0.01096899       0.55585788 </v>
    <v>       0.77164880       0.98158757       0.56080882 </v>
    <v>       0.01074804       0.24414846       0.64918429 </v>
    <v>       0.00751266       0.75951243       0.65213153 </v>
    <v>       0.48712640       0.23211459       0.65346359 </v>
    <v>       0.49832232       0.75459221       0.64913673 </v>
    <v>       0.25638662       0.49396696       0.64885683 </v>
    <v>       0.25398416       0.00030270       0.64657683 </v>
    <v>       0.77576780       0.48750004       0.65493782 </v>
    <v>       0.75636770       0.99977093       0.64924179 </v>
    <v>       0.49998898       0.24999498       0.74327702 </v>
    <v>       0.49998903       0.74999496       0.74327702 </v>
    <v>       0.99998898       0.24999498       0.74327702 </v>
    <v>       0.99998903       0.74999496       0.74327702 </v>
    <v>       0.25000050       0.00000100       0.74325596 </v>
    <v>       0.25000052       0.50000100       0.74325596 </v>
    <v>       0.75000050       0.00000100       0.74325596 </v>
    <v>       0.75000049       0.50000100       0.74325596 </v>
    <v>       0.62442628       0.45584966       0.49549879 </v>
    <v>       0.68152395       0.43831452       0.48117751 </v>
    <v>       0.60436815       0.40343799       0.51095739 </v>
    <v>       0.71874645       0.37052802       0.48269325 </v>
    <v>       0.64115066       0.33588365       0.51255070 </v>
    <v>       0.69902472       0.31920749       0.49854958 </v>
    <v>       0.73240937       0.53513127       0.53007331 </v>
    <v>       0.83070939       0.47789344       0.55182558 </v>
    <v>       0.79183852       0.60483887       0.56010025 </v>
    <v>       0.70633199       0.50361395       0.56834219 </v>
    <v>       0.66227830       0.58209890       0.52823725 </v>
    <v>       0.63759394       0.59309133       0.50488214 </v>
    <v>       0.81289824       0.39806176       0.54619665 </v>
    <v>       0.85542594       0.63921102       0.54792179 </v>
    <v>       0.73554656       0.48305611       0.59021577 </v>
    <v>       0.58916268       0.53118781       0.49514539 </v>
    <v>       0.99779704       0.19079648       0.56662926 </v>
    <v>       0.03145798       0.69859312       0.57199612 </v>
    <v>       0.53470959       0.21995561       0.55820277 </v>
    <v>       0.47267196       0.69649483       0.56459242 </v>
    <v>       0.42534503       0.28812158       0.55790126 </v>
    <v>       0.46758765       0.82246181       0.55822347 </v>
    <v>       0.99570472       0.31902394       0.56427247 </v>
    <v>       0.98751978       0.81395425       0.56210657 </v>
    <v>       0.23929932       0.46128693       0.56428761 </v>
    <v>       0.19070796       0.97404459       0.56046299 </v>
    <v>       0.69965870       0.98796045       0.56335059 </v>
    <v>       0.31744159       0.99341788       0.56275172 </v>
    <v>       0.29782774       0.57497554       0.55874207 </v>
    <v>       0.82052973       0.03279193       0.56513678 </v>
    <v>       0.05458966       0.19155446       0.65602202 </v>
    <v>       0.06081467       0.71375889       0.65721550 </v>
    <v>       0.55822914       0.21842165       0.65435292 </v>
    <v>       0.53242530       0.70135951       0.65950996 </v>
    <v>       0.20968442       0.44853539       0.65797023 </v>
    <v>       0.20891116       0.95536688       0.65689304 </v>
    <v>       0.71324627       0.45696290       0.66124578 </v>
    <v>       0.70513291       0.95930779       0.65853491 </v>
    <v>       0.45587432       0.29422423       0.65934226 </v>
    <v>       0.45777617       0.80716780       0.65771169 </v>
    <v>       0.96867064       0.28642181       0.66146970 </v>
    <v>       0.94205947       0.76164044       0.66137441 </v>
    <v>       0.30137782       0.04612553       0.65517029 </v>
    <v>       0.29896516       0.54261868       0.65868759 </v>
    <v>       0.79966004       0.04737645       0.65878576 </v>
    <v>       0.78937266       0.55834954       0.65553431 </v>
    <v>       0.04586250       0.20411950       0.75272599 </v>
    <v>       0.04586250       0.70411946       0.75272599 </v>
    <v>       0.54586251       0.20411950       0.75272599 </v>
    <v>       0.54586250       0.70411946       0.75272599 </v>
    <v>       0.20411900       0.45410100       0.75270499 </v>
    <v>       0.20411899       0.95410095       0.75270499 </v>
    <v>       0.70411898       0.45410100       0.75270499 </v>
    <v>       0.70411896       0.95410095       0.75270499 </v>
    <v>       0.45414002       0.29588849       0.75272697 </v>
    <v>       0.45414001       0.79588852       0.75272697 </v>
    <v>       0.95414002       0.29588849       0.75272697 </v>
    <v>       0.95414006       0.79588852       0.75272697 </v>
    <v>       0.29588249       0.04590050       0.75270499 </v>
    <v>       0.29588248       0.54590053       0.75270499 </v>
    <v>       0.79588244       0.04590050       0.75270499 </v>
    <v>       0.79588248       0.54590053       0.75270499 </v>
    <v>       0.76500302       0.52999364       0.55247897 </v>
    <v>       0.50764395       0.01648386       0.55127970 </v>
    <v>       0.47767254       0.49864305       0.55500475 </v>
    <v>       0.00438192       0.00414040       0.54926831 </v>
    <v>       0.03961981       0.50557005       0.55347728 </v>
    <v>       0.23379189       0.24270201       0.55190555 </v>
    <v>       0.25521249       0.76386930       0.55319689 </v>
    <v>       0.73574716       0.20172672       0.55517031 </v>
    <v>       0.70339125       0.79246738       0.55365029 </v>
    <v>       0.00024834       0.98329429       0.65406704 </v>
    <v>       0.99801577       0.50075490       0.65514190 </v>
    <v>       0.50263106       0.01461722       0.65395807 </v>
    <v>       0.51291634       0.48844311       0.65527059 </v>
    <v>       0.26121527       0.24560522       0.65418743 </v>
    <v>       0.25861568       0.75323341       0.65455438 </v>
    <v>       0.75406273       0.26347661       0.65457697 </v>
    <v>       0.74417647       0.75127055       0.65443632 </v>
    <v>       0.13500638       0.10983780       0.60765157 </v>
    <v>       0.15096800       0.60395287       0.60915089 </v>
    <v>       0.64800932       0.10479431       0.61069295 </v>
    <v>       0.61669548       0.63036645       0.61096650 </v>
    <v>       0.36074880       0.38385020       0.60608747 </v>
    <v>       0.37258524       0.88196635       0.60673915 </v>
    <v>       0.89167021       0.36474733       0.61092999 </v>
    <v>       0.87218678       0.87398223       0.60600457 </v>
    <v>       0.12504759       0.36803951       0.60914515 </v>
    <v>       0.12351292       0.86688965       0.60773007 </v>
    <v>       0.58890837       0.33535448       0.60168736 </v>
    <v>       0.61775720       0.87253526       0.61206938 </v>
    <v>       0.38485926       0.13381466       0.60454444 </v>
    <v>       0.38495098       0.63014972       0.61106833 </v>
    <v>       0.88578362       0.13208962       0.61207024 </v>
    <v>       0.90048174       0.64083011       0.61184644 </v>
    <v>       0.00000000       0.00000000       0.75492797 </v>
    <v>       0.00000000       0.50000000       0.75492797 </v>
    <v>       0.50000000       0.00000000       0.75492797 </v>
    <v>       0.49999999       0.50000000       0.75492797 </v>
    <v>       0.25000050       0.25000000       0.75493902 </v>
    <v>       0.25000051       0.74999997       0.75493902 </v>
    <v>       0.75000047       0.25000000       0.75493902 </v>
    <v>       0.75000046       0.74999997       0.75493902 </v>
    <v>       0.13579050       0.11421000       0.70478299 </v>
    <v>       0.13579050       0.61420998       0.70478299 </v>
    <v>       0.63579045       0.11421000       0.70478299 </v>
    <v>       0.63579049       0.61420998       0.70478299 </v>
    <v>       0.36420952       0.38578999       0.70478299 </v>
    <v>       0.36420950       0.88578996       0.70478299 </v>
    <v>       0.86420954       0.38578999       0.70478299 </v>
    <v>       0.86420953       0.88578996       0.70478299 </v>
    <v>       0.11421799       0.36421899       0.70478098 </v>
    <v>       0.11421799       0.86421899       0.70478098 </v>
    <v>       0.61421800       0.36421899       0.70478098 </v>
    <v>       0.61421799       0.86421899       0.70478098 </v>
    <v>       0.38578201       0.13578149       0.70478202 </v>
    <v>       0.38578200       0.63578149       0.70478202 </v>
    <v>       0.88578199       0.13578149       0.70478202 </v>
    <v>       0.88578203       0.63578149       0.70478202 </v>
    <v>       0.13466700       0.11533200       0.80125603 </v>
    <v>       0.13466699       0.61533199       0.80125603 </v>
    <v>       0.63466699       0.11533200       0.80125603 </v>
    <v>       0.63466698       0.61533199       0.80125603 </v>
    <v>       0.36533300       0.38466799       0.80125603 </v>
    <v>       0.36533299       0.88466796       0.80125603 </v>
    <v>       0.86533295       0.38466799       0.80125603 </v>
    <v>       0.86533294       0.88466796       0.80125603 </v>
    <v>       0.11532850       0.36533700       0.80126500 </v>
    <v>       0.11532850       0.86533698       0.80126500 </v>
    <v>       0.61532850       0.36533700       0.80126500 </v>
    <v>       0.61532849       0.86533698       0.80126500 </v>
    <v>       0.38467151       0.13466300       0.80126500 </v>
    <v>       0.38467150       0.63466297       0.80126500 </v>
    <v>       0.88467149       0.13466300       0.80126500 </v>
    <v>       0.88467153       0.63466297       0.80126500 </v>
    <v>       0.99893764       0.99771498       0.60542395 </v>
    <v>       0.00811010       0.50090680       0.60513202 </v>
    <v>       0.50293144       0.00812397       0.60333631 </v>
    <v>       0.49788389       0.49245267       0.60496707 </v>
    <v>       0.24610768       0.24542716       0.60242500 </v>
    <v>       0.24994909       0.74460743       0.60386107 </v>
    <v>       0.74251406       0.24504953       0.60281277 </v>
    <v>       0.73757384       0.75585714       0.60302082 </v>
    <v>       0.00000050       0.00000050       0.70482896 </v>
    <v>       0.00000050       0.50000048       0.70482896 </v>
    <v>       0.50000048       0.00000050       0.70482896 </v>
    <v>       0.50000046       0.50000048       0.70482896 </v>
    <v>       0.24999999       0.24999947       0.70482499 </v>
    <v>       0.25000001       0.74999950       0.70482499 </v>
    <v>       0.74999999       0.24999947       0.70482499 </v>
    <v>       0.74999998       0.74999950       0.70482499 </v>
    <v>       0.00000000       0.00000000       0.80731797 </v>
    <v>       0.00000000       0.50000000       0.80731797 </v>
    <v>       0.50000000       0.00000000       0.80731797 </v>
    <v>       0.49999999       0.50000000       0.80731797 </v>
    <v>       0.24999999       0.25000000       0.80731797 </v>
    <v>       0.25000001       0.74999997       0.80731797 </v>
    <v>       0.74999999       0.25000000       0.80731797 </v>
    <v>       0.74999998       0.74999997       0.80731797 </v>
   </varray>
  </structure>
  <varray name="primitive_index" >
   <v type="int" >        1 </v>
   <v type="int" >        2 </v>
   <v type="int" >        3 </v>
   <v type="int" >        4 </v>
   <v type="int" >        5 </v>
   <v type="int" >        6 </v>
   <v type="int" >        7 </v>
   <v type="int" >        8 </v>
   <v type="int" >        9 </v>
   <v type="int" >       10 </v>
   <v type="int" >       11 </v>
   <v type="int" >       12 </v>
   <v type="int" >       13 </v>
   <v type="int" >       14 </v>
   <v type="int" >       15 </v>
   <v type="int" >       16 </v>
   <v type="int" >       17 </v>
   <v type="int" >       18 </v>
   <v type="int" >       19 </v>
   <v type="int" >       20 </v>
   <v type="int" >       21 </v>
   <v type="int" >       22 </v>
   <v type="int" >       23 </v>
   <v type="int" >       24 </v>
   <v type="int" >       25 </v>
   <v type="int" >       26 </v>
   <v type="int" >       27 </v>
   <v type="int" >       28 </v>
   <v type="int" >       29 </v>
   <v type="int" >       30 </v>
   <v type="int" >       31 </v>
   <v type="int" >       32 </v>
   <v type="int" >       33 </v>
   <v type="int" >       34 </v>
   <v type="int" >       35 </v>
   <v type="int" >       36 </v>
   <v type="int" >       37 </v>
   <v type="int" >       38 </v>
   <v type="int" >       39 </v>
   <v type="int" >       40 </v>
   <v type="int" >       41 </v>
   <v type="int" >       42 </v>
   <v type="int" >       43 </v>
   <v type="int" >       44 </v>
   <v type="int" >       45 </v>
   <v type="int" >       46 </v>
   <v type="int" >       47 </v>
   <v type="int" >       48 </v>
   <v type="int" >       49 </v>
   <v type="int" >       50 </v>
   <v type="int" >       51 </v>
   <v type="int" >       52 </v>
   <v type="int" >       53 </v>
   <v type="int" >       54 </v>
   <v type="int" >       55 </v>
   <v type="int" >       56 </v>
   <v type="int" >       57 </v>
   <v type="int" >       58 </v>
   <v type="int" >       59 </v>
   <v type="int" >       60 </v>
   <v type="int" >       61 </v>
   <v type="int" >       62 </v>
   <v type="int" >       63 </v>
   <v type="int" >       64 </v>
   <v type="int" >       65 </v>
   <v type="int" >       66 </v>
   <v type="int" >       67 </v>
   <v type="int" >       68 </v>
   <v type="int" >       69 </v>
   <v type="int" >       70 </v>
   <v type="int" >       71 </v>
   <v type="int" >       72 </v>
   <v type="int" >       73 </v>
   <v type="int" >       74 </v>
   <v type="int" >       75 </v>
   <v type="int" >       76 </v>
   <v type="int" >       77 </v>
   <v type="int" >       78 </v>
   <v type="int" >       79 </v>
   <v type="int" >       80 </v>
   <v type="int" >       81 </v>
   <v type="int" >       82 </v>
   <v type="int" >       83 </v>
   <v type="int" >       84 </v>
   <v type="int" >       85 </v>
   <v type="int" >       86 </v>
   <v type="int" >       87 </v>
   <v type="int" >       88 </v>
   <v type="int" >       89 </v>
   <v type="int" >       90 </v>
   <v type="int" >       91 </v>
   <v type="int" >       92 </v>
   <v type="int" >       93 </v>
   <v type="int" >       94 </v>
   <v type="int" >       95 </v>
   <v type="int" >       96 </v>
   <v type="int" >       97 </v>
   <v type="int" >       98 </v>
   <v type="int" >       99 </v>
   <v type="int" >      100 </v>
   <v type="int" >      101 </v>
   <v type="int" >      102 </v>
   <v type="int" >      103 </v>
   <v type="int" >      104 </v>
   <v type="int" >      105 </v>
   <v type="int" >      106 </v>
   <v type="int" >      107 </v>
   <v type="int" >      108 </v>
   <v type="int" >      109 </v>
   <v type="int" >      110 </v>
   <v type="int" >      111 </v>
   <v type="int" >      112 </v>
   <v type="int" >      113 </v>
   <v type="int" >      114 </v>
   <v type="int" >      115 </v>
   <v type="int" >      116 </v>
   <v type="int" >      117 </v>
   <v type="int" >      118 </v>
   <v type="int" >      119 </v>
   <v type="int" >      120 </v>
   <v type="int" >      121 </v>
   <v type="int" >      122 </v>
   <v type="int" >      123 </v>
   <v type="int" >      124 </v>
   <v type="int" >      125 </v>
   <v type="int" >      126 </v>
   <v type="int" >      127 </v>
   <v type="int" >      128 </v>
   <v type="int" >      129 </v>
   <v type="int" >      130 </v>
   <v type="int" >      131 </v>
   <v type="int" >      132 </v>
   <v type="int" >      133 </v>
   <v type="int" >      134 </v>
   <v type="int" >      135 </v>
   <v type="int" >      136 </v>
   <v type="int" >      137 </v>
   <v type="int" >      138 </v>
   <v type="int" >      139 </v>
   <v type="int" >      140 </v>
   <v type="int" >      141 </v>
   <v type="int" >      142 </v>
   <v type="int" >      143 </v>
   <v type="int" >      144 </v>
   <v type="int" >      145 </v>
   <v type="int" >      146 </v>
   <v type="int" >      147 </v>
   <v type="int" >      148 </v>
   <v type="int" >      149 </v>
   <v type="int" >      150 </v>
   <v type="int" >      151 </v>
   <v type="int" >      152 </v>
   <v type="int" >      153 </v>
   <v type="int" >      154 </v>
   <v type="int" >      155 </v>
   <v type="int" >      156 </v>
   <v type="int" >      157 </v>
   <v type="int" >      158 </v>
   <v type="int" >      159 </v>
   <v type="int" >      160 </v>
   <v type="int" >      161 </v>
   <v type="int" >      162 </v>
   <v type="int" >      163 </v>
   <v type="int" >      164 </v>
   <v type="int" >      165 </v>
   <v type="int" >      166 </v>
   <v type="int" >      167 </v>
   <v type="int" >      168 </v>
   <v type="int" >      169 </v>
   <v type="int" >      170 </v>
   <v type="int" >      171 </v>
   <v type="int" >      172 </v>
   <v type="int" >      173 </v>
   <v type="int" >      174 </v>
   <v type="int" >      175 </v>
   <v type="int" >      176 </v>
   <v type="int" >      177 </v>
   <v type="int" >      178 </v>
   <v type="int" >      179 </v>
   <v type="int" >      180 </v>
   <v type="int" >      181 </v>
   <v type="int" >      182 </v>
   <v type="int" >      183 </v>
   <v type="int" >      184 </v>
   <v type="int" >      185 </v>
   <v type="int" >      186 </v>
   <v type="int" >      187 </v>
   <v type="int" >      188 </v>
   <v type="int" >      189 </v>
   <v type="int" >      190 </v>
   <v type="int" >      191 </v>
   <v type="int" >      192 </v>
   <v type="int" >      193 </v>
   <v type="int" >      194 </v>
   <v type="int" >      195 </v>
   <v type="int" >      196 </v>
   <v type="int" >      197 </v>
   <v type="int" >      198 </v>
   <v type="int" >      199 </v>
   <v type="int" >      200 </v>
   <v type="int" >      201 </v>
   <v type="int" >      202 </v>
   <v type="int" >      203 </v>
   <v type="int" >      204 </v>
   <v type="int" >      205 </v>
   <v type="int" >      206 </v>
   <v type="int" >      207 </v>
   <v type="int" >      208 </v>
   <v type="int" >      209 </v>
   <v type="int" >      210 </v>
   <v type="int" >      211 </v>
   <v type="int" >      212 </v>
   <v type="int" >      213 </v>
   <v type="int" >      214 </v>
   <v type="int" >      215 </v>
   <v type="int" >      216 </v>
   <v type="int" >      217 </v>
   <v type="int" >      218 </v>
   <v type="int" >      219 </v>
   <v type="int" >      220 </v>
   <v type="int" >      221 </v>
   <v type="int" >      222 </v>
   <v type="int" >      223 </v>
   <v type="int" >      224 </v>
   <v type="int" >      225 </v>
   <v type="int" >      226 </v>
   <v type="int" >      227 </v>
   <v type="int" >      228 </v>
   <v type="int" >      229 </v>
   <v type="int" >      230 </v>
   <v type="int" >      231 </v>
   <v type="int" >      232 </v>
   <v type="int" >      233 </v>
   <v type="int" >      234 </v>
   <v type="int" >      235 </v>
   <v type="int" >      236 </v>
   <v type="int" >      237 </v>
   <v type="int" >      238 </v>
   <v type="int" >      239 </v>
   <v type="int" >      240 </v>
   <v type="int" >      241 </v>
   <v type="int" >      242 </v>
   <v type="int" >      243 </v>
   <v type="int" >      244 </v>
   <v type="int" >      245 </v>
   <v type="int" >      246 </v>
   <v type="int" >      247 </v>
   <v type="int" >      248 </v>
   <v type="int" >      249 </v>
   <v type="int" >      250 </v>
   <v type="int" >      251 </v>
   <v type="int" >      252 </v>
   <v type="int" >      253 </v>
   <v type="int" >      254 </v>
   <v type="int" >      255 </v>
   <v type="int" >      256 </v>
   <v type="int" >      257 </v>
   <v type="int" >      258 </v>
   <v type="int" >      259 </v>
   <v type="int" >      260 </v>
   <v type="int" >      261 </v>
   <v type="int" >      262 </v>
   <v type="int" >      263 </v>
   <v type="int" >      264 </v>
   <v type="int" >      265 </v>
   <v type="int" >      266 </v>
   <v type="int" >      267 </v>
   <v type="int" >      268 </v>
   <v type="int" >      269 </v>
   <v type="int" >      270 </v>
   <v type="int" >      271 </v>
   <v type="int" >      272 </v>
   <v type="int" >      273 </v>
   <v type="int" >      274 </v>
   <v type="int" >      275 </v>
   <v type="int" >      276 </v>
   <v type="int" >      277 </v>
   <v type="int" >      278 </v>
   <v type="int" >      279 </v>
   <v type="int" >      280 </v>
   <v type="int" >      281 </v>
   <v type="int" >      282 </v>
   <v type="int" >      283 </v>
   <v type="int" >      284 </v>
   <v type="int" >      285 </v>
   <v type="int" >      286 </v>
   <v type="int" >      287 </v>
   <v type="int" >      288 </v>
   <v type="int" >      289 </v>
   <v type="int" >      290 </v>
   <v type="int" >      291 </v>
   <v type="int" >      292 </v>
   <v type="int" >      293 </v>
   <v type="int" >      294 </v>
   <v type="int" >      295 </v>
   <v type="int" >      296 </v>
   <v type="int" >      297 </v>
   <v type="int" >      298 </v>
   <v type="int" >      299 </v>
   <v type="int" >      300 </v>
   <v type="int" >      301 </v>
   <v type="int" >      302 </v>
   <v type="int" >      303 </v>
   <v type="int" >      304 </v>
   <v type="int" >      305 </v>
   <v type="int" >      306 </v>
   <v type="int" >      307 </v>
   <v type="int" >      308 </v>
   <v type="int" >      309 </v>
   <v type="int" >      310 </v>
   <v type="int" >      311 </v>
   <v type="int" >      312 </v>
   <v type="int" >      313 </v>
   <v type="int" >      314 </v>
   <v type="int" >      315 </v>
   <v type="int" >      316 </v>
   <v type="int" >      317 </v>
   <v type="int" >      318 </v>
   <v type="int" >      319 </v>
   <v type="int" >      320 </v>
   <v type="int" >      321 </v>
   <v type="int" >      322 </v>
   <v type="int" >      323 </v>
   <v type="int" >      324 </v>
   <v type="int" >      325 </v>
  </varray>
 </primitive_cell>
 <kpoints>
  <generation param="Gamma">
   <v type="int" name="divisions">       3        3        1 </v>
   <v name="usershift">      0.00000000       0.00000000       0.00000000 </v>
   <v name="genvec1">      0.33333333       0.00000000       0.00000000 </v>
   <v name="genvec2">      0.00000000       0.33333333       0.00000000 </v>
   <v name="genvec3">      0.00000000       0.00000000       1.00000000 </v>
   <v name="shift">      0.00000000       0.00000000       0.00000000 </v>
  </generation>
  <varray name="kpointlist" >
   <v>       0.00000000       0.00000000       0.00000000 </v>
   <v>       0.33333333       0.00000000       0.00000000 </v>
   <v>       0.00000000       0.33333333       0.00000000 </v>
   <v>       0.33333333       0.33333333       0.00000000 </v>
   <v>      -0.33333333       0.33333333       0.00000000 </v>
  </varray>
  <varray name="weights" >
   <v>       0.11111111 </v>
   <v>       0.22222222 </v>
   <v>       0.22222222 </v>
   <v>       0.22222222 </v>
   <v>       0.22222222 </v>
  </varray>
 </kpoints>
 <parameters>
  <separator name="general" >
   <i type="string" name="SYSTEM">PSC</i>
   <i type="logical" name="LCOMPAT"> F  </i>
  </separator>
  <separator name="electronic" >
   <i type="string" name="PREC">normal</i>
   <i name="ENMAX">    500.00000000</i>
   <i name="ENAUG">    644.87300000</i>
   <i name="EDIFF">      0.00010000</i>
   <i type="int" name="IALGO">    38</i>
   <i type="int" name="IWAVPR">    10</i>
   <i type="int" name="NBANDS">   732</i>
   <i type="int" name="NBANDSLOW">    -1</i>
   <i type="int" name="NBANDSHIGH">    -1</i>
   <i name="NELECT">   1134.00000000</i>
   <i type="int" name="TURBO">     0</i>
   <i type="int" name="IRESTART">     0</i>
   <i type="int" name="NREBOOT">     0</i>
   <i type="int" name="NMIN">     0</i>
   <i name="EREF">      0.00000000</i>
   <separator name="electronic smearing" >
    <i type="int" name="ISMEAR">     0</i>
    <i name="SIGMA">      0.05000000</i>
    <i name="KSPACING">      0.50000000</i>
    <i type="logical" name="KGAMMA"> T  </i>
    <i type="logical" name="KBLOWUP"> T  </i>
   </separator>
   <separator name="electronic projectors" >
    <i type="logical" name="LREAL"> T  </i>
    <v name="ROPT">     -0.00050000     -0.00050000     -0.00050000     -0.00050000     -0.00050000</v>
    <i type="int" name="LMAXPAW">  -100</i>
    <i type="int" name="LMAXMIX">     2</i>
    <i type="logical" name="NLSPLINE"> F  </i>
   </separator>
   <separator name="electronic startup" >
    <i type="int" name="ISTART">     0</i>
    <i type="int" name="ICHARG">     1</i>
    <i type="int" name="INIWAV">     1</i>
   </separator>
   <separator name="electronic spin" >
    <i type="int" name="ISPIN">     1</i>
    <i type="logical" name="LNONCOLLINEAR"> F  </i>
    <v name="MAGMOM">      1.00000000      1.00000000      1.00000000      1.00000000      1.00000000      1.00000000      1.00000000      1.00000000      1.00000000      1.00000000      1.00000000      1.00000000      1.00000000      1.00000000      1.00000000      1.00000000      1.00000000      1.00000000      1.00000000      1.00000000
      1.00000000      1.00000000      1.00000000      1.00000000      1.00000000      1.00000000      1.00000000      1.00000000      1.00000000      1.00000000      1.00000000      1.00000000      1.00000000      1.00000000      1.00000000      1.00000000      1.00000000      1.00000000      1.00000000      1.00000000
      1.00000000      1.00000000      1.00000000      1.00000000      1.00000000      1.00000000      1.00000000      1.00000000      1.00000000      1.00000000      1.00000000      1.00000000      1.00000000      1.00000000      1.00000000      1.00000000      1.00000000      1.00000000      1.00000000      1.00000000
      1.00000000      1.00000000      1.00000000      1.00000000      1.00000000      1.00000000      1.00000000      1.00000000      1.00000000      1.00000000      1.00000000      1.00000000      1.00000000      1.00000000      1.00000000      1.00000000      1.00000000      1.00000000      1.00000000      1.00000000
      1.00000000      1.00000000      1.00000000      1.00000000      1.00000000      1.00000000      1.00000000      1.00000000      1.00000000      1.00000000      1.00000000      1.00000000      1.00000000      1.00000000      1.00000000      1.00000000      1.00000000      1.00000000      1.00000000      1.00000000
      1.00000000      1.00000000      1.00000000      1.00000000      1.00000000      1.00000000      1.00000000      1.00000000      1.00000000      1.00000000      1.00000000      1.00000000      1.00000000      1.00000000      1.00000000      1.00000000      1.00000000      1.00000000      1.00000000      1.00000000
      1.00000000      1.00000000      1.00000000      1.00000000      1.00000000      1.00000000      1.00000000      1.00000000      1.00000000      1.00000000      1.00000000      1.00000000      1.00000000      1.00000000      1.00000000      1.00000000      1.00000000      1.00000000      1.00000000      1.00000000
      1.00000000      1.00000000      1.00000000      1.00000000      1.00000000      1.00000000      1.00000000      1.00000000      1.00000000      1.00000000      1.00000000      1.00000000      1.00000000      1.00000000      1.00000000      1.00000000      1.00000000      1.00000000      1.00000000      1.00000000
      1.00000000      1.00000000      1.00000000      1.00000000      1.00000000      1.00000000      1.00000000      1.00000000      1.00000000      1.00000000      1.00000000      1.00000000      1.00000000      1.00000000      1.00000000      1.00000000      1.00000000      1.00000000      1.00000000      1.00000000
      1.00000000      1.00000000      1.00000000      1.00000000      1.00000000      1.00000000      1.00000000      1.00000000      1.00000000      1.00000000      1.00000000      1.00000000      1.00000000      1.00000000      1.00000000      1.00000000      1.00000000      1.00000000      1.00000000      1.00000000
      1.00000000      1.00000000      1.00000000      1.00000000      1.00000000      1.00000000      1.00000000      1.00000000      1.00000000      1.00000000      1.00000000      1.00000000      1.00000000      1.00000000      1.00000000      1.00000000      1.00000000      1.00000000      1.00000000      1.00000000
      1.00000000      1.00000000      1.00000000      1.00000000      1.00000000      1.00000000      1.00000000      1.00000000      1.00000000      1.00000000      1.00000000      1.00000000      1.00000000      1.00000000      1.00000000      1.00000000      1.00000000      1.00000000      1.00000000      1.00000000
      1.00000000      1.00000000      1.00000000      1.00000000      1.00000000      1.00000000      1.00000000      1.00000000      1.00000000      1.00000000      1.00000000      1.00000000      1.00000000      1.00000000      1.00000000      1.00000000      1.00000000      1.00000000      1.00000000      1.00000000
      1.00000000      1.00000000      1.00000000      1.00000000      1.00000000      1.00000000      1.00000000      1.00000000      1.00000000      1.00000000      1.00000000      1.00000000      1.00000000      1.00000000      1.00000000      1.00000000      1.00000000      1.00000000      1.00000000      1.00000000
      1.00000000      1.00000000      1.00000000      1.00000000      1.00000000      1.00000000      1.00000000      1.00000000      1.00000000      1.00000000      1.00000000      1.00000000      1.00000000      1.00000000      1.00000000      1.00000000      1.00000000      1.00000000      1.00000000      1.00000000
      1.00000000      1.00000000      1.00000000      1.00000000      1.00000000      1.00000000      1.00000000      1.00000000      1.00000000      1.00000000      1.00000000      1.00000000      1.00000000      1.00000000      1.00000000      1.00000000      1.00000000      1.00000000      1.00000000      1.00000000
      1.00000000      1.00000000      1.00000000      1.00000000      1.00000000</v>
    <i name="NUPDOWN">     -1.00000000</i>
    <i type="logical" name="LSORBIT"> F  </i>
    <v name="SAXIS">      0.00000000      0.00000000      1.00000000</v>
    <i type="logical" name="LSPIRAL"> F  </i>
    <v name="QSPIRAL">      0.00000000      0.00000000      0.00000000</v>
    <i type="logical" name="LZEROZ"> F  </i>
   </separator>
   <separator name="electronic exchange-correlation" >
    <i type="logical" name="LASPH"> F  </i>
    <i type="logical" name="LMETAGGA"> F  </i>
   </separator>
   <separator name="electronic convergence" >
    <i type="int" name="NELM">   600</i>
    <i type="int" name="NELMDL">     0</i>
    <i type="int" name="NELMIN">     2</i>
    <i name="ENINI">    500.00000000</i>
    <separator name="electronic convergence detail" >
     <i type="logical" name="LDIAG"> T  </i>
     <i type="logical" name="LSUBROT"> F  </i>
     <i name="WEIMIN">      0.00000000</i>
     <i name="EBREAK">      0.00000003</i>
     <i name="DEPER">      0.30000000</i>
     <i type="int" name="NRMM">     4</i>
     <i name="TIME">      0.40000000</i>
    </separator>
   </separator>
   <separator name="electronic mixer" >
    <i name="AMIX">      0.40000000</i>
    <i name="BMIX">      0.01000000</i>
    <i name="AMIN">      0.01000000</i>
    <i name="AMIX_MAG">      1.60000000</i>
    <i name="BMIX_MAG">      0.01000000</i>
    <separator name="electronic mixer details" >
     <i type="int" name="IMIX">     4</i>
     <i type="logical" name="MIXFIRST"> F  </i>
     <i type="int" name="MAXMIX">   -45</i>
     <i name="WC">    100.00000000</i>
     <i type="int" name="INIMIX">     1</i>
     <i type="int" name="MIXPRE">     1</i>
     <i type="int" name="MREMOVE">     5</i>
    </separator>
   </separator>
   <separator name="electronic dipolcorrection" >
    <i type="logical" name="LDIPOL"> T  </i>
    <i type="logical" name="LMONO"> F  </i>
    <i type="int" name="IDIPOL">     3</i>
    <i name="EPSILON">      1.00000000</i>
    <v name="DIPOL">   -100.00000000   -100.00000000   -100.00000000</v>
    <i name="EFIELD">      0.00000000</i>
   </separator>
  </separator>
  <separator name="grids" >
   <i type="int" name="NGX">   100</i>
   <i type="int" name="NGY">   100</i>
   <i type="int" name="NGZ">   350</i>
   <i type="int" name="NGXF">   200</i>
   <i type="int" name="NGYF">   200</i>
   <i type="int" name="NGZF">   700</i>
   <i type="logical" name="ADDGRID"> F  </i>
  </separator>
  <separator name="ionic" >
   <i type="int" name="NSW">     0</i>
   <i type="int" name="IBRION">    -1</i>
   <i type="int" name="MDALGO">     0</i>
   <i type="int" name="ISIF">     2</i>
   <i name="PSTRESS">      0.00000000</i>
   <i name="EDIFFG">      0.00100000</i>
   <i type="int" name="NFREE">     0</i>
   <i name="POTIM">      0.50000000</i>
   <i name="SMASS">     -3.00000000</i>
   <i name="SCALEE">      1.00000000</i>
  </separator>
  <separator name="ionic md" >
   <i name="TEBEG">      0.00010000</i>
   <i name="TEEND">      0.00010000</i>
   <i type="int" name="NBLOCK">     1</i>
   <i type="int" name="KBLOCK">     1</i>
   <i type="int" name="NPACO">   256</i>
   <i name="APACO">     16.00000000</i>
  </separator>
  <separator name="symmetry" >
   <i type="int" name="ISYM">     0</i>
   <i name="SYMPREC">      0.00001000</i>
  </separator>
  <separator name="dos" >
   <i type="int" name="LORBIT">     0</i>
   <v name="RWIGS">     -1.00000000     -1.00000000     -1.00000000     -1.00000000     -1.00000000</v>
   <i type="int" name="NEDOS">   301</i>
   <i name="EMIN">     10.00000000</i>
   <i name="EMAX">    -10.00000000</i>
   <i name="EFERMI">      0.00000000</i>
  </separator>
  <separator name="writing" >
   <i type="int" name="NWRITE">     2</i>
   <i type="logical" name="LWAVE"> F  </i>
   <i type="logical" name="LDOWNSAMPLE"> F  </i>
   <i type="logical" name="LCHARG"> T  </i>
   <i type="logical" name="LPARD"> F  </i>
   <i type="logical" name="LVTOT"> T  </i>
   <i type="logical" name="LVHAR"> F  </i>
   <i type="logical" name="LELF"> F  </i>
   <i type="logical" name="LOPTICS"> F  </i>
   <v name="STM">      0.00000000      0.00000000      0.00000000      0.00000000      0.00000000      0.00000000      0.00000000</v>
  </separator>
  <separator name="performance" >
   <i type="int" name="NPAR">     4</i>
   <i type="int" name="NSIM">     4</i>
   <i type="int" name="NBLK">    -1</i>
   <i type="logical" name="LPLANE"> T  </i>
   <i type="logical" name="LSCALAPACK"> T  </i>
   <i type="logical" name="LSCAAWARE"> F  </i>
   <i type="logical" name="LSCALU"> F  </i>
   <i type="logical" name="LASYNC"> F  </i>
   <i type="logical" name="LORBITALREAL"> F  </i>
  </separator>
  <separator name="miscellaneous" >
   <i type="int" name="IDIOT">     3</i>
   <i type="int" name="PHON_NSTRUCT">    -1</i>
   <i type="logical" name="LMUSIC"> F  </i>
   <v name="POMASS">      1.00000000     12.01100000     14.00100000    126.90400000    207.20000000</v>
   <v name="DARWINR">      0.00000000      0.00000000      0.00000000      0.00000000      0.00000000</v>
   <v name="DARWINV">      1.00000000      1.00000000      1.00000000      1.00000000      1.00000000</v>
   <i type="logical" name="LCORR"> T  </i>
  </separator>
  <i type="logical" name="GGA_COMPAT"> F  </i>
  <i type="logical" name="LBERRY"> F  </i>
  <i type="int" name="ICORELEVEL">     0</i>
  <i type="logical" name="LDAU"> F  </i>
  <i type="int" name="I_CONSTRAINED_M">     0</i>
  <separator name="electronic exchange-correlation" >
   <i type="string" name="GGA">--</i>
   <i type="int" name="VOSKOWN">     0</i>
   <i type="logical" name="LHFCALC"> F  </i>
   <i type="string" name="PRECFOCK"></i>
   <i type="logical" name="LSYMGRAD"> F  </i>
   <i type="logical" name="LHFONE"> F  </i>
   <i type="logical" name="LRHFCALC"> F  </i>
   <i type="logical" name="LTHOMAS"> F  </i>
   <i type="logical" name="LMODELHF"> F  </i>
   <i type="logical" name="LFOCKACE"> F  </i>
   <i name="ENCUT4O">     -1.00000000</i>
   <i type="int" name="EXXOEP">     0</i>
   <i type="int" name="FOURORBIT">     0</i>
   <i name="AEXX">      0.00000000</i>
   <i name="HFALPHA">      0.00000000</i>
   <i name="MCALPHA">      0.00000000</i>
   <i name="ALDAX">      1.00000000</i>
   <i name="AGGAX">      1.00000000</i>
   <i name="ALDAC">      1.00000000</i>
   <i name="AGGAC">      1.00000000</i>
   <i type="int" name="NKREDX">     1</i>
   <i type="int" name="NKREDY">     1</i>
   <i type="int" name="NKREDZ">     1</i>
   <i type="logical" name="SHIFTRED"> F  </i>
   <i type="logical" name="ODDONLY"> F  </i>
   <i type="logical" name="EVENONLY"> F  </i>
   <i type="int" name="LMAXFOCK">     0</i>
   <i type="int" name="NMAXFOCKAE">     0</i>
   <i type="logical" name="LFOCKAEDFT"> F  </i>
   <i name="HFSCREEN">      0.00000000</i>
   <i name="HFSCREENC">      0.00000000</i>
   <i type="int" name="NBANDSGWLOW">     0</i>
  </separator>
  <separator name="vdW DFT" >
   <i type="logical" name="LUSE_VDW"> F  </i>
   <i name="Zab_VDW">     -0.84910000</i>
   <i name="PARAM1">      0.12340000</i>
   <i name="PARAM2">      1.00000000</i>
   <i name="PARAM3">      0.00000000</i>
  </separator>
  <separator name="model GW" >
   <i type="int" name="MODEL_GW">     0</i>
   <i name="MODEL_EPS0">     37.63423484</i>
   <i name="MODEL_ALPHA">      1.00000000</i>
  </separator>
  <separator name="linear response parameters" >
   <i type="logical" name="LEPSILON"> F  </i>
   <i type="logical" name="LRPA"> F  </i>
   <i type="logical" name="LNABLA"> F  </i>
   <i type="logical" name="LVEL"> F  </i>
   <i type="int" name="KINTER">     0</i>
   <i name="CSHIFT">      0.10000000</i>
   <i name="OMEGAMAX">     -1.00000000</i>
   <i name="DEG_THRESHOLD">      0.00200000</i>
   <i name="RTIME">     -0.10000000</i>
   <i name="WPLASMAI">      0.00000000</i>
   <v name="DFIELD">      0.00000000      0.00000000      0.00000000</v>
   <v name="WPLASMA">      0.00000000      0.00000000      0.00000000      0.00000000      0.00000000      0.00000000      0.00000000      0.00000000      0.00000000</v>
  </separator>
  <separator name="orbital magnetization" >
   <i type="logical" name="NUCIND"> F  </i>
   <v name="MAGPOS">      0.00000000      0.00000000      0.00000000</v>
   <i type="logical" name="LNICSALL"> T  </i>
   <i type="logical" name="ORBITALMAG"> F  </i>
   <i type="logical" name="LMAGBLOCH"> F  </i>
   <i type="logical" name="LCHIMAG"> F  </i>
   <i type="logical" name="LGAUGE"> T  </i>
   <i type="int" name="MAGATOM">     0</i>
   <v name="MAGDIPOL">      0.00000000      0.00000000      0.00000000</v>
   <v name="AVECCONST">      0.00000000      0.00000000      0.00000000</v>
  </separator>
  <separator name="response functions" >
   <i type="logical" name="LFINITE_TEMPERATURE"> F  </i>
   <i type="logical" name="LADDER"> F  </i>
   <i type="logical" name="LRPAFORCE"> F  </i>
   <i type="logical" name="LFXC"> F  </i>
   <i type="logical" name="LHARTREE"> T  </i>
   <i type="int" name="IBSE">     0</i>
   <v type="int" name="KPOINT">    -1     0     0     0</v>
   <i type="logical" name="LTCTC"> F  </i>
   <i type="logical" name="LTCTE"> F  </i>
   <i type="logical" name="LTETE"> F  </i>
   <i type="logical" name="LTRIPLET"> F  </i>
   <i type="logical" name="LFXCEPS"> F  </i>
   <i type="logical" name="LFXHEG"> F  </i>
   <i type="int" name="NATURALO">     2</i>
   <i type="logical" name="LHOLEGF"> F  </i>
   <i type="logical" name="L2ORDER"> F  </i>
   <i type="logical" name="LDMP1"> F  </i>
   <i type="logical" name="LMP2LT"> F  </i>
   <i type="logical" name="LSMP2LT"> F  </i>
   <i type="logical" name="LGWLF"> F  </i>
   <i name="ENCUTGW">     -2.00000000</i>
   <i name="ENCUTGWSOFT">     -2.00000000</i>
   <i name="ENCUTLF">     -1.00000000</i>
   <i type="logical" name="LESF_SPLINES"> F  </i>
   <i type="int" name="LMAXMP2">    -1</i>
   <i name="SCISSOR">      0.00000000</i>
   <i type="int" name="NOMEGA">     0</i>
   <i type="int" name="NOMEGAR">     0</i>
   <i type="int" name="NBANDSGW">    -1</i>
   <i type="int" name="NBANDSO">    -1</i>
   <i type="int" name="NBANDSV">    -1</i>
   <i type="int" name="NELM">   600</i>
   <i type="int" name="NELMHF">     1</i>
   <i type="int" name="DIM">     3</i>
   <i type="int" name="IESPILON">     4</i>
   <i type="int" name="ANTIRES">     0</i>
   <i name="OMEGAMAX">    -30.00000000</i>
   <i name="OMEGAMIN">    -30.00000000</i>
   <i name="OMEGATL">   -200.00000000</i>
   <i type="int" name="OMEGAGRID">     0</i>
   <i name="CSHIFT">     -0.10000000</i>
   <i type="logical" name="LSELFENERGY"> F  </i>
   <i type="logical" name="LSPECTRAL"> F  </i>
   <i type="logical" name="LSPECTRALGW"> F  </i>
   <i type="logical" name="LSINGLES"> F  </i>
   <i type="logical" name="LFERMIGW"> F  </i>
   <i type="logical" name="ODDONLYGW"> F  </i>
   <i type="logical" name="EVENONLYGW"> F  </i>
   <i type="int" name="NKREDLFX">     1</i>
   <i type="int" name="NKREDLFY">     1</i>
   <i type="int" name="NKREDLFZ">     1</i>
   <i type="int" name="MAXMEM">  2800</i>
   <i type="int" name="TELESCOPE">     0</i>
   <i type="int" name="NTAUPAR">    -1</i>
   <i type="int" name="NOMEGAPAR">    -1</i>
   <i name="DAMP_NEWTON">      0.80000001</i>
   <i name="LAMBDA">      1.00000000</i>
  </separator>
  <separator name="External order field" >
   <i name="OFIELD_KAPPA">      0.00000000</i>
   <v name="OFIELD_K">      0.00000000      0.00000000      0.00000000</v>
   <i name="OFIELD_Q6_NEAR">      0.00000000</i>
   <i name="OFIELD_Q6_FAR">      0.00000000</i>
   <i name="OFIELD_A">      0.00000000</i>
  </separator>
 </parameters>
 <atominfo>
  <atoms>     325 </atoms>
  <types>       5 </types>
  <array name="atoms" >
   <dimension dim="1">ion</dimension>
   <field type="string">element</field>
   <field type="int">atomtype</field>
   <set>
    <rc><c>H </c><c>   1</c></rc>
    <rc><c>H </c><c>   1</c></rc>
    <rc><c>H </c><c>   1</c></rc>
    <rc><c>H </c><c>   1</c></rc>
    <rc><c>H </c><c>   1</c></rc>
    <rc><c>H </c><c>   1</c></rc>
    <rc><c>H </c><c>   1</c></rc>
    <rc><c>H </c><c>   1</c></rc>
    <rc><c>H </c><c>   1</c></rc>
    <rc><c>H </c><c>   1</c></rc>
    <rc><c>H </c><c>   1</c></rc>
    <rc><c>H </c><c>   1</c></rc>
    <rc><c>H </c><c>   1</c></rc>
    <rc><c>H </c><c>   1</c></rc>
    <rc><c>H </c><c>   1</c></rc>
    <rc><c>H </c><c>   1</c></rc>
    <rc><c>H </c><c>   1</c></rc>
    <rc><c>H </c><c>   1</c></rc>
    <rc><c>H </c><c>   1</c></rc>
    <rc><c>H </c><c>   1</c></rc>
    <rc><c>H </c><c>   1</c></rc>
    <rc><c>H </c><c>   1</c></rc>
    <rc><c>H </c><c>   1</c></rc>
    <rc><c>H </c><c>   1</c></rc>
    <rc><c>H </c><c>   1</c></rc>
    <rc><c>H </c><c>   1</c></rc>
    <rc><c>H </c><c>   1</c></rc>
    <rc><c>H </c><c>   1</c></rc>
    <rc><c>H </c><c>   1</c></rc>
    <rc><c>H </c><c>   1</c></rc>
    <rc><c>H </c><c>   1</c></rc>
    <rc><c>H </c><c>   1</c></rc>
    <rc><c>H </c><c>   1</c></rc>
    <rc><c>H </c><c>   1</c></rc>
    <rc><c>H </c><c>   1</c></rc>
    <rc><c>H </c><c>   1</c></rc>
    <rc><c>H </c><c>   1</c></rc>
    <rc><c>H </c><c>   1</c></rc>
    <rc><c>H </c><c>   1</c></rc>
    <rc><c>H </c><c>   1</c></rc>
    <rc><c>H </c><c>   1</c></rc>
    <rc><c>H </c><c>   1</c></rc>
    <rc><c>H </c><c>   1</c></rc>
    <rc><c>H </c><c>   1</c></rc>
    <rc><c>H </c><c>   1</c></rc>
    <rc><c>H </c><c>   1</c></rc>
    <rc><c>H </c><c>   1</c></rc>
    <rc><c>H </c><c>   1</c></rc>
    <rc><c>H </c><c>   1</c></rc>
    <rc><c>H </c><c>   1</c></rc>
    <rc><c>H </c><c>   1</c></rc>
    <rc><c>H </c><c>   1</c></rc>
    <rc><c>H </c><c>   1</c></rc>
    <rc><c>H </c><c>   1</c></rc>
    <rc><c>H </c><c>   1</c></rc>
    <rc><c>H </c><c>   1</c></rc>
    <rc><c>H </c><c>   1</c></rc>
    <rc><c>H </c><c>   1</c></rc>
    <rc><c>H </c><c>   1</c></rc>
    <rc><c>H </c><c>   1</c></rc>
    <rc><c>H </c><c>   1</c></rc>
    <rc><c>H </c><c>   1</c></rc>
    <rc><c>H </c><c>   1</c></rc>
    <rc><c>H </c><c>   1</c></rc>
    <rc><c>H </c><c>   1</c></rc>
    <rc><c>H </c><c>   1</c></rc>
    <rc><c>H </c><c>   1</c></rc>
    <rc><c>H </c><c>   1</c></rc>
    <rc><c>H </c><c>   1</c></rc>
    <rc><c>H </c><c>   1</c></rc>
    <rc><c>H </c><c>   1</c></rc>
    <rc><c>H </c><c>   1</c></rc>
    <rc><c>H </c><c>   1</c></rc>
    <rc><c>H </c><c>   1</c></rc>
    <rc><c>H </c><c>   1</c></rc>
    <rc><c>H </c><c>   1</c></rc>
    <rc><c>H </c><c>   1</c></rc>
    <rc><c>H </c><c>   1</c></rc>
    <rc><c>H </c><c>   1</c></rc>
    <rc><c>H </c><c>   1</c></rc>
    <rc><c>H </c><c>   1</c></rc>
    <rc><c>H </c><c>   1</c></rc>
    <rc><c>H </c><c>   1</c></rc>
    <rc><c>H </c><c>   1</c></rc>
    <rc><c>H </c><c>   1</c></rc>
    <rc><c>H </c><c>   1</c></rc>
    <rc><c>H </c><c>   1</c></rc>
    <rc><c>H </c><c>   1</c></rc>
    <rc><c>H </c><c>   1</c></rc>
    <rc><c>H </c><c>   1</c></rc>
    <rc><c>H </c><c>   1</c></rc>
    <rc><c>H </c><c>   1</c></rc>
    <rc><c>H </c><c>   1</c></rc>
    <rc><c>H </c><c>   1</c></rc>
    <rc><c>H </c><c>   1</c></rc>
    <rc><c>H </c><c>   1</c></rc>
    <rc><c>H </c><c>   1</c></rc>
    <rc><c>H </c><c>   1</c></rc>
    <rc><c>H </c><c>   1</c></rc>
    <rc><c>H </c><c>   1</c></rc>
    <rc><c>H </c><c>   1</c></rc>
    <rc><c>H </c><c>   1</c></rc>
    <rc><c>H </c><c>   1</c></rc>
    <rc><c>H </c><c>   1</c></rc>
    <rc><c>H </c><c>   1</c></rc>
    <rc><c>H </c><c>   1</c></rc>
    <rc><c>H </c><c>   1</c></rc>
    <rc><c>H </c><c>   1</c></rc>
    <rc><c>H </c><c>   1</c></rc>
    <rc><c>H </c><c>   1</c></rc>
    <rc><c>H </c><c>   1</c></rc>
    <rc><c>H </c><c>   1</c></rc>
    <rc><c>H </c><c>   1</c></rc>
    <rc><c>H </c><c>   1</c></rc>
    <rc><c>H </c><c>   1</c></rc>
    <rc><c>H </c><c>   1</c></rc>
    <rc><c>H </c><c>   1</c></rc>
    <rc><c>H </c><c>   1</c></rc>
    <rc><c>H </c><c>   1</c></rc>
    <rc><c>H </c><c>   1</c></rc>
    <rc><c>H </c><c>   1</c></rc>
    <rc><c>H </c><c>   1</c></rc>
    <rc><c>H </c><c>   1</c></rc>
    <rc><c>H </c><c>   1</c></rc>
    <rc><c>H </c><c>   1</c></rc>
    <rc><c>H </c><c>   1</c></rc>
    <rc><c>H </c><c>   1</c></rc>
    <rc><c>H </c><c>   1</c></rc>
    <rc><c>H </c><c>   1</c></rc>
    <rc><c>H </c><c>   1</c></rc>
    <rc><c>H </c><c>   1</c></rc>
    <rc><c>H </c><c>   1</c></rc>
    <rc><c>H </c><c>   1</c></rc>
    <rc><c>H </c><c>   1</c></rc>
    <rc><c>H </c><c>   1</c></rc>
    <rc><c>H </c><c>   1</c></rc>
    <rc><c>H </c><c>   1</c></rc>
    <rc><c>H </c><c>   1</c></rc>
    <rc><c>H </c><c>   1</c></rc>
    <rc><c>H </c><c>   1</c></rc>
    <rc><c>H </c><c>   1</c></rc>
    <rc><c>H </c><c>   1</c></rc>
    <rc><c>H </c><c>   1</c></rc>
    <rc><c>C </c><c>   2</c></rc>
    <rc><c>C </c><c>   2</c></rc>
    <rc><c>C </c><c>   2</c></rc>
    <rc><c>C </c><c>   2</c></rc>
    <rc><c>C </c><c>   2</c></rc>
    <rc><c>C </c><c>   2</c></rc>
    <rc><c>C </c><c>   2</c></rc>
    <rc><c>C </c><c>   2</c></rc>
    <rc><c>C </c><c>   2</c></rc>
    <rc><c>C </c><c>   2</c></rc>
    <rc><c>C </c><c>   2</c></rc>
    <rc><c>C </c><c>   2</c></rc>
    <rc><c>C </c><c>   2</c></rc>
    <rc><c>C </c><c>   2</c></rc>
    <rc><c>C </c><c>   2</c></rc>
    <rc><c>C </c><c>   2</c></rc>
    <rc><c>C </c><c>   2</c></rc>
    <rc><c>C </c><c>   2</c></rc>
    <rc><c>C </c><c>   2</c></rc>
    <rc><c>C </c><c>   2</c></rc>
    <rc><c>C </c><c>   2</c></rc>
    <rc><c>C </c><c>   2</c></rc>
    <rc><c>C </c><c>   2</c></rc>
    <rc><c>C </c><c>   2</c></rc>
    <rc><c>C </c><c>   2</c></rc>
    <rc><c>C </c><c>   2</c></rc>
    <rc><c>C </c><c>   2</c></rc>
    <rc><c>C </c><c>   2</c></rc>
    <rc><c>C </c><c>   2</c></rc>
    <rc><c>C </c><c>   2</c></rc>
    <rc><c>C </c><c>   2</c></rc>
    <rc><c>C </c><c>   2</c></rc>
    <rc><c>C </c><c>   2</c></rc>
    <rc><c>C </c><c>   2</c></rc>
    <rc><c>C </c><c>   2</c></rc>
    <rc><c>C </c><c>   2</c></rc>
    <rc><c>C </c><c>   2</c></rc>
    <rc><c>C </c><c>   2</c></rc>
    <rc><c>C </c><c>   2</c></rc>
    <rc><c>N </c><c>   3</c></rc>
    <rc><c>N </c><c>   3</c></rc>
    <rc><c>N </c><c>   3</c></rc>
    <rc><c>N </c><c>   3</c></rc>
    <rc><c>N </c><c>   3</c></rc>
    <rc><c>N </c><c>   3</c></rc>
    <rc><c>N </c><c>   3</c></rc>
    <rc><c>N </c><c>   3</c></rc>
    <rc><c>N </c><c>   3</c></rc>
    <rc><c>N </c><c>   3</c></rc>
    <rc><c>N </c><c>   3</c></rc>
    <rc><c>N </c><c>   3</c></rc>
    <rc><c>N </c><c>   3</c></rc>
    <rc><c>N </c><c>   3</c></rc>
    <rc><c>N </c><c>   3</c></rc>
    <rc><c>N </c><c>   3</c></rc>
    <rc><c>N </c><c>   3</c></rc>
    <rc><c>N </c><c>   3</c></rc>
    <rc><c>N </c><c>   3</c></rc>
    <rc><c>N </c><c>   3</c></rc>
    <rc><c>N </c><c>   3</c></rc>
    <rc><c>N </c><c>   3</c></rc>
    <rc><c>N </c><c>   3</c></rc>
    <rc><c>N </c><c>   3</c></rc>
    <rc><c>N </c><c>   3</c></rc>
    <rc><c>N </c><c>   3</c></rc>
    <rc><c>N </c><c>   3</c></rc>
    <rc><c>N </c><c>   3</c></rc>
    <rc><c>N </c><c>   3</c></rc>
    <rc><c>N </c><c>   3</c></rc>
    <rc><c>N </c><c>   3</c></rc>
    <rc><c>N </c><c>   3</c></rc>
    <rc><c>N </c><c>   3</c></rc>
    <rc><c>N </c><c>   3</c></rc>
    <rc><c>N </c><c>   3</c></rc>
    <rc><c>N </c><c>   3</c></rc>
    <rc><c>N </c><c>   3</c></rc>
    <rc><c>N </c><c>   3</c></rc>
    <rc><c>N </c><c>   3</c></rc>
    <rc><c>N </c><c>   3</c></rc>
    <rc><c>N </c><c>   3</c></rc>
    <rc><c>N </c><c>   3</c></rc>
    <rc><c>N </c><c>   3</c></rc>
    <rc><c>N </c><c>   3</c></rc>
    <rc><c>N </c><c>   3</c></rc>
    <rc><c>N </c><c>   3</c></rc>
    <rc><c>N </c><c>   3</c></rc>
    <rc><c>I </c><c>   4</c></rc>
    <rc><c>I </c><c>   4</c></rc>
    <rc><c>I </c><c>   4</c></rc>
    <rc><c>I </c><c>   4</c></rc>
    <rc><c>I </c><c>   4</c></rc>
    <rc><c>I </c><c>   4</c></rc>
    <rc><c>I </c><c>   4</c></rc>
    <rc><c>I </c><c>   4</c></rc>
    <rc><c>I </c><c>   4</c></rc>
    <rc><c>I </c><c>   4</c></rc>
    <rc><c>I </c><c>   4</c></rc>
    <rc><c>I </c><c>   4</c></rc>
    <rc><c>I </c><c>   4</c></rc>
    <rc><c>I </c><c>   4</c></rc>
    <rc><c>I </c><c>   4</c></rc>
    <rc><c>I </c><c>   4</c></rc>
    <rc><c>I </c><c>   4</c></rc>
    <rc><c>I </c><c>   4</c></rc>
    <rc><c>I </c><c>   4</c></rc>
    <rc><c>I </c><c>   4</c></rc>
    <rc><c>I </c><c>   4</c></rc>
    <rc><c>I </c><c>   4</c></rc>
    <rc><c>I </c><c>   4</c></rc>
    <rc><c>I </c><c>   4</c></rc>
    <rc><c>I </c><c>   4</c></rc>
    <rc><c>I </c><c>   4</c></rc>
    <rc><c>I </c><c>   4</c></rc>
    <rc><c>I </c><c>   4</c></rc>
    <rc><c>I </c><c>   4</c></rc>
    <rc><c>I </c><c>   4</c></rc>
    <rc><c>I </c><c>   4</c></rc>
    <rc><c>I </c><c>   4</c></rc>
    <rc><c>I </c><c>   4</c></rc>
    <rc><c>I </c><c>   4</c></rc>
    <rc><c>I </c><c>   4</c></rc>
    <rc><c>I </c><c>   4</c></rc>
    <rc><c>I </c><c>   4</c></rc>
    <rc><c>I </c><c>   4</c></rc>
    <rc><c>I </c><c>   4</c></rc>
    <rc><c>I </c><c>   4</c></rc>
    <rc><c>I </c><c>   4</c></rc>
    <rc><c>I </c><c>   4</c></rc>
    <rc><c>I </c><c>   4</c></rc>
    <rc><c>I </c><c>   4</c></rc>
    <rc><c>I </c><c>   4</c></rc>
    <rc><c>I </c><c>   4</c></rc>
    <rc><c>I </c><c>   4</c></rc>
    <rc><c>I </c><c>   4</c></rc>
    <rc><c>I </c><c>   4</c></rc>
    <rc><c>I </c><c>   4</c></rc>
    <rc><c>I </c><c>   4</c></rc>
    <rc><c>I </c><c>   4</c></rc>
    <rc><c>I </c><c>   4</c></rc>
    <rc><c>I </c><c>   4</c></rc>
    <rc><c>I </c><c>   4</c></rc>
    <rc><c>I </c><c>   4</c></rc>
    <rc><c>I </c><c>   4</c></rc>
    <rc><c>I </c><c>   4</c></rc>
    <rc><c>I </c><c>   4</c></rc>
    <rc><c>I </c><c>   4</c></rc>
    <rc><c>I </c><c>   4</c></rc>
    <rc><c>I </c><c>   4</c></rc>
    <rc><c>I </c><c>   4</c></rc>
    <rc><c>I </c><c>   4</c></rc>
    <rc><c>I </c><c>   4</c></rc>
    <rc><c>I </c><c>   4</c></rc>
    <rc><c>I </c><c>   4</c></rc>
    <rc><c>I </c><c>   4</c></rc>
    <rc><c>I </c><c>   4</c></rc>
    <rc><c>I </c><c>   4</c></rc>
    <rc><c>I </c><c>   4</c></rc>
    <rc><c>I </c><c>   4</c></rc>
    <rc><c>Pb</c><c>   5</c></rc>
    <rc><c>Pb</c><c>   5</c></rc>
    <rc><c>Pb</c><c>   5</c></rc>
    <rc><c>Pb</c><c>   5</c></rc>
    <rc><c>Pb</c><c>   5</c></rc>
    <rc><c>Pb</c><c>   5</c></rc>
    <rc><c>Pb</c><c>   5</c></rc>
    <rc><c>Pb</c><c>   5</c></rc>
    <rc><c>Pb</c><c>   5</c></rc>
    <rc><c>Pb</c><c>   5</c></rc>
    <rc><c>Pb</c><c>   5</c></rc>
    <rc><c>Pb</c><c>   5</c></rc>
    <rc><c>Pb</c><c>   5</c></rc>
    <rc><c>Pb</c><c>   5</c></rc>
    <rc><c>Pb</c><c>   5</c></rc>
    <rc><c>Pb</c><c>   5</c></rc>
    <rc><c>Pb</c><c>   5</c></rc>
    <rc><c>Pb</c><c>   5</c></rc>
    <rc><c>Pb</c><c>   5</c></rc>
    <rc><c>Pb</c><c>   5</c></rc>
    <rc><c>Pb</c><c>   5</c></rc>
    <rc><c>Pb</c><c>   5</c></rc>
    <rc><c>Pb</c><c>   5</c></rc>
    <rc><c>Pb</c><c>   5</c></rc>
   </set>
  </array>
  <array name="atomtypes" >
   <dimension dim="1">type</dimension>
   <field type="int">atomspertype</field>
   <field type="string">element</field>
   <field>mass</field>
   <field>valence</field>
   <field type="string">pseudopotential</field>
   <set>
    <rc><c> 143</c><c>H </c><c>      1.00000000</c><c>      1.00000000</c><c>  PAW_PBE H 15Jun2001                   </c></rc>
    <rc><c>  39</c><c>C </c><c>     12.01100000</c><c>      4.00000000</c><c>  PAW_PBE C 08Apr2002                   </c></rc>
    <rc><c>  47</c><c>N </c><c>     14.00100000</c><c>      5.00000000</c><c>  PAW_PBE N 08Apr2002                   </c></rc>
    <rc><c>  72</c><c>I </c><c>    126.90400000</c><c>      7.00000000</c><c>  PAW_PBE I 08Apr2002                   </c></rc>
    <rc><c>  24</c><c>Pb</c><c>    207.20000000</c><c>      4.00000000</c><c>  PAW_PBE Pb 08Apr2002                  </c></rc>
   </set>
  </array>
 </atominfo>
 <structure name="initialpos" >
  <crystal>
   <varray name="basis" >
    <v>      18.06080055       0.00000000       0.00000000 </v>
    <v>      -0.00491865      18.06279945       0.00000000 </v>
    <v>       0.00000000       0.00000000      62.48749924 </v>
   </varray>
   <i name="volume">  20385.21054034 </i>
   <varray name="rec_basis" >
    <v>       0.05536853       0.00001508      -0.00000000 </v>
    <v>       0.00000000       0.05536240       0.00000000 </v>
    <v>       0.00000000      -0.00000000       0.01600320 </v>
   </varray>
  </crystal>
  <varray name="positions" >
   <v>       0.44647598       0.33184879       0.56621976 </v>
   <v>       0.42352576       0.83112259       0.56843101 </v>
   <v>       0.96061311       0.32423980       0.57718997 </v>
   <v>       0.94711099       0.81500804       0.57369824 </v>
   <v>       0.32458298       0.95213828       0.57396697 </v>
   <v>       0.34943447       0.55485428       0.56270624 </v>
   <v>       0.80536357       0.08484256       0.57007056 </v>
   <v>       0.01347537       0.14079121       0.56039822 </v>
   <v>       0.06612801       0.65540270       0.56886024 </v>
   <v>       0.55845695       0.16942029       0.55562554 </v>
   <v>       0.49795549       0.64698268       0.56196585 </v>
   <v>       0.36385658       0.02052008       0.55810760 </v>
   <v>       0.29254416       0.62954017       0.55480317 </v>
   <v>       0.87482410       0.02317260       0.56151069 </v>
   <v>       0.96089759       0.18725988       0.57890332 </v>
   <v>       0.99105540       0.68986133       0.58344287 </v>
   <v>       0.56331126       0.25754271       0.56739681 </v>
   <v>       0.43100947       0.69548455       0.57562386 </v>
   <v>       0.28243547       0.43748055       0.57246960 </v>
   <v>       0.19057466       0.92963341       0.57055534 </v>
   <v>       0.67712324       0.03402268       0.57020023 </v>
   <v>       0.36937010       0.28716927       0.55479346 </v>
   <v>       0.49232525       0.86931460       0.55242714 </v>
   <v>       0.01800317       0.36726906       0.55823928 </v>
   <v>       0.99723376       0.86329804       0.55442132 </v>
   <v>       0.18989883       0.43451543       0.56540941 </v>
   <v>       0.13952152       0.99167721       0.55568500 </v>
   <v>       0.66742779       0.94317656       0.56138090 </v>
   <v>       0.43586013       0.18251068       0.54615300 </v>
   <v>       0.54913905       0.75409882       0.54662654 </v>
   <v>       0.06010480       0.25090068       0.54502222 </v>
   <v>       0.08151752       0.76407917       0.54942807 </v>
   <v>       0.18678977       0.55555063       0.55384949 </v>
   <v>       0.24557064       0.05957623       0.54553508 </v>
   <v>       0.79141680       0.92825212       0.55493363 </v>
   <v>       0.48525635       0.33834719       0.66507779 </v>
   <v>       0.44722260       0.81204488       0.67376031 </v>
   <v>       0.96677204       0.28160843       0.67765580 </v>
   <v>       0.92662454       0.72475840       0.67314782 </v>
   <v>       0.30899601       0.05313452       0.67131030 </v>
   <v>       0.29935490       0.55018432       0.67498584 </v>
   <v>       0.79936346       0.05792331       0.67479555 </v>
   <v>       0.75232832       0.59804618       0.66052445 </v>
   <v>       0.08437408       0.16227685       0.64483949 </v>
   <v>       0.11155795       0.71898782       0.65027807 </v>
   <v>       0.57830412       0.16828893       0.64917788 </v>
   <v>       0.56283555       0.66432921       0.65095802 </v>
   <v>       0.18060015       0.41356464       0.64854897 </v>
   <v>       0.17534097       0.92208483       0.64841668 </v>
   <v>       0.70931379       0.40060798       0.66174875 </v>
   <v>       0.67430282       0.92459712       0.64946883 </v>
   <v>       0.06303477       0.17803733       0.67176675 </v>
   <v>       0.05732896       0.67524450       0.66922064 </v>
   <v>       0.59676564       0.25584753       0.65938958 </v>
   <v>       0.53015096       0.69615366       0.67568416 </v>
   <v>       0.19981986       0.44596097       0.67403521 </v>
   <v>       0.20629194       0.95087095       0.67321986 </v>
   <v>       0.67016739       0.48702386       0.66733941 </v>
   <v>       0.69390965       0.96132677       0.67461912 </v>
   <v>       0.39938080       0.29806085       0.65942126 </v>
   <v>       0.43307888       0.84519571       0.64793831 </v>
   <v>       0.93713067       0.32607822       0.65441452 </v>
   <v>       0.90213961       0.79602843       0.65559414 </v>
   <v>       0.33291942       0.07855835       0.64544685 </v>
   <v>       0.33233510       0.57540188       0.64985813 </v>
   <v>       0.83730681       0.07609553       0.64992314 </v>
   <v>       0.83812923       0.57866699       0.64937244 </v>
   <v>       0.00854971       0.25431315       0.63212332 </v>
   <v>       0.01899510       0.79949486       0.63956255 </v>
   <v>       0.45070098       0.18831285       0.64773948 </v>
   <v>       0.50494473       0.75459469       0.63169812 </v>
   <v>       0.25124958       0.99905745       0.62922491 </v>
   <v>       0.26120042       0.49138331       0.63151584 </v>
   <v>       0.76332551       0.99237869       0.63212118 </v>
   <v>       0.81819944       0.45074391       0.64856515 </v>
   <v>       0.44874502       0.30128397       0.76888902 </v>
   <v>       0.44874501       0.80128391       0.76888902 </v>
   <v>       0.94874497       0.30128397       0.76888902 </v>
   <v>       0.94874501       0.80128391       0.76888902 </v>
   <v>       0.30127600       0.05129450       0.76887296 </v>
   <v>       0.30127601       0.55129450       0.76887296 </v>
   <v>       0.80127594       0.05129450       0.76887296 </v>
   <v>       0.80127598       0.55129450       0.76887296 </v>
   <v>       0.07877100       0.17118050       0.74344197 </v>
   <v>       0.07877101       0.67118045       0.74344197 </v>
   <v>       0.57877100       0.17118050       0.74344197 </v>
   <v>       0.57877099       0.67118045       0.74344197 </v>
   <v>       0.17119950       0.42117448       0.74342103 </v>
   <v>       0.17119950       0.92117451       0.74342103 </v>
   <v>       0.67119951       0.42117448       0.74342103 </v>
   <v>       0.67119950       0.92117451       0.74342103 </v>
   <v>       0.05125600       0.19871499       0.76888902 </v>
   <v>       0.05125600       0.69871493       0.76888902 </v>
   <v>       0.55125603       0.19871499       0.76888902 </v>
   <v>       0.55125602       0.69871493       0.76888902 </v>
   <v>       0.19872349       0.44870397       0.76887205 </v>
   <v>       0.19872349       0.94870397       0.76887205 </v>
   <v>       0.69872352       0.44870397       0.76887205 </v>
   <v>       0.69872351       0.94870397       0.76887205 </v>
   <v>       0.42123152       0.32881747       0.74344197 </v>
   <v>       0.42123151       0.82881744       0.74344197 </v>
   <v>       0.92123147       0.32881747       0.74344197 </v>
   <v>       0.92123151       0.82881744       0.74344197 </v>
   <v>       0.32880050       0.07882500       0.74342103 </v>
   <v>       0.32880049       0.57882496       0.74342103 </v>
   <v>       0.82880048       0.07882500       0.74342103 </v>
   <v>       0.82880052       0.57882496       0.74342103 </v>
   <v>       0.00000350       0.25000148       0.72582199 </v>
   <v>       0.00000350       0.75000145       0.72582199 </v>
   <v>       0.50000351       0.25000148       0.72582199 </v>
   <v>       0.50000350       0.75000145       0.72582199 </v>
   <v>       0.25000050       0.00000000       0.72580398 </v>
   <v>       0.25000052       0.50000000       0.72580398 </v>
   <v>       0.75000050       0.00000000       0.72580398 </v>
   <v>       0.75000049       0.50000000       0.72580398 </v>
   <v>       0.77631045       0.55646197       0.51946413 </v>
   <v>       0.72115399       0.47800194       0.52535850 </v>
   <v>       0.86957864       0.50126493       0.54014624 </v>
   <v>       0.85730146       0.48137529       0.56763178 </v>
   <v>       0.74329629       0.64173786       0.56002174 </v>
   <v>       0.80860720       0.59618458       0.57675067 </v>
   <v>       0.66595694       0.54886507       0.56946558 </v>
   <v>       0.67853524       0.45683260       0.56057837 </v>
   <v>       0.61634013       0.55676793       0.53716225 </v>
   <v>       0.67231829       0.63649431       0.53532130 </v>
   <v>       0.60599049       0.64561453       0.50393136 </v>
   <v>       0.68684537       0.60153077       0.49464663 </v>
   <v>       0.78564816       0.39218321       0.53054239 </v>
   <v>       0.77900262       0.36909536       0.55836962 </v>
   <v>       0.86596208       0.36847683       0.54517001 </v>
   <v>       0.86308106       0.69477125       0.55466166 </v>
   <v>       0.84439300       0.64731963       0.53083158 </v>
   <v>       0.90825617       0.60963089       0.54997762 </v>
   <v>       0.76325495       0.52918171       0.59819533 </v>
   <v>       0.77267118       0.43548166       0.58970199 </v>
   <v>       0.68792301       0.46704230       0.60015538 </v>
   <v>       0.53589045       0.53041961       0.50347973 </v>
   <v>       0.57761203       0.54813244       0.47854518 </v>
   <v>       0.69722483       0.47791572       0.46886859 </v>
   <v>       0.55962829       0.41568210       0.52210052 </v>
   <v>       0.76284179       0.35771735       0.47140737 </v>
   <v>       0.62587394       0.29607128       0.52493397 </v>
   <v>       0.72856746       0.26688397       0.49987800 </v>
   <v>       0.01957015       0.25397334       0.55797018 </v>
   <v>       0.03520738       0.75918846       0.56060950 </v>
   <v>       0.46428692       0.22848451       0.55387476 </v>
   <v>       0.49819889       0.75740844       0.55600189 </v>
   <v>       0.23954326       0.53173950       0.55889188 </v>
   <v>       0.25100948       0.01096899       0.55585788 </v>
   <v>       0.77164880       0.98158757       0.56080882 </v>
   <v>       0.01074804       0.24414846       0.64918429 </v>
   <v>       0.00751266       0.75951243       0.65213153 </v>
   <v>       0.48712640       0.23211459       0.65346359 </v>
   <v>       0.49832232       0.75459221       0.64913673 </v>
   <v>       0.25638662       0.49396696       0.64885683 </v>
   <v>       0.25398416       0.00030270       0.64657683 </v>
   <v>       0.77576780       0.48750004       0.65493782 </v>
   <v>       0.75636770       0.99977093       0.64924179 </v>
   <v>       0.49998898       0.24999498       0.74327702 </v>
   <v>       0.49998903       0.74999496       0.74327702 </v>
   <v>       0.99998898       0.24999498       0.74327702 </v>
   <v>       0.99998903       0.74999496       0.74327702 </v>
   <v>       0.25000050       0.00000100       0.74325596 </v>
   <v>       0.25000052       0.50000100       0.74325596 </v>
   <v>       0.75000050       0.00000100       0.74325596 </v>
   <v>       0.75000049       0.50000100       0.74325596 </v>
   <v>       0.62442628       0.45584966       0.49549879 </v>
   <v>       0.68152395       0.43831452       0.48117751 </v>
   <v>       0.60436815       0.40343799       0.51095739 </v>
   <v>       0.71874645       0.37052802       0.48269325 </v>
   <v>       0.64115066       0.33588365       0.51255070 </v>
   <v>       0.69902472       0.31920749       0.49854958 </v>
   <v>       0.73240937       0.53513127       0.53007331 </v>
   <v>       0.83070939       0.47789344       0.55182558 </v>
   <v>       0.79183852       0.60483887       0.56010025 </v>
   <v>       0.70633199       0.50361395       0.56834219 </v>
   <v>       0.66227830       0.58209890       0.52823725 </v>
   <v>       0.63759394       0.59309133       0.50488214 </v>
   <v>       0.81289824       0.39806176       0.54619665 </v>
   <v>       0.85542594       0.63921102       0.54792179 </v>
   <v>       0.73554656       0.48305611       0.59021577 </v>
   <v>       0.58916268       0.53118781       0.49514539 </v>
   <v>       0.99779704       0.19079648       0.56662926 </v>
   <v>       0.03145798       0.69859312       0.57199612 </v>
   <v>       0.53470959       0.21995561       0.55820277 </v>
   <v>       0.47267196       0.69649483       0.56459242 </v>
   <v>       0.42534503       0.28812158       0.55790126 </v>
   <v>       0.46758765       0.82246181       0.55822347 </v>
   <v>       0.99570472       0.31902394       0.56427247 </v>
   <v>       0.98751978       0.81395425       0.56210657 </v>
   <v>       0.23929932       0.46128693       0.56428761 </v>
   <v>       0.19070796       0.97404459       0.56046299 </v>
   <v>       0.69965870       0.98796045       0.56335059 </v>
   <v>       0.31744159       0.99341788       0.56275172 </v>
   <v>       0.29782774       0.57497554       0.55874207 </v>
   <v>       0.82052973       0.03279193       0.56513678 </v>
   <v>       0.05458966       0.19155446       0.65602202 </v>
   <v>       0.06081467       0.71375889       0.65721550 </v>
   <v>       0.55822914       0.21842165       0.65435292 </v>
   <v>       0.53242530       0.70135951       0.65950996 </v>
   <v>       0.20968442       0.44853539       0.65797023 </v>
   <v>       0.20891116       0.95536688       0.65689304 </v>
   <v>       0.71324627       0.45696290       0.66124578 </v>
   <v>       0.70513291       0.95930779       0.65853491 </v>
   <v>       0.45587432       0.29422423       0.65934226 </v>
   <v>       0.45777617       0.80716780       0.65771169 </v>
   <v>       0.96867064       0.28642181       0.66146970 </v>
   <v>       0.94205947       0.76164044       0.66137441 </v>
   <v>       0.30137782       0.04612553       0.65517029 </v>
   <v>       0.29896516       0.54261868       0.65868759 </v>
   <v>       0.79966004       0.04737645       0.65878576 </v>
   <v>       0.78937266       0.55834954       0.65553431 </v>
   <v>       0.04586250       0.20411950       0.75272599 </v>
   <v>       0.04586250       0.70411946       0.75272599 </v>
   <v>       0.54586251       0.20411950       0.75272599 </v>
   <v>       0.54586250       0.70411946       0.75272599 </v>
   <v>       0.20411900       0.45410100       0.75270499 </v>
   <v>       0.20411899       0.95410095       0.75270499 </v>
   <v>       0.70411898       0.45410100       0.75270499 </v>
   <v>       0.70411896       0.95410095       0.75270499 </v>
   <v>       0.45414002       0.29588849       0.75272697 </v>
   <v>       0.45414001       0.79588852       0.75272697 </v>
   <v>       0.95414002       0.29588849       0.75272697 </v>
[...]
   <v>       0.55845695       0.16942029       0.55562554 </v>
   <v>       0.49795549       0.64698268       0.56196585 </v>
   <v>       0.36385658       0.02052008       0.55810760 </v>
   <v>       0.29254416       0.62954017       0.55480317 </v>
   <v>       0.87482410       0.02317260       0.56151069 </v>
   <v>       0.96089759       0.18725988       0.57890332 </v>
   <v>       0.99105540       0.68986133       0.58344287 </v>
   <v>       0.56331126       0.25754271       0.56739681 </v>
   <v>       0.43100947       0.69548455       0.57562386 </v>
   <v>       0.28243547       0.43748055       0.57246960 </v>
   <v>       0.19057466       0.92963341       0.57055534 </v>
   <v>       0.67712324       0.03402268       0.57020023 </v>
   <v>       0.36937010       0.28716927       0.55479346 </v>
   <v>       0.49232525       0.86931460       0.55242714 </v>
   <v>       0.01800317       0.36726906       0.55823928 </v>
   <v>       0.99723376       0.86329804       0.55442132 </v>
   <v>       0.18989883       0.43451543       0.56540941 </v>
   <v>       0.13952152       0.99167721       0.55568500 </v>
   <v>       0.66742779       0.94317656       0.56138090 </v>
   <v>       0.43586013       0.18251068       0.54615300 </v>
   <v>       0.54913905       0.75409882       0.54662654 </v>
   <v>       0.06010480       0.25090068       0.54502222 </v>
   <v>       0.08151752       0.76407917       0.54942807 </v>
   <v>       0.18678977       0.55555063       0.55384949 </v>
   <v>       0.24557064       0.05957623       0.54553508 </v>
   <v>       0.79141680       0.92825212       0.55493363 </v>
   <v>       0.48525635       0.33834719       0.66507779 </v>
   <v>       0.44722260       0.81204488       0.67376031 </v>
   <v>       0.96677204       0.28160843       0.67765580 </v>
   <v>       0.92662454       0.72475840       0.67314782 </v>
   <v>       0.30899601       0.05313452       0.67131030 </v>
   <v>       0.29935490       0.55018432       0.67498584 </v>
   <v>       0.79936346       0.05792331       0.67479555 </v>
   <v>       0.75232832       0.59804618       0.66052445 </v>
   <v>       0.08437408       0.16227685       0.64483949 </v>
   <v>       0.11155795       0.71898782       0.65027807 </v>
   <v>       0.57830412       0.16828893       0.64917788 </v>
   <v>       0.56283555       0.66432921       0.65095802 </v>
   <v>       0.18060015       0.41356464       0.64854897 </v>
   <v>       0.17534097       0.92208483       0.64841668 </v>
   <v>       0.70931379       0.40060798       0.66174875 </v>
   <v>       0.67430282       0.92459712       0.64946883 </v>
   <v>       0.06303477       0.17803733       0.67176675 </v>
   <v>       0.05732896       0.67524450       0.66922064 </v>
   <v>       0.59676564       0.25584753       0.65938958 </v>
   <v>       0.53015096       0.69615366       0.67568416 </v>
   <v>       0.19981986       0.44596097       0.67403521 </v>
   <v>       0.20629194       0.95087095       0.67321986 </v>
   <v>       0.67016739       0.48702386       0.66733941 </v>
   <v>       0.69390965       0.96132677       0.67461912 </v>
   <v>       0.39938080       0.29806085       0.65942126 </v>
   <v>       0.43307888       0.84519571       0.64793831 </v>
   <v>       0.93713067       0.32607822       0.65441452 </v>
   <v>       0.90213961       0.79602843       0.65559414 </v>
   <v>       0.33291942       0.07855835       0.64544685 </v>
   <v>       0.33233510       0.57540188       0.64985813 </v>
   <v>       0.83730681       0.07609553       0.64992314 </v>
   <v>       0.83812923       0.57866699       0.64937244 </v>
   <v>       0.00854971       0.25431315       0.63212332 </v>
   <v>       0.01899510       0.79949486       0.63956255 </v>
   <v>       0.45070098       0.18831285       0.64773948 </v>
   <v>       0.50494473       0.75459469       0.63169812 </v>
   <v>       0.25124958       0.99905745       0.62922491 </v>
   <v>       0.26120042       0.49138331       0.63151584 </v>
   <v>       0.76332551       0.99237869       0.63212118 </v>
   <v>       0.81819944       0.45074391       0.64856515 </v>
   <v>       0.44874502       0.30128397       0.76888902 </v>
   <v>       0.44874501       0.80128391       0.76888902 </v>
   <v>       0.94874497       0.30128397       0.76888902 </v>
   <v>       0.94874501       0.80128391       0.76888902 </v>
   <v>       0.30127600       0.05129450       0.76887296 </v>
   <v>       0.30127601       0.55129450       0.76887296 </v>
   <v>       0.80127594       0.05129450       0.76887296 </v>
   <v>       0.80127598       0.55129450       0.76887296 </v>
   <v>       0.07877100       0.17118050       0.74344197 </v>
   <v>       0.07877101       0.67118045       0.74344197 </v>
   <v>       0.57877100       0.17118050       0.74344197 </v>
   <v>       0.57877099       0.67118045       0.74344197 </v>
   <v>       0.17119950       0.42117448       0.74342103 </v>
   <v>       0.17119950       0.92117451       0.74342103 </v>
   <v>       0.67119951       0.42117448       0.74342103 </v>
   <v>       0.67119950       0.92117451       0.74342103 </v>
   <v>       0.05125600       0.19871499       0.76888902 </v>
   <v>       0.05125600       0.69871493       0.76888902 </v>
   <v>       0.55125603       0.19871499       0.76888902 </v>
   <v>       0.55125602       0.69871493       0.76888902 </v>
   <v>       0.19872349       0.44870397       0.76887205 </v>
   <v>       0.19872349       0.94870397       0.76887205 </v>
   <v>       0.69872352       0.44870397       0.76887205 </v>
   <v>       0.69872351       0.94870397       0.76887205 </v>
   <v>       0.42123152       0.32881747       0.74344197 </v>
   <v>       0.42123151       0.82881744       0.74344197 </v>
   <v>       0.92123147       0.32881747       0.74344197 </v>
   <v>       0.92123151       0.82881744       0.74344197 </v>
   <v>       0.32880050       0.07882500       0.74342103 </v>
   <v>       0.32880049       0.57882496       0.74342103 </v>
   <v>       0.82880048       0.07882500       0.74342103 </v>
   <v>       0.82880052       0.57882496       0.74342103 </v>
   <v>       0.00000350       0.25000148       0.72582199 </v>
   <v>       0.00000350       0.75000145       0.72582199 </v>
   <v>       0.50000351       0.25000148       0.72582199 </v>
   <v>       0.50000350       0.75000145       0.72582199 </v>
   <v>       0.25000050       0.00000000       0.72580398 </v>
   <v>       0.25000052       0.50000000       0.72580398 </v>
   <v>       0.75000050       0.00000000       0.72580398 </v>
   <v>       0.75000049       0.50000000       0.72580398 </v>
   <v>       0.77631045       0.55646197       0.51946413 </v>
   <v>       0.72115399       0.47800194       0.52535850 </v>
   <v>       0.86957864       0.50126493       0.54014624 </v>
   <v>       0.85730146       0.48137529       0.56763178 </v>
   <v>       0.74329629       0.64173786       0.56002174 </v>
   <v>       0.80860720       0.59618458       0.57675067 </v>
   <v>       0.66595694       0.54886507       0.56946558 </v>
   <v>       0.67853524       0.45683260       0.56057837 </v>
   <v>       0.61634013       0.55676793       0.53716225 </v>
   <v>       0.67231829       0.63649431       0.53532130 </v>
   <v>       0.60599049       0.64561453       0.50393136 </v>
   <v>       0.68684537       0.60153077       0.49464663 </v>
   <v>       0.78564816       0.39218321       0.53054239 </v>
   <v>       0.77900262       0.36909536       0.55836962 </v>
   <v>       0.86596208       0.36847683       0.54517001 </v>
   <v>       0.86308106       0.69477125       0.55466166 </v>
   <v>       0.84439300       0.64731963       0.53083158 </v>
   <v>       0.90825617       0.60963089       0.54997762 </v>
   <v>       0.76325495       0.52918171       0.59819533 </v>
   <v>       0.77267118       0.43548166       0.58970199 </v>
   <v>       0.68792301       0.46704230       0.60015538 </v>
   <v>       0.53589045       0.53041961       0.50347973 </v>
   <v>       0.57761203       0.54813244       0.47854518 </v>
   <v>       0.69722483       0.47791572       0.46886859 </v>
   <v>       0.55962829       0.41568210       0.52210052 </v>
   <v>       0.76284179       0.35771735       0.47140737 </v>
   <v>       0.62587394       0.29607128       0.52493397 </v>
   <v>       0.72856746       0.26688397       0.49987800 </v>
   <v>       0.01957015       0.25397334       0.55797018 </v>
   <v>       0.03520738       0.75918846       0.56060950 </v>
   <v>       0.46428692       0.22848451       0.55387476 </v>
   <v>       0.49819889       0.75740844       0.55600189 </v>
   <v>       0.23954326       0.53173950       0.55889188 </v>
   <v>       0.25100948       0.01096899       0.55585788 </v>
   <v>       0.77164880       0.98158757       0.56080882 </v>
   <v>       0.01074804       0.24414846       0.64918429 </v>
   <v>       0.00751266       0.75951243       0.65213153 </v>
   <v>       0.48712640       0.23211459       0.65346359 </v>
   <v>       0.49832232       0.75459221       0.64913673 </v>
   <v>       0.25638662       0.49396696       0.64885683 </v>
   <v>       0.25398416       0.00030270       0.64657683 </v>
   <v>       0.77576780       0.48750004       0.65493782 </v>
   <v>       0.75636770       0.99977093       0.64924179 </v>
   <v>       0.49998898       0.24999498       0.74327702 </v>
   <v>       0.49998903       0.74999496       0.74327702 </v>
   <v>       0.99998898       0.24999498       0.74327702 </v>
   <v>       0.99998903       0.74999496       0.74327702 </v>
   <v>       0.25000050       0.00000100       0.74325596 </v>
   <v>       0.25000052       0.50000100       0.74325596 </v>
   <v>       0.75000050       0.00000100       0.74325596 </v>
   <v>       0.75000049       0.50000100       0.74325596 </v>
   <v>       0.62442628       0.45584966       0.49549879 </v>
   <v>       0.68152395       0.43831452       0.48117751 </v>
   <v>       0.60436815       0.40343799       0.51095739 </v>
   <v>       0.71874645       0.37052802       0.48269325 </v>
   <v>       0.64115066       0.33588365       0.51255070 </v>
   <v>       0.69902472       0.31920749       0.49854958 </v>
   <v>       0.73240937       0.53513127       0.53007331 </v>
   <v>       0.83070939       0.47789344       0.55182558 </v>
   <v>       0.79183852       0.60483887       0.56010025 </v>
   <v>       0.70633199       0.50361395       0.56834219 </v>
   <v>       0.66227830       0.58209890       0.52823725 </v>
   <v>       0.63759394       0.59309133       0.50488214 </v>
   <v>       0.81289824       0.39806176       0.54619665 </v>
   <v>       0.85542594       0.63921102       0.54792179 </v>
   <v>       0.73554656       0.48305611       0.59021577 </v>
   <v>       0.58916268       0.53118781       0.49514539 </v>
   <v>       0.99779704       0.19079648       0.56662926 </v>
   <v>       0.03145798       0.69859312       0.57199612 </v>
   <v>       0.53470959       0.21995561       0.55820277 </v>
   <v>       0.47267196       0.69649483       0.56459242 </v>
   <v>       0.42534503       0.28812158       0.55790126 </v>
   <v>       0.46758765       0.82246181       0.55822347 </v>
   <v>       0.99570472       0.31902394       0.56427247 </v>
   <v>       0.98751978       0.81395425       0.56210657 </v>
   <v>       0.23929932       0.46128693       0.56428761 </v>
   <v>       0.19070796       0.97404459       0.56046299 </v>
   <v>       0.69965870       0.98796045       0.56335059 </v>
   <v>       0.31744159       0.99341788       0.56275172 </v>
   <v>       0.29782774       0.57497554       0.55874207 </v>
   <v>       0.82052973       0.03279193       0.56513678 </v>
   <v>       0.05458966       0.19155446       0.65602202 </v>
   <v>       0.06081467       0.71375889       0.65721550 </v>
   <v>       0.55822914       0.21842165       0.65435292 </v>
   <v>       0.53242530       0.70135951       0.65950996 </v>
   <v>       0.20968442       0.44853539       0.65797023 </v>
   <v>       0.20891116       0.95536688       0.65689304 </v>
   <v>       0.71324627       0.45696290       0.66124578 </v>
   <v>       0.70513291       0.95930779       0.65853491 </v>
   <v>       0.45587432       0.29422423       0.65934226 </v>
   <v>       0.45777617       0.80716780       0.65771169 </v>
   <v>       0.96867064       0.28642181       0.66146970 </v>
   <v>       0.94205947       0.76164044       0.66137441 </v>
   <v>       0.30137782       0.04612553       0.65517029 </v>
   <v>       0.29896516       0.54261868       0.65868759 </v>
   <v>       0.79966004       0.04737645       0.65878576 </v>
   <v>       0.78937266       0.55834954       0.65553431 </v>
   <v>       0.04586250       0.20411950       0.75272599 </v>
   <v>       0.04586250       0.70411946       0.75272599 </v>
   <v>       0.54586251       0.20411950       0.75272599 </v>
   <v>       0.54586250       0.70411946       0.75272599 </v>
   <v>       0.20411900       0.45410100       0.75270499 </v>
   <v>       0.20411899       0.95410095       0.75270499 </v>
   <v>       0.70411898       0.45410100       0.75270499 </v>
   <v>       0.70411896       0.95410095       0.75270499 </v>
   <v>       0.45414002       0.29588849       0.75272697 </v>
   <v>       0.45414001       0.79588852       0.75272697 </v>
   <v>       0.95414002       0.29588849       0.75272697 </v>
   <v>       0.95414006       0.79588852       0.75272697 </v>
   <v>       0.29588249       0.04590050       0.75270499 </v>
   <v>       0.29588248       0.54590053       0.75270499 </v>
   <v>       0.79588244       0.04590050       0.75270499 </v>
   <v>       0.79588248       0.54590053       0.75270499 </v>
   <v>       0.76500302       0.52999364       0.55247897 </v>
   <v>       0.50764395       0.01648386       0.55127970 </v>
   <v>       0.47767254       0.49864305       0.55500475 </v>
   <v>       0.00438192       0.00414040       0.54926831 </v>
   <v>       0.03961981       0.50557005       0.55347728 </v>
   <v>       0.23379189       0.24270201       0.55190555 </v>
   <v>       0.25521249       0.76386930       0.55319689 </v>
   <v>       0.73574716       0.20172672       0.55517031 </v>
   <v>       0.70339125       0.79246738       0.55365029 </v>
   <v>       0.00024834       0.98329429       0.65406704 </v>
   <v>       0.99801577       0.50075490       0.65514190 </v>
   <v>       0.50263106       0.01461722       0.65395807 </v>
   <v>       0.51291634       0.48844311       0.65527059 </v>
   <v>       0.26121527       0.24560522       0.65418743 </v>
   <v>       0.25861568       0.75323341       0.65455438 </v>
   <v>       0.75406273       0.26347661       0.65457697 </v>
   <v>       0.74417647       0.75127055       0.65443632 </v>
   <v>       0.13500638       0.10983780       0.60765157 </v>
   <v>       0.15096800       0.60395287       0.60915089 </v>
   <v>       0.64800932       0.10479431       0.61069295 </v>
   <v>       0.61669548       0.63036645       0.61096650 </v>
   <v>       0.36074880       0.38385020       0.60608747 </v>
   <v>       0.37258524       0.88196635       0.60673915 </v>
   <v>       0.89167021       0.36474733       0.61092999 </v>
   <v>       0.87218678       0.87398223       0.60600457 </v>
   <v>       0.12504759       0.36803951       0.60914515 </v>
   <v>       0.12351292       0.86688965       0.60773007 </v>
   <v>       0.58890837       0.33535448       0.60168736 </v>
   <v>       0.61775720       0.87253526       0.61206938 </v>
   <v>       0.38485926       0.13381466       0.60454444 </v>
   <v>       0.38495098       0.63014972       0.61106833 </v>
   <v>       0.88578362       0.13208962       0.61207024 </v>
   <v>       0.90048174       0.64083011       0.61184644 </v>
   <v>       0.00000000       0.00000000       0.75492797 </v>
   <v>       0.00000000       0.50000000       0.75492797 </v>
   <v>       0.50000000       0.00000000       0.75492797 </v>
   <v>       0.49999999       0.50000000       0.75492797 </v>
   <v>       0.25000050       0.25000000       0.75493902 </v>
   <v>       0.25000051       0.74999997       0.75493902 </v>
   <v>       0.75000047       0.25000000       0.75493902 </v>
   <v>       0.75000046       0.74999997       0.75493902 </v>
   <v>       0.13579050       0.11421000       0.70478299 </v>
   <v>       0.13579050       0.61420998       0.70478299 </v>
   <v>       0.63579045       0.11421000       0.70478299 </v>
   <v>       0.63579049       0.61420998       0.70478299 </v>
   <v>       0.36420952       0.38578999       0.70478299 </v>
   <v>       0.36420950       0.88578996       0.70478299 </v>
   <v>       0.86420954       0.38578999       0.70478299 </v>
   <v>       0.86420953       0.88578996       0.70478299 </v>
   <v>       0.11421799       0.36421899       0.70478098 </v>
   <v>       0.11421799       0.86421899       0.70478098 </v>
   <v>       0.61421800       0.36421899       0.70478098 </v>
   <v>       0.61421799       0.86421899       0.70478098 </v>
   <v>       0.38578201       0.13578149       0.70478202 </v>
   <v>       0.38578200       0.63578149       0.70478202 </v>
   <v>       0.88578199       0.13578149       0.70478202 </v>
   <v>       0.88578203       0.63578149       0.70478202 </v>
   <v>       0.13466700       0.11533200       0.80125603 </v>
   <v>       0.13466699       0.61533199       0.80125603 </v>
   <v>       0.63466699       0.11533200       0.80125603 </v>
   <v>       0.63466698       0.61533199       0.80125603 </v>
   <v>       0.36533300       0.38466799       0.80125603 </v>
   <v>       0.36533299       0.88466796       0.80125603 </v>
   <v>       0.86533295       0.38466799       0.80125603 </v>
   <v>       0.86533294       0.88466796       0.80125603 </v>
   <v>       0.11532850       0.36533700       0.80126500 </v>
   <v>       0.11532850       0.86533698       0.80126500 </v>
   <v>       0.61532850       0.36533700       0.80126500 </v>
   <v>       0.61532849       0.86533698       0.80126500 </v>
   <v>       0.38467151       0.13466300       0.80126500 </v>
   <v>       0.38467150       0.63466297       0.80126500 </v>
   <v>       0.88467149       0.13466300       0.80126500 </v>
   <v>       0.88467153       0.63466297       0.80126500 </v>
   <v>       0.99893764       0.99771498       0.60542395 </v>
   <v>       0.00811010       0.50090680       0.60513202 </v>
   <v>       0.50293144       0.00812397       0.60333631 </v>
   <v>       0.49788389       0.49245267       0.60496707 </v>
   <v>       0.24610768       0.24542716       0.60242500 </v>
   <v>       0.24994909       0.74460743       0.60386107 </v>
   <v>       0.74251406       0.24504953       0.60281277 </v>
   <v>       0.73757384       0.75585714       0.60302082 </v>
   <v>       0.00000050       0.00000050       0.70482896 </v>
   <v>       0.00000050       0.50000048       0.70482896 </v>
   <v>       0.50000048       0.00000050       0.70482896 </v>
   <v>       0.50000046       0.50000048       0.70482896 </v>
   <v>       0.24999999       0.24999947       0.70482499 </v>
   <v>       0.25000001       0.74999950       0.70482499 </v>
   <v>       0.74999999       0.24999947       0.70482499 </v>
   <v>       0.74999998       0.74999950       0.70482499 </v>
   <v>       0.00000000       0.00000000       0.80731797 </v>
   <v>       0.00000000       0.50000000       0.80731797 </v>
   <v>       0.50000000       0.00000000       0.80731797 </v>
   <v>       0.49999999       0.50000000       0.80731797 </v>
   <v>       0.24999999       0.25000000       0.80731797 </v>
   <v>       0.25000001       0.74999997       0.80731797 </v>
   <v>       0.74999999       0.25000000       0.80731797 </v>
   <v>       0.74999998       0.74999997       0.80731797 </v>
  </varray>
 </structure>
</modeling>
