 vasp.6.2.1 16May21 (build Nov 15 2021 14:57:28) complex                         
 executed on             LinuxPGI date 2023.07.30  19:11:22
 running on    4 total cores
 distrk:  each k-point on    4 cores,    1 groups
 distr:  one band on NCORE=   1 cores,    4 groups


--------------------------------------------------------------------------------------------------------


 INCAR:
   SYSTEM = PSC
   ISTART = 1
   ICHARG = 1
   PREC = Normal
   ENCUT = 500
   GGA_COMPAT = F
   NELM = 600
   ISYM = 0
   LREAL = Auto
   ISMEAR = 0
   SIGMA = 0.05
   AMIN = 0.01
   BMIX = 0.01
   LVTOT = T
   LWAVE = F
   LDIPOL = T
   IDIPOL = 3
   LVDW = T
   IVDW = 12

 POTCAR:    PAW_PBE H 15Jun2001                   
 POTCAR:    PAW_PBE C 08Apr2002                   
 POTCAR:    PAW_PBE N 08Apr2002                   
 POTCAR:    PAW_PBE I 08Apr2002                   
 POTCAR:    PAW_PBE Pb 08Apr2002                  
 WARNING: For LVTOT=.TRUE., VASP.5.x writes the TOTAL local potential to the
     file LOCPOT. If you want only the Hartree contributions, use LVHAR=.TRUE.
     instead. 

 POTCAR:    PAW_PBE H 15Jun2001                   
   SHA256 =  030f79b5d3ab3cf0e668861823c8fb652ff669f3e15e46930bd03bfd63a607b6 H/POTCAR              
   COPYR  = (c) Copyright 15Jun2001 Georg Kresse                                                    
   COPYR  = This file is part of the software VASP. Any use, copying, and all other rights are regul
   COPYR  = If you do not have a valid VASP license, you may not use, copy or distribute this file. 
   VRHFIN =H: ultrasoft test                                                                        
   LEXCH  = PE                                                                                      
   EATOM  =    12.4884 eV,    0.9179 Ry                                                             
                                                                                                    
   TITEL  = PAW_PBE H 15Jun2001                                                                     
   LULTRA =        F    use ultrasoft PP ?                                                          
   IUNSCR =        0    unscreen: 0-lin 1-nonlin 2-no                                               
   RPACOR =    0.000    partial core radius                                                         
   POMASS =    1.000; ZVAL   =    1.000    mass and valenz                                          
   RCORE  =    1.100    outmost cutoff radius                                                       
   RWIGS  =    0.700; RWIGS  =    0.370    wigner-seitz radius (au A)                               
   ENMAX  =  250.000; ENMIN  =  200.000 eV                                                          
   RCLOC  =    0.701    cutoff for local pot                                                        
   LCOR   =        T    correct aug charges                                                         
   LPAW   =        T    paw PP                                                                      
   EAUG   =  400.000                                                                                
   RMAX   =    1.123    core radius for proj-oper                                                   
   RAUG   =    1.200    factor for augmentation sphere                                              
   RDEP   =    1.112    radius for radial grids                                                     
   RDEPT  =    0.926    core radius for aug-charge                                                  
                                                                                                    
   Atomic configuration                                                                             
    2 entries                                                                                       
     n  l   j            E        occ.                                                              
     1  0  0.50        -6.4927   1.0000                                                             
     2  1  0.50        -3.4015   0.0000                                                             
   Description                                                                                      
     l       E           TYP  RCUT    TYP  RCUT                                                     
     0     -6.4927494     23  1.100                                                                 
     0      6.8029130     23  1.100                                                                 
     1     -4.0817478     23  1.100                                                                 
  local pseudopotential read in
  atomic valenz-charges read in
  non local Contribution for L=            0  read in
    real space projection operators read in
  non local Contribution for L=            0  read in
    real space projection operators read in
  non local Contribution for L=            1  read in
    real space projection operators read in
    PAW grid and wavefunctions read in
 
   number of l-projection  operators is LMAX  =            3
   number of lm-projection operators is LMMAX =            5
 
 POTCAR:    PAW_PBE C 08Apr2002                   
   SHA256 =  253f7b50bb8d59471dbedb8285d89021f4a42ed1a2c5d38a03a736e69125dd95 C/POTCAR              
   COPYR  = (c) Copyright 08Apr2002 Georg Kresse                                                    
   COPYR  = This file is part of the software VASP. Any use, copying, and all other rights are regul
   COPYR  = If you do not have a valid VASP license, you may not use, copy or distribute this file. 
   VRHFIN =C: s2p2                                                                                  
   LEXCH  = PE                                                                                      
   EATOM  =   147.1560 eV,   10.8157 Ry                                                             
                                                                                                    
   TITEL  = PAW_PBE C 08Apr2002                                                                     
   LULTRA =        F    use ultrasoft PP ?                                                          
   IUNSCR =        1    unscreen: 0-lin 1-nonlin 2-no                                               
   RPACOR =    1.200    partial core radius                                                         
   POMASS =   12.011; ZVAL   =    4.000    mass and valenz                                          
   RCORE  =    1.500    outmost cutoff radius                                                       
   RWIGS  =    1.630; RWIGS  =    0.863    wigner-seitz radius (au A)                               
   ENMAX  =  400.000; ENMIN  =  300.000 eV                                                          
   ICORE  =        2    local potential                                                             
   LCOR   =        T    correct aug charges                                                         
   LPAW   =        T    paw PP                                                                      
   EAUG   =  644.873                                                                                
   DEXC   =    0.000                                                                                
   RMAX   =    1.529    core radius for proj-oper                                                   
   RAUG   =    1.300    factor for augmentation sphere                                              
   RDEP   =    1.501    radius for radial grids                                                     
   RDEPT  =    1.300    core radius for aug-charge                                                  
                                                                                                    
   Atomic configuration                                                                             
    4 entries                                                                                       
     n  l   j            E        occ.                                                              
     1  0  0.50      -273.3789   2.0000                                                             
     2  0  0.50       -13.7508   2.0000                                                             
     2  1  0.50        -5.2854   2.0000                                                             
     3  2  1.50        -5.4423   0.0000                                                             
   Description                                                                                      
     l       E           TYP  RCUT    TYP  RCUT                                                     
     0    -13.7508458     23  1.200                                                                 
     0     -8.2022199     23  1.200                                                                 
     1     -5.2854383     23  1.500                                                                 
     1     34.0145650     23  1.500                                                                 
     2     -5.4423304      7  1.500                                                                 
  local pseudopotential read in
  partial core-charges read in
  partial kinetic energy density read in
  atomic valenz-charges read in
  non local Contribution for L=            0  read in
    real space projection operators read in
  non local Contribution for L=            0  read in
    real space projection operators read in
  non local Contribution for L=            1  read in
    real space projection operators read in
  non local Contribution for L=            1  read in
    real space projection operators read in
    PAW grid and wavefunctions read in
 
   number of l-projection  operators is LMAX  =            4
   number of lm-projection operators is LMMAX =            8
 
 POTCAR:    PAW_PBE N 08Apr2002                   
   SHA256 =  e053789ff3a61a86a1b75d8a110fcc91f86041011e7b0817c7c99e4e8a6349d7 N/POTCAR              
   COPYR  = (c) Copyright 08Apr2002 Georg Kresse                                                    
   COPYR  = This file is part of the software VASP. Any use, copying, and all other rights are regul
   COPYR  = If you do not have a valid VASP license, you may not use, copy or distribute this file. 
   VRHFIN =N: s2p3                                                                                  
   LEXCH  = PE                                                                                      
   EATOM  =   264.5486 eV,   19.4438 Ry                                                             
                                                                                                    
   TITEL  = PAW_PBE N 08Apr2002                                                                     
   LULTRA =        F    use ultrasoft PP ?                                                          
   IUNSCR =        1    unscreen: 0-lin 1-nonlin 2-no                                               
   RPACOR =    1.200    partial core radius                                                         
   POMASS =   14.001; ZVAL   =    5.000    mass and valenz                                          
   RCORE  =    1.500    outmost cutoff radius                                                       
   RWIGS  =    1.400; RWIGS  =    0.741    wigner-seitz radius (au A)                               
   ENMAX  =  400.000; ENMIN  =  300.000 eV                                                          
   ICORE  =        2    local potential                                                             
   LCOR   =        T    correct aug charges                                                         
   LPAW   =        T    paw PP                                                                      
   EAUG   =  627.112                                                                                
   DEXC   =    0.000                                                                                
   RMAX   =    1.529    core radius for proj-oper                                                   
   RAUG   =    1.300    factor for augmentation sphere                                              
   RDEP   =    1.514    radius for radial grids                                                     
   RDEPT  =    1.338    core radius for aug-charge                                                  
                                                                                                    
   Atomic configuration                                                                             
    4 entries                                                                                       
     n  l   j            E        occ.                                                              
     1  0  0.50      -384.7179   2.0000                                                             
     2  0  0.50       -18.5828   2.0000                                                             
     2  1  0.50        -7.0898   3.0000                                                             
     3  2  1.50        -6.8029   0.0000                                                             
   Description                                                                                      
     l       E           TYP  RCUT    TYP  RCUT                                                     
     0    -18.5828119     23  1.200                                                                 
     0    -13.5018863     23  1.200                                                                 
     1     -7.0897853     23  1.500                                                                 
     1      9.5240782     23  1.500                                                                 
     2     -6.8029130      7  1.500                                                                 
  local pseudopotential read in
  partial core-charges read in
  partial kinetic energy density read in
  atomic valenz-charges read in
  non local Contribution for L=            0  read in
    real space projection operators read in
  non local Contribution for L=            0  read in
    real space projection operators read in
  non local Contribution for L=            1  read in
    real space projection operators read in
  non local Contribution for L=            1  read in
    real space projection operators read in
    PAW grid and wavefunctions read in
 
   number of l-projection  operators is LMAX  =            4
   number of lm-projection operators is LMMAX =            8
 
 POTCAR:    PAW_PBE I 08Apr2002                   
   SHA256 =  e40f3f59b681c1fc3e3091736183c4589116986673d2b852a5012aec72758799 I/POTCAR              
   COPYR  = (c) Copyright 08Apr2002 Georg Kresse                                                    
   COPYR  = This file is part of the software VASP. Any use, copying, and all other rights are regul
   COPYR  = If you do not have a valid VASP license, you may not use, copy or distribute this file. 
   VRHFIN =I : s2p5                                                                                 
   LEXCH  = PE                                                                                      
   EATOM  =   315.8678 eV,   23.2156 Ry                                                             
                                                                                                    
   TITEL  = PAW_PBE I 08Apr2002                                                                     
   LULTRA =        F    use ultrasoft PP ?                                                          
   IUNSCR =        1    unscreen: 0-lin 1-nonlin 2-no                                               
   RPACOR =    2.200    partial core radius                                                         
   POMASS =  126.904; ZVAL   =    7.000    mass and valenz                                          
   RCORE  =    2.300    outmost cutoff radius                                                       
   RWIGS  =    2.810; RWIGS  =    1.487    wigner-seitz radius (au A)                               
   ENMAX  =  175.647; ENMIN  =  131.735 eV                                                          
   ICORE  =        3    local potential                                                             
   LCOR   =        T    correct aug charges                                                         
   LPAW   =        T    paw PP                                                                      
   EAUG   =  370.139                                                                                
   DEXC   =    0.000                                                                                
   RMAX   =    2.359    core radius for proj-oper                                                   
   RAUG   =    1.300    factor for augmentation sphere                                              
   RDEP   =    2.392    radius for radial grids                                                     
   RDEPT  =    2.170    core radius for aug-charge                                                  
                                                                                                    
   Atomic configuration                                                                             
   13 entries                                                                                       
     n  l   j            E        occ.                                                              
     1  0  0.50    -32976.3739   2.0000                                                             
     2  0  0.50     -5094.5933   2.0000                                                             
     2  1  1.50     -4572.0131   6.0000                                                             
     3  0  0.50     -1028.2813   2.0000                                                             
     3  1  1.50      -859.0250   6.0000                                                             
     3  2  2.50      -605.7620  10.0000                                                             
     4  0  0.50      -180.5540   2.0000                                                             
     4  1  1.50      -127.5306   6.0000                                                             
     4  2  2.50       -50.2720  10.0000                                                             
     5  0  0.50       -17.4058   2.0000                                                             
     5  1  0.50        -7.0851   5.0000                                                             
     5  2  1.50        -7.0750   0.0000                                                             
     4  3  2.50        -7.0750   0.0000                                                             
   Description                                                                                      
     l       E           TYP  RCUT    TYP  RCUT                                                     
     0    -17.4058016     23  2.300                                                                 
     0    -18.7663842     23  2.300                                                                 
     1     -7.0850686     23  2.300                                                                 
     1     -4.2150896     23  2.300                                                                 
     2     -7.0750295     23  2.300                                                                 
     3     -1.3605826     23  2.300                                                                 
  local pseudopotential read in
  partial core-charges read in
  partial kinetic energy density read in
  atomic valenz-charges read in
  non local Contribution for L=            0  read in
    real space projection operators read in
  non local Contribution for L=            0  read in
    real space projection operators read in
  non local Contribution for L=            1  read in
    real space projection operators read in
  non local Contribution for L=            1  read in
    real space projection operators read in
  non local Contribution for L=            2  read in
    real space projection operators read in
    PAW grid and wavefunctions read in
 
   number of l-projection  operators is LMAX  =            5
   number of lm-projection operators is LMMAX =           13
 
 POTCAR:    PAW_PBE Pb 08Apr2002                  
   SHA256 =  797118a27cf1bcd06b9881c67a26cdde129e3cd1a551dd4a281f9681ce847303 Pb/POTCAR             
   COPYR  = (c) Copyright 08Apr2002 Georg Kresse                                                    
   COPYR  = This file is part of the software VASP. Any use, copying, and all other rights are regul
   COPYR  = If you do not have a valid VASP license, you may not use, copy or distribute this file. 
   VRHFIN =Pb:                                                                                      
   LEXCH  = PE                                                                                      
   EATOM  =    96.9868 eV,    7.1283 Ry                                                             
                                                                                                    
   TITEL  = PAW_PBE Pb 08Apr2002                                                                    
   LULTRA =        F    use ultrasoft PP ?                                                          
   IUNSCR =        1    unscreen: 0-lin 1-nonlin 2-no                                               
   RPACOR =    2.200    partial core radius                                                         
   POMASS =  207.200; ZVAL   =    4.000    mass and valenz                                          
   RCORE  =    3.100    outmost cutoff radius                                                       
   RWIGS  =    3.260; RWIGS  =    1.725    wigner-seitz radius (au A)                               
   ENMAX  =   97.973; ENMIN  =   73.480 eV                                                          
   ICORE  =        3    local potential                                                             
   LCOR   =        T    correct aug charges                                                         
   LPAW   =        T    paw PP                                                                      
   EAUG   =  234.873                                                                                
   DEXC   =    0.000                                                                                
   RMAX   =    3.158    core radius for proj-oper                                                   
   RAUG   =    1.300    factor for augmentation sphere                                              
   RDEP   =    3.202    radius for radial grids                                                     
   RDEPT  =    2.659    core radius for aug-charge                                                  
                                                                                                    
   Atomic configuration                                                                             
   17 entries                                                                                       
     n  l   j            E        occ.                                                              
     1  0  0.50    -88091.8466   2.0000                                                             
     2  0  0.50    -15753.4197   2.0000                                                             
     2  1  1.50    -13508.1797   6.0000                                                             
     3  0  0.50     -3781.7194   2.0000                                                             
     3  1  1.50     -3138.2529   6.0000                                                             
     3  2  2.50     -2483.2977  10.0000                                                             
     4  0  0.50      -856.2895   2.0000                                                             
     4  1  1.50      -645.4943   6.0000                                                             
     4  2  2.50      -401.8768  10.0000                                                             
     4  3  3.50      -132.9059  14.0000                                                             
     5  0  0.50      -144.0950   2.0000                                                             
     5  1  1.50       -85.7879   6.0000                                                             
     5  2  2.50       -21.1769  10.0000                                                             
     6  0  0.50       -12.0372   2.0000                                                             
     6  1  1.50        -3.4971   2.0000                                                             
     6  2  2.50        -1.3606   0.0000                                                             
     5  3  2.50        -2.7212   0.0000                                                             
   Description                                                                                      
     l       E           TYP  RCUT    TYP  RCUT                                                     
     0    -12.0371566     23  3.100                                                                 
     0    -13.3977392     23  3.100                                                                 
     1     -3.4971341     23  3.100                                                                 
     1     -5.4423304     23  3.100                                                                 
     2     -1.3605826     23  3.100                                                                 
     3     -1.3605826     23  3.100                                                                 
  local pseudopotential read in
  partial core-charges read in
  partial kinetic energy density read in
  atomic valenz-charges read in
  non local Contribution for L=            0  read in
    real space projection operators read in
  non local Contribution for L=            0  read in
    real space projection operators read in
  non local Contribution for L=            1  read in
    real space projection operators read in
  non local Contribution for L=            1  read in
    real space projection operators read in
  non local Contribution for L=            2  read in
    real space projection operators read in
    PAW grid and wavefunctions read in
 
   number of l-projection  operators is LMAX  =            5
   number of lm-projection operators is LMMAX =           13
 
 Optimization of the real space projectors (new method)

 maximal supplied QI-value         = 34.20
 optimisation between [QCUT,QGAM] = [ 11.29, 22.57] = [ 35.68,142.71] Ry 
 Optimized for a Real-space Cutoff    1.16 Angstroem

   l    n(q)    QCUT    max X(q) W(low)/X(q) W(high)/X(q)  e(spline) 
   0      8    11.287    19.460    0.40E-03    0.73E-03    0.16E-06
   0      8    11.287    12.209    0.38E-03    0.70E-03    0.15E-06
   1      7    11.287     4.655    0.22E-03    0.25E-04    0.22E-06
 Optimization of the real space projectors (new method)

 maximal supplied QI-value         = 25.13
 optimisation between [QCUT,QGAM] = [ 11.31, 22.87] = [ 35.82,146.48] Ry 
 Optimized for a Real-space Cutoff    1.00 Angstroem

   l    n(q)    QCUT    max X(q) W(low)/X(q) W(high)/X(q)  e(spline) 
   0      7    11.310   115.676    0.43E-03    0.13E-02    0.19E-06
   0      7    11.310    87.132    0.43E-03    0.13E-02    0.18E-06
   1      6    11.310     4.429    0.42E-03    0.74E-03    0.11E-06
   1      6    11.310     2.733    0.34E-03    0.55E-03    0.92E-07
 Optimization of the real space projectors (new method)

 maximal supplied QI-value         = 25.13
 optimisation between [QCUT,QGAM] = [ 11.31, 22.87] = [ 35.82,146.48] Ry 
 Optimized for a Real-space Cutoff    1.27 Angstroem

   l    n(q)    QCUT    max X(q) W(low)/X(q) W(high)/X(q)  e(spline) 
   0      9    11.310    79.467    0.75E-04    0.16E-03    0.36E-06
   0      9    11.310    66.151    0.74E-04    0.16E-03    0.36E-06
   1      8    11.310    17.416    0.35E-03    0.12E-03    0.95E-06
   1      8    11.310    12.382    0.37E-03    0.13E-03    0.98E-06
 Optimization of the real space projectors (new method)

 maximal supplied QI-value         = 16.25
 optimisation between [QCUT,QGAM] = [ 11.38, 22.75] = [ 36.24,144.96] Ry 
 Optimized for a Real-space Cutoff    1.31 Angstroem

   l    n(q)    QCUT    max X(q) W(low)/X(q) W(high)/X(q)  e(spline) 
   0      9    11.376   194.483    0.24E-03    0.23E-03    0.67E-07
   0      9    11.376   190.334    0.23E-03    0.22E-03    0.65E-07
   1      8    11.376   116.687    0.25E-03    0.63E-04    0.16E-06
   1      8    11.376    88.696    0.25E-03    0.61E-04    0.16E-06
   2      8    11.376     4.877    0.17E-03    0.14E-03    0.29E-07
 Optimization of the real space projectors (new method)

 maximal supplied QI-value         = 12.09
 optimisation between [QCUT,QGAM] = [ 11.37, 22.86] = [ 36.19,146.31] Ry 
 Optimized for a Real-space Cutoff    1.66 Angstroem

   l    n(q)    QCUT    max X(q) W(low)/X(q) W(high)/X(q)  e(spline) 
   0     11    11.369   135.111    0.12E-03    0.69E-04    0.19E-05
   0     11    11.369   146.850    0.11E-03    0.65E-04    0.18E-05
   1     11    11.369   148.016    0.17E-03    0.32E-03    0.89E-06
   1     11    11.369   122.989    0.17E-03    0.32E-03    0.91E-06
   2     10    11.369     8.916    0.12E-03    0.45E-04    0.33E-06
  PAW_PBE H 15Jun2001                   :
 energy of atom  1       EATOM=  -12.4884
 kinetic energy error for atom=    0.0020 (will be added to EATOM!!)
  PAW_PBE C 08Apr2002                   :
 energy of atom  2       EATOM= -147.1560
 kinetic energy error for atom=    0.0076 (will be added to EATOM!!)
  PAW_PBE N 08Apr2002                   :
 energy of atom  3       EATOM= -264.5486
 kinetic energy error for atom=    0.0138 (will be added to EATOM!!)
  PAW_PBE I 08Apr2002                   :
 energy of atom  4       EATOM= -315.8678
 kinetic energy error for atom=    0.0009 (will be added to EATOM!!)
  PAW_PBE Pb 08Apr2002                  :
 energy of atom  5       EATOM=  -96.9868
 kinetic energy error for atom=    0.0000 (will be added to EATOM!!)
 
 
 POSCAR:  H  C  N  I Pb
  positions in cartesian coordinates
  No initial velocities read in
 exchange correlation table for  LEXCH =        8
   RHO(1)=    0.500       N(1)  =     2000
   RHO(2)=  100.500       N(2)  =     4000
 


--------------------------------------------------------------------------------------------------------


 ion  position               nearest neighbor table
   1  0.458  0.325  0.576- 187 1.04
   2  0.450  0.844  0.575- 188 1.05
   3  0.922  0.245  0.581- 189 1.02
   4  0.946  0.806  0.581- 190 1.00
   5  0.301  0.062  0.576- 194 1.03
   6  0.318  0.568  0.578- 195 1.02
   7  0.795  0.077  0.579- 196 1.02
   8  0.108  0.238  0.559- 183 1.04
   9  0.095  0.679  0.566- 184 1.03
  10  0.568  0.171  0.556- 185 1.02
  11  0.497  0.651  0.566- 186 1.02
  12  0.362  0.011  0.560- 194 1.02
  13  0.275  0.623  0.558- 195 1.03
  14  0.870  0.030  0.567- 196 1.04
  15  0.061  0.230  0.583- 183 1.03
  16  0.026  0.692  0.585- 184 1.03
  17  0.572  0.250  0.573- 185 1.04
  18  0.469  0.711  0.586- 186 1.02
  19  0.276  0.437  0.580- 191 1.04
  20  0.167  0.034  0.573- 192 1.03
  21  0.674  0.018  0.577- 193 1.03
  22  0.380  0.291  0.562- 187 1.03
  23  0.485  0.868  0.550- 188 1.01
  24  0.880  0.246  0.556- 189 1.03
  25  0.976  0.868  0.561- 190 1.03
  26  0.203  0.412  0.563- 191 1.00
  27  0.141  0.968  0.554- 192 1.03
  28  0.670  0.931  0.563- 193 1.02
  29  0.443  0.191  0.547- 146 1.09
  30  0.517  0.744  0.541- 147 1.11
  31  0.997  0.248  0.539- 144 1.08
  32  0.067  0.790  0.548- 145 1.09
  33  0.196  0.529  0.547- 148 1.10
  34  0.266  0.944  0.544- 149 1.10
  35  0.791  0.932  0.555- 150 1.10
  36  0.463  0.311  0.675- 205 1.04
  37  0.432  0.810  0.673- 206 1.04
  38  0.958  0.279  0.679- 207 1.00
  39  0.927  0.778  0.674- 208 1.03
  40  0.305  0.056  0.674- 209 1.04
  41  0.295  0.539  0.678- 210 1.03
  42  0.790  0.052  0.676- 211 1.04
  43  0.848  0.500  0.668- 212 1.03
  44  0.088  0.176  0.645- 197 1.02
  45  0.096  0.691  0.653- 198 1.01
  46  0.576  0.167  0.649- 199 1.01
  47  0.574  0.678  0.655- 200 1.01
  48  0.175  0.415  0.646- 201 1.03
  49  0.176  0.923  0.650- 202 1.00
  50  0.649  0.478  0.659- 203 1.04
  51  0.672  0.916  0.649- 204 1.00
  52  0.065  0.184  0.672- 197 1.02
  53  0.037  0.686  0.675- 198 1.02
  54  0.568  0.212  0.674- 199 1.03
  55  0.534  0.709  0.679- 200 1.04
  56  0.198  0.433  0.673- 201 1.04
  57  0.201  0.955  0.675- 202 1.03
  58  0.721  0.441  0.674- 203 1.03
  59  0.693  0.946  0.674- 204 1.04
  60  0.414  0.320  0.651- 205 1.02
  61  0.419  0.833  0.646- 206 1.02
  62  0.925  0.320  0.656- 207 1.01
  63  0.926  0.834  0.652- 208 1.02
  64  0.334  0.078  0.648- 209 1.01
  65  0.323  0.580  0.654- 210 1.04
  66  0.825  0.077  0.651- 211 1.02
  67  0.853  0.561  0.646- 212 1.02
  68  0.002  0.262  0.633- 151 1.08
  69  0.032  0.784  0.637- 152 1.08
  70  0.480  0.232  0.633- 153 1.09
  71  0.507  0.753  0.633- 154 1.08
  72  0.254  0.996  0.631- 156 1.08
  73  0.251  0.506  0.633- 155 1.08
  74  0.753  0.994  0.632- 158 1.08
  75  0.725  0.554  0.639- 157 1.08
  76  0.449  0.301  0.769- 221 1.02
  77  0.449  0.801  0.769- 222 1.02
  78  0.949  0.301  0.769- 223 1.02
  79  0.949  0.801  0.769- 224 1.02
  80  0.301  0.051  0.769- 225 1.02
  81  0.301  0.551  0.769- 226 1.02
  82  0.801  0.051  0.769- 227 1.02
  83  0.801  0.551  0.769- 228 1.02
  84  0.079  0.171  0.743- 213 1.02
  85  0.079  0.671  0.743- 214 1.02
  86  0.579  0.171  0.743- 215 1.02
  87  0.579  0.671  0.743- 216 1.02
  88  0.171  0.421  0.743- 217 1.02
  89  0.171  0.921  0.743- 218 1.02
  90  0.671  0.421  0.743- 219 1.02
  91  0.671  0.921  0.743- 220 1.02
  92  0.051  0.199  0.769- 213 1.02
  93  0.051  0.699  0.769- 214 1.02
  94  0.551  0.199  0.769- 215 1.02
  95  0.551  0.699  0.769- 216 1.02
  96  0.199  0.449  0.769- 217 1.02
  97  0.199  0.949  0.769- 218 1.02
  98  0.699  0.449  0.769- 219 1.02
  99  0.699  0.949  0.769- 220 1.02
 100  0.421  0.329  0.743- 221 1.02
 101  0.421  0.829  0.743- 222 1.02
 102  0.921  0.329  0.743- 223 1.02
 103  0.921  0.829  0.743- 224 1.02
 104  0.329  0.079  0.743- 225 1.02
 105  0.329  0.579  0.743- 226 1.02
 106  0.829  0.079  0.743- 227 1.02
 107  0.829  0.579  0.743- 228 1.02
 108  0.000  0.250  0.726- 161 1.09
 109  0.000  0.750  0.726- 162 1.09
 110  0.500  0.250  0.726- 159 1.09
 111  0.500  0.750  0.726- 160 1.09
 112  0.250  0.000  0.726- 163 1.09
 113  0.250  0.500  0.726- 164 1.09
 114  0.750  0.000  0.726- 165 1.09
 115  0.750  0.500  0.726- 166 1.09
 116  0.717  0.438  0.542- 173 1.09
 117  0.736  0.497  0.520- 173 1.08
 118  0.654  0.551  0.561- 174 1.10
 119  0.703  0.636  0.559- 174 1.11
 120  0.843  0.504  0.572- 175 1.09
 121  0.780  0.570  0.582- 175 1.10
 122  0.865  0.558  0.533- 176 1.10
 123  0.793  0.625  0.528- 176 1.10
 124  0.867  0.467  0.519- 177 1.10
 125  0.864  0.429  0.545- 177 1.10
 126  0.874  0.331  0.520- 178 1.10
 127  0.785  0.323  0.531- 178 1.10
 128  0.637  0.548  0.521- 179 1.10
 129  0.691  0.632  0.519- 179 1.10
 130  0.605  0.633  0.533- 179 1.10
 131  0.753  0.449  0.599- 180 1.10
 132  0.744  0.404  0.574- 180 1.10
 133  0.679  0.472  0.582- 180 1.09
 134  0.826  0.686  0.563- 181 1.10
 135  0.893  0.686  0.543- 181 1.11
 136  0.904  0.622  0.565- 181 1.11
 137  0.819  0.390  0.487- 182 1.11
 138  0.785  0.299  0.492- 182 1.11
 139  0.663  0.320  0.523- 168 1.10
 140  0.733  0.462  0.471- 169 1.11
 141  0.538  0.377  0.522- 170 1.09
 142  0.608  0.519  0.470- 171 1.10
 143  0.509  0.476  0.495- 172 1.11
 144  0.994  0.244  0.556-  31 1.08 189 1.31 183 1.32
 145  0.034  0.773  0.562-  32 1.09 184 1.31 190 1.31
 146  0.472  0.230  0.558-  29 1.09 185 1.31 187 1.33
 147  0.495  0.759  0.557-  30 1.11 188 1.30 186 1.31
 148  0.237  0.518  0.559-  33 1.10 195 1.32 191 1.32
 149  0.253  0.987  0.556-  34 1.10 192 1.31 194 1.32
 150  0.770  0.979  0.564-  35 1.10 196 1.31 193 1.31
 151  0.007  0.248  0.650-  68 1.08 207 1.32 197 1.32
 152  0.011  0.763  0.652-  69 1.08 208 1.31 198 1.32
 153  0.495  0.244  0.650-  70 1.09 205 1.31 199 1.32
 154  0.497  0.756  0.650-  71 1.08 206 1.30 200 1.31
 155  0.249  0.498  0.650-  73 1.08 210 1.30 201 1.31
 156  0.255  0.001  0.648-  72 1.08 209 1.30 202 1.32
 157  0.750  0.520  0.651-  75 1.08 212 1.31 203 1.32
 158  0.749  0.997  0.649-  74 1.08 211 1.30 204 1.32
 159  0.500  0.250  0.743- 110 1.09 221 1.31 215 1.31
 160  0.500  0.750  0.743- 111 1.09 222 1.31 216 1.31
 161  1.000  0.250  0.743- 108 1.09 223 1.31 213 1.31
 162  1.000  0.750  0.743- 109 1.09 224 1.31 214 1.31
 163  0.250  0.000  0.743- 112 1.09 225 1.31 218 1.31
 164  0.250  0.500  0.743- 113 1.09 226 1.31 217 1.31
 165  0.750  0.000  0.743- 114 1.09 227 1.31 220 1.31
 166  0.750  0.500  0.743- 115 1.09 228 1.31 219 1.31
 167  0.707  0.388  0.497- 169 1.40 168 1.42 182 1.51
 168  0.650  0.363  0.511- 139 1.10 170 1.39 167 1.42
 169  0.689  0.443  0.482- 140 1.11 167 1.40 171 1.40
 170  0.580  0.395  0.510- 141 1.09 168 1.39 172 1.40
 171  0.619  0.475  0.481- 142 1.10 172 1.38 169 1.40
 172  0.565  0.451  0.495- 143 1.11 171 1.38 170 1.40
 173  0.759  0.475  0.535- 117 1.08 116 1.09 177 1.52 229 1.53
 174  0.691  0.583  0.551- 118 1.10 119 1.11 179 1.52 229 1.54
 175  0.785  0.519  0.573- 120 1.09 121 1.10 229 1.52 180 1.52
 176  0.823  0.594  0.540- 122 1.10 123 1.10 181 1.52 229 1.53
 177  0.832  0.435  0.530- 125 1.10 124 1.10 178 1.52 173 1.52
 178  0.819  0.358  0.520- 126 1.10 127 1.10 182 1.52 177 1.52
 179  0.655  0.599  0.530- 128 1.10 129 1.10 130 1.10 174 1.52
 180  0.738  0.458  0.582- 133 1.09 131 1.10 132 1.10 175 1.52
 181  0.863  0.649  0.555- 134 1.10 135 1.11 136 1.11 176 1.52
 182  0.784  0.357  0.498- 138 1.11 137 1.11 167 1.51 178 1.52
 183  0.057  0.235  0.567-  15 1.03   8 1.04 144 1.32
 184  0.052  0.711  0.572-  16 1.03   9 1.03 145 1.31
 185  0.542  0.216  0.562-  10 1.02  17 1.04 146 1.31
 186  0.490  0.705  0.571-  18 1.02  11 1.02 147 1.31
 187  0.435  0.289  0.565-  22 1.03   1 1.04 146 1.33
 188  0.476  0.827  0.560-  23 1.01   2 1.05 147 1.30
 189  0.928  0.249  0.565-   3 1.02  24 1.03 144 1.31
 190  0.978  0.816  0.568-   4 1.00  25 1.03 145 1.31
 191  0.238  0.450  0.568-  26 1.00  19 1.04 148 1.32
 192  0.183  0.996  0.561-  27 1.03  20 1.03 149 1.31
 193  0.698  0.978  0.567-  28 1.02  21 1.03 150 1.31
 194  0.308  0.024  0.564-  12 1.02   5 1.03 149 1.32
 195  0.281  0.572  0.565-   6 1.02  13 1.03 148 1.32
 196  0.814  0.032  0.571-   7 1.02  14 1.04 150 1.31
 197  0.056  0.200  0.657-  44 1.02  52 1.02 151 1.32
 198  0.050  0.710  0.661-  45 1.01  53 1.02 152 1.32
 199  0.550  0.205  0.658-  46 1.01  54 1.03 153 1.32
 200  0.537  0.712  0.662-  47 1.01  55 1.04 154 1.31
 201  0.205  0.446  0.657-  48 1.03  56 1.04 155 1.31
 202  0.208  0.957  0.658-  49 1.00  57 1.03 156 1.32
 203  0.705  0.475  0.662-  58 1.03  50 1.04 157 1.32
 204  0.702  0.950  0.658-  51 1.00  59 1.04 158 1.32
 205  0.456  0.294  0.659-  60 1.02  36 1.04 153 1.31
 206  0.447  0.802  0.657-  61 1.02  37 1.04 154 1.30
 207  0.960  0.284  0.663-  38 1.00  62 1.01 151 1.32
 208  0.952  0.794  0.660-  63 1.02  39 1.03 152 1.31
 209  0.300  0.047  0.658-  64 1.01  40 1.04 156 1.30
 210  0.291  0.541  0.661-  41 1.03  65 1.04 155 1.30
 211  0.790  0.045  0.660-  66 1.02  42 1.04 158 1.30
 212  0.821  0.527  0.655-  67 1.02  43 1.03 157 1.31
 213  0.046  0.204  0.753-  92 1.02  84 1.02 161 1.31
 214  0.046  0.704  0.753-  93 1.02  85 1.02 162 1.31
 215  0.546  0.204  0.753-  94 1.02  86 1.02 159 1.31
 216  0.546  0.704  0.753-  95 1.02  87 1.02 160 1.31
 217  0.204  0.454  0.753-  96 1.02  88 1.02 164 1.31
 218  0.204  0.954  0.753-  97 1.02  89 1.02 163 1.31
 219  0.704  0.454  0.753-  98 1.02  90 1.02 166 1.31
 220  0.704  0.954  0.753-  99 1.02  91 1.02 165 1.31
 221  0.454  0.296  0.753-  76 1.02 100 1.02 159 1.31
 222  0.454  0.796  0.753-  77 1.02 101 1.02 160 1.31
 223  0.954  0.296  0.753-  78 1.02 102 1.02 161 1.31
 224  0.954  0.796  0.753-  79 1.02 103 1.02 162 1.31
 225  0.296  0.046  0.753-  80 1.02 104 1.02 163 1.31
 226  0.296  0.546  0.753-  81 1.02 105 1.02 164 1.31
 227  0.796  0.046  0.753-  82 1.02 106 1.02 165 1.31
 228  0.796  0.546  0.753-  83 1.02 107 1.02 166 1.31
 229  0.766  0.541  0.550- 175 1.52 173 1.53 176 1.53 174 1.54
 230  0.502  0.017  0.553- 304 3.25
 231  0.483  0.515  0.556- 305 3.08
 232  0.994  0.005  0.552- 302 3.33
 233  0.035  0.505  0.554- 303 3.21
 234  0.245  0.247  0.553- 306 3.23
 235  0.249  0.764  0.552- 307 3.22
 236  0.743  0.213  0.557- 308 3.18
 237  0.706  0.792  0.549- 309 3.40
 238  0.007  0.998  0.655- 302 3.09 310 3.12
 239  0.013  0.490  0.656- 311 3.09 303 3.23
 240  0.501  0.003  0.655- 304 3.12 312 3.13
 241  0.505  0.493  0.655- 313 3.09 305 3.19
 242  0.255  0.245  0.655- 306 3.12 314 3.14
 243  0.249  0.754  0.655- 315 3.14 307 3.18
 244  0.745  0.257  0.656- 316 3.07 308 3.11
 245  0.748  0.748  0.654- 317 3.21 309 3.23
 246  0.141  0.112  0.607- 306 3.21 302 3.28
 247  0.144  0.612  0.611- 303 3.16 307 3.24
 248  0.646  0.109  0.610- 304 3.17 308 3.28
 249  0.622  0.628  0.614- 305 3.22 309 3.24
 250  0.359  0.394  0.610- 305 3.23 306 3.25
 251  0.372  0.884  0.607- 307 3.23 304 3.26
 252  0.885  0.370  0.613- 308 3.23 303 3.34
 253  0.866  0.883  0.610- 302 3.21 309 3.28
 254  0.115  0.359  0.609- 306 3.09 303 3.34
 255  0.121  0.876  0.609- 307 3.14 302 3.28
 256  0.588  0.343  0.605- 308 3.24 305 3.32
 257  0.612  0.863  0.610- 309 3.03 304 3.28
 258  0.384  0.133  0.607- 304 3.15 306 3.26
 259  0.381  0.634  0.614- 305 3.24 307 3.33
 260  0.889  0.142  0.614- 302 3.17 308 3.37
 261  0.913  0.651  0.617- 303 3.20 309 3.80
 262  0.000  0.000  0.755- 310 3.13 318 3.27
 263  0.000  0.500  0.755- 311 3.13 319 3.27
 264  0.500  0.000  0.755- 312 3.13 320 3.27
 265  0.500  0.500  0.755- 313 3.13 321 3.27
 266  0.250  0.250  0.755- 314 3.13 322 3.27
 267  0.250  0.750  0.755- 315 3.13 323 3.27
 268  0.750  0.250  0.755- 316 3.13 324 3.27
 269  0.750  0.750  0.755- 317 3.13 325 3.27
 270  0.136  0.114  0.705- 310 3.20 314 3.20
 271  0.136  0.614  0.705- 311 3.20 315 3.20
 272  0.636  0.114  0.705- 312 3.20 316 3.20
 273  0.636  0.614  0.705- 313 3.20 317 3.20
 274  0.364  0.386  0.705- 313 3.20 314 3.20
 275  0.364  0.886  0.705- 312 3.20 315 3.20
 276  0.864  0.386  0.705- 311 3.20 316 3.20
 277  0.864  0.886  0.705- 310 3.20 317 3.20
 278  0.114  0.364  0.705- 314 3.21 311 3.21
 279  0.114  0.864  0.705- 315 3.21 310 3.21
 280  0.614  0.364  0.705- 316 3.21 313 3.21
 281  0.614  0.864  0.705- 317 3.21 312 3.21
 282  0.386  0.136  0.705- 314 3.21 312 3.21
 283  0.386  0.636  0.705- 315 3.21 313 3.21
 284  0.886  0.136  0.705- 316 3.21 310 3.21
 285  0.886  0.636  0.705- 317 3.21 311 3.21
 286  0.135  0.115  0.801- 318 3.22 322 3.22
 287  0.135  0.615  0.801- 319 3.22 323 3.22
 288  0.635  0.115  0.801- 320 3.22 324 3.22
 289  0.635  0.615  0.801- 321 3.22 325 3.22
 290  0.365  0.385  0.801- 321 3.22 322 3.22
 291  0.365  0.885  0.801- 320 3.22 323 3.22
 292  0.865  0.385  0.801- 319 3.22 324 3.22
 293  0.865  0.885  0.801- 318 3.22 325 3.22
 294  0.115  0.365  0.801- 319 3.23 322 3.23
 295  0.115  0.865  0.801- 318 3.23 323 3.23
 296  0.615  0.365  0.801- 321 3.23 324 3.23
 297  0.615  0.865  0.801- 320 3.23 325 3.23
 298  0.385  0.135  0.801- 320 3.23 322 3.23
 299  0.385  0.635  0.801- 321 3.23 323 3.23
 300  0.885  0.135  0.801- 318 3.23 324 3.23
 301  0.885  0.635  0.801- 319 3.23 325 3.23
 302  0.994  0.005  0.606- 238 3.09 260 3.17 253 3.21 246 3.28 255 3.28 232 3.33
 303  0.006  0.507  0.604- 247 3.16 261 3.20 233 3.21 239 3.23 252 3.34 254 3.34
 304  0.504  0.007  0.605- 240 3.12 258 3.15 248 3.17 230 3.25 251 3.26 257 3.28
 305  0.498  0.503  0.605- 231 3.08 241 3.19 249 3.22 250 3.23 259 3.24 256 3.32
 306  0.249  0.252  0.605- 254 3.09 242 3.12 246 3.21 234 3.23 250 3.25 258 3.26
 307  0.247  0.757  0.604- 255 3.14 243 3.18 235 3.22 251 3.23 247 3.24 259 3.33
 308  0.747  0.260  0.606- 244 3.11 236 3.18 252 3.23 256 3.24 248 3.28 260 3.37
 309  0.739  0.757  0.602- 257 3.03 245 3.23 249 3.24 253 3.28 237 3.40 261 3.80
 310  0.000  0.000  0.705- 238 3.12 262 3.13 270 3.20 277 3.20 279 3.21 284 3.21
 311  0.000  0.500  0.705- 239 3.09 263 3.13 271 3.20 276 3.20 278 3.21 285 3.21
 312  0.500  0.000  0.705- 264 3.13 240 3.13 272 3.20 275 3.20 281 3.21 282 3.21
 313  0.500  0.500  0.705- 241 3.09 265 3.13 273 3.20 274 3.20 280 3.21 283 3.21
 314  0.250  0.250  0.705- 266 3.13 242 3.14 270 3.20 274 3.20 282 3.21 278 3.21
 315  0.250  0.750  0.705- 267 3.13 243 3.14 271 3.20 275 3.20 283 3.21 279 3.21
 316  0.750  0.250  0.705- 244 3.07 268 3.13 272 3.20 276 3.20 284 3.21 280 3.21
 317  0.750  0.750  0.705- 269 3.13 273 3.20 277 3.20 285 3.21 281 3.21 245 3.21
 318  0.000  0.000  0.807- 286 3.22 293 3.22 300 3.23 295 3.23 262 3.27
 319  0.000  0.500  0.807- 287 3.22 292 3.22 301 3.23 294 3.23 263 3.27
 320  0.500  0.000  0.807- 288 3.22 291 3.22 298 3.23 297 3.23 264 3.27
 321  0.500  0.500  0.807- 289 3.22 290 3.22 299 3.23 296 3.23 265 3.27
 322  0.250  0.250  0.807- 290 3.22 286 3.22 294 3.23 298 3.23 266 3.27
 323  0.250  0.750  0.807- 291 3.22 287 3.22 299 3.23 295 3.23 267 3.27
 324  0.750  0.250  0.807- 292 3.22 288 3.22 296 3.23 300 3.23 268 3.27
 325  0.750  0.750  0.807- 293 3.22 289 3.22 297 3.23 301 3.23 269 3.27
 

IMPORTANT INFORMATION: All symmetrisations will be switched off!
NOSYMM: (Re-)initialisation of all symmetry stuff for point group C_1.


----------------------------------------------------------------------------------------

                                     Primitive cell                                     

  volume of cell :   20385.2105

  direct lattice vectors                    reciprocal lattice vectors
    18.060800552  0.000000000  0.000000000     0.055368531  0.000015077 -0.000000000
    -0.004918649 18.062799454  0.000000000     0.000000000  0.055362404  0.000000000
     0.000000000  0.000000000 62.487499237     0.000000000 -0.000000000  0.016003201

  length of vectors
    18.060800552 18.062800123 62.487499237     0.055368533  0.055362404  0.016003201

  position of ions in fractional coordinates (direct lattice)
     0.458482763  0.324861546  0.575987458
     0.450083140  0.844274918  0.574560964
     0.922391974  0.245413358  0.580974356
     0.946239936  0.806454815  0.580671012
     0.301213860  0.062401037  0.576196606
     0.318120587  0.568093408  0.577528171
     0.795461458  0.076611618  0.579211308
     0.107621545  0.238086700  0.558573697
     0.095278434  0.679118266  0.566060240
     0.567989084  0.171121169  0.556222457
     0.496513794  0.651235746  0.565861837
     0.361540228  0.010556395  0.560186751
     0.275436959  0.623496942  0.558160650
     0.869593977  0.030020163  0.566775471
     0.060658183  0.229967601  0.582875371
     0.025666267  0.692358451  0.585256707
     0.572241044  0.249864838  0.572769895
     0.468870218  0.710874975  0.585940315
     0.276090071  0.437211045  0.579547313
     0.167230498  0.034090424  0.572714403
     0.673818177  0.017808457  0.576960126
     0.379543871  0.291345379  0.561991067
     0.485366149  0.868110916  0.549623542
     0.879991775  0.246356061  0.556024053
     0.976060899  0.867537903  0.561008754
     0.202716453  0.411564613  0.562545011
     0.141493360  0.967621994  0.553781906
     0.670349274  0.931232642  0.563158171
     0.442909985  0.191140580  0.547187569
     0.517436562  0.743904690  0.541100597
     0.996537987  0.248172328  0.538844042
     0.066740809  0.790214241  0.548413461
     0.196214441  0.528837683  0.546634419
     0.265598979  0.944424128  0.543853284
     0.791032508  0.932361213  0.554584129
     0.463030749  0.310576362  0.675163300
     0.432231127  0.809840520  0.673169859
     0.957814823  0.278991060  0.678773275
     0.927109349  0.777634397  0.674259372
     0.304781669  0.055825743  0.673954318
     0.294908222  0.539377424  0.677881984
     0.790100947  0.052373886  0.675950262
     0.847876758  0.499941395  0.667641105
     0.088451299  0.175663897  0.645277928
     0.095809595  0.691078793  0.653289418
     0.575810216  0.167155771  0.649385989
     0.574459135  0.678259669  0.655118397
     0.174631638  0.415459790  0.646442285
     0.175719135  0.923008232  0.649710211
     0.648847748  0.477900466  0.658569832
     0.672316047  0.916303649  0.648519116
     0.064768761  0.183506045  0.672198718
     0.036904797  0.685748707  0.675230391
     0.567791679  0.211551604  0.673852918
     0.534238809  0.708616289  0.678653439
     0.197539725  0.433327510  0.673087262
     0.201436641  0.955391478  0.674761059
     0.721189904  0.440786373  0.674017258
     0.692849582  0.946469831  0.674256075
     0.414465034  0.320185808  0.651258678
     0.418564556  0.833166017  0.646264942
     0.924981361  0.320474374  0.655968360
     0.926020770  0.834416689  0.651512452
     0.333870808  0.078155192  0.648150024
     0.323309763  0.580357840  0.653825170
     0.825336086  0.077069546  0.650959607
     0.853068041  0.561431869  0.646081739
     0.002201111  0.262053980  0.633398416
     0.031538914  0.783942350  0.636885258
     0.480106595  0.231555149  0.633197387
     0.507296790  0.752774176  0.633227789
     0.253973368  0.996243699  0.631194179
     0.250770416  0.506482924  0.632695394
     0.752913231  0.994111768  0.631994021
     0.725058469  0.553696795  0.638905560
     0.448745018  0.301283966  0.768889017
     0.448745007  0.801283913  0.768889017
     0.948744965  0.301283966  0.768889017
     0.948745007  0.801283913  0.768889017
     0.301275995  0.051294496  0.768872961
     0.301276011  0.551294499  0.768872961
     0.801275943  0.051294496  0.768872961
     0.801275984  0.551294499  0.768872961
     0.078771004  0.171180501  0.743441971
     0.078771006  0.671180448  0.743441971
     0.578771004  0.171180501  0.743441971
     0.578770992  0.671180448  0.743441971
     0.171199499  0.421174482  0.743421032
     0.171199501  0.921174508  0.743421032
     0.671199512  0.421174482  0.743421032
     0.671199501  0.921174508  0.743421032
     0.051256000  0.198714991  0.768889017
     0.051256002  0.698714925  0.768889017
     0.551256027  0.198714991  0.768889017
     0.551256016  0.698714925  0.768889017
     0.198723491  0.448703970  0.768872046
     0.198723493  0.948703970  0.768872046
     0.698723518  0.448703970  0.768872046
     0.698723507  0.948703970  0.768872046
     0.421231519  0.328817467  0.743441971
     0.421231508  0.828817440  0.743441971
     0.921231466  0.328817467  0.743441971
     0.921231508  0.828817440  0.743441971
     0.328800503  0.078824997  0.743421032
     0.328800492  0.578824964  0.743421032
     0.828800477  0.078824997  0.743421032
     0.828800519  0.578824964  0.743421032
     0.000003500  0.250001478  0.725821992
     0.000003500  0.750001452  0.725821992
     0.500003506  0.250001478  0.725821992
     0.500003495  0.750001452  0.725821992
     0.250000502  0.000000000  0.725803983
     0.250000517  0.500000000  0.725803983
     0.750000502  0.000000000  0.725803983
     0.750000490  0.500000000  0.725803983
     0.717423938  0.438397488  0.542039994
     0.736347972  0.496690746  0.520285582
     0.653715373  0.550932782  0.561426318
     0.702669594  0.635858310  0.559447040
     0.843383054  0.504339338  0.572434990
     0.779693747  0.570093280  0.582266363
     0.865198883  0.558015330  0.533361134
     0.792652255  0.624538693  0.527584405
     0.867474879  0.466514958  0.519204677
     0.863666547  0.428578911  0.544926008
     0.873793591  0.331477388  0.519578226
     0.785281339  0.323367714  0.530992130
     0.637346711  0.548469294  0.521156606
     0.690590132  0.632499267  0.519105903
     0.605192160  0.632654281  0.532627772
     0.753192092  0.448997050  0.598818379
     0.743946873  0.404384416  0.573588724
     0.679039079  0.472106868  0.582063136
     0.825542454  0.685925157  0.563392471
     0.893480724  0.686167129  0.543389324
     0.903831810  0.622209206  0.565249898
     0.818896768  0.389502697  0.486942365
     0.785318780  0.299146610  0.492079776
     0.663076719  0.320268383  0.522852624
     0.732531206  0.461912054  0.471040289
     0.537954450  0.377115776  0.521522341
     0.607535836  0.518806859  0.469705458
     0.508692781  0.475987710  0.494803343
     0.994087978  0.244186260  0.556106956
     0.033562470  0.772871358  0.562139656
     0.472483359  0.229660345  0.557636436
     0.495095047  0.758767191  0.557052396
     0.237352988  0.517557401  0.559207674
     0.252896301  0.986719272  0.555918319
     0.769667508  0.979479869  0.563825846
     0.006556009  0.248308678  0.650183023
     0.011386178  0.763119833  0.652018901
     0.495172714  0.243770505  0.649698368
     0.496529380  0.756164897  0.650224474
     0.249187874  0.498364486  0.649787314
     0.255195467  0.000849836  0.648469912
     0.750436500  0.520008059  0.651241584
     0.749227143  0.996904139  0.649271647
     0.499988984  0.249994984  0.743277021
     0.499989025  0.749994958  0.743277021
     0.999988984  0.249994984  0.743277021
     0.999989025  0.749994958  0.743277021
     0.250000502  0.000001000  0.743255960
     0.250000517  0.500001003  0.743255960
     0.750000502  0.000001000  0.743255960
     0.750000491  0.500001003  0.743255960
     0.706760417  0.387778060  0.497137581
     0.649637208  0.363098672  0.510969845
     0.689220864  0.442806941  0.482307466
     0.579940826  0.395168260  0.510213774
     0.618515488  0.474597600  0.481310929
     0.564542792  0.450652997  0.495224112
     0.759146121  0.474613386  0.534934447
     0.691072656  0.583076710  0.551057728
     0.784913942  0.519428446  0.572672342
     0.822654916  0.594301924  0.540190686
     0.831508117  0.434537923  0.530066652
     0.819159203  0.358097357  0.520362319
     0.655042010  0.598826846  0.529563439
     0.737639943  0.457817434  0.581988597
     0.863148557  0.649273255  0.554512765
     0.784375029  0.356754922  0.498182803
     0.056817514  0.235190086  0.566504299
     0.052285488  0.710983369  0.571773786
     0.542117434  0.216399964  0.562397460
     0.490490714  0.704589884  0.571015883
     0.435495766  0.288593695  0.564830991
     0.476100120  0.827357901  0.560369222
     0.928318563  0.248605375  0.564748577
     0.977900356  0.815545682  0.567716700
     0.238291244  0.450434995  0.567656385
     0.183173723  0.995891053  0.561356114
     0.697937937  0.978243746  0.567346386
     0.308457270  0.023638832  0.564358911
     0.281357009  0.571946110  0.565095875
     0.813835476  0.032287864  0.570600333
     0.056252366  0.199619284  0.656700257
     0.050243975  0.709545107  0.660911854
     0.549794209  0.205485293  0.658385408
     0.537160744  0.712292805  0.662100812
     0.205424383  0.446194495  0.657020755
     0.207629214  0.956836558  0.658368254
     0.705104650  0.475006623  0.661611517
     0.701700835  0.950174379  0.657920594
     0.455835711  0.294383650  0.659370957
     0.446705875  0.802191136  0.657166598
     0.960124329  0.284217109  0.662777766
     0.951689447  0.793792659  0.660150288
     0.300097999  0.047310814  0.657575615
     0.291085802  0.540549797  0.661410061
     0.790046925  0.044605357  0.659524064
     0.821152657  0.526834802  0.655232617
     0.045862501  0.204119496  0.752725994
     0.045862500  0.704119456  0.752725994
     0.545862507  0.204119496  0.752725994
     0.545862496  0.704119456  0.752725994
     0.204119002  0.454101003  0.752704994
     0.204118991  0.954100951  0.752704994
     0.704118976  0.454101003  0.752704994
     0.704118964  0.954100951  0.752704994
     0.454140018  0.295888490  0.752726971
     0.454140007  0.795888516  0.752726971
     0.954140018  0.295888490  0.752726971
     0.954140060  0.795888516  0.752726971
     0.295882492  0.045900498  0.752704994
     0.295882481  0.545900528  0.752704994
     0.795882439  0.045900498  0.752704994
     0.795882481  0.545900528  0.752704994
     0.765535361  0.541351319  0.549893738
     0.501796585  0.017053264  0.552823584
     0.482508312  0.514635312  0.555636464
     0.994349086  0.004560905  0.552341798
     0.034815716  0.505051156  0.553550719
     0.245253899  0.247258638  0.552975775
     0.249398856  0.763529279  0.552302240
     0.743241321  0.212853213  0.557028954
     0.706467602  0.791773146  0.549376484
     0.006645575  0.997559544  0.654892583
     0.012575797  0.490477829  0.655565630
     0.501335333  0.002655641  0.654668417
     0.505310143  0.493474046  0.655495731
     0.255043385  0.244830630  0.654566346
     0.249096819  0.753929126  0.654663106
     0.745257638  0.257499966  0.655789125
     0.748470852  0.748474965  0.653530006
     0.140550466  0.111994843  0.607140173
     0.144157560  0.611568515  0.611003861
     0.645626170  0.109194533  0.609667900
     0.621686845  0.627874927  0.614415432
     0.358687729  0.393685490  0.610417135
     0.371829191  0.883958411  0.607096585
     0.884801278  0.370436655  0.613155353
     0.866159369  0.882545438  0.610126610
     0.115183004  0.358700201  0.609143565
     0.121191493  0.875658401  0.608849316
     0.587995880  0.342547272  0.605240501
     0.612184933  0.862990595  0.610279595
     0.383817666  0.133256360  0.607488693
     0.380505929  0.634348190  0.613695073
     0.889367714  0.142368900  0.613659483
     0.912633327  0.650943669  0.617203893
     0.000000000  0.000000000  0.754927972
     0.000000000  0.500000000  0.754927972
     0.500000000  0.000000000  0.754927972
     0.499999989  0.500000000  0.754927972
     0.250000496  0.250000000  0.754939022
     0.250000511  0.749999974  0.754939022
     0.750000470  0.250000000  0.754939022
     0.750000458  0.749999974  0.754939022
     0.135790500  0.114209997  0.704782994
     0.135790502  0.614209984  0.704782994
     0.635790447  0.114209997  0.704782994
     0.635790488  0.614209984  0.704782994
     0.364209516  0.385789989  0.704782994
     0.364209505  0.885789963  0.704782994
     0.864209542  0.385789989  0.704782994
     0.864209531  0.885789963  0.704782994
     0.114217990  0.364218986  0.704780979
     0.114217992  0.864218986  0.704780979
     0.614218004  0.364218986  0.704780979
     0.614217992  0.864218986  0.704780979
     0.385782012  0.135781489  0.704782017
     0.385782001  0.635781489  0.704782017
     0.885781985  0.135781489  0.704782017
     0.885782027  0.635781489  0.704782017
     0.134667000  0.115332001  0.801256025
     0.134666989  0.615331988  0.801256025
     0.634666987  0.115332001  0.801256025
     0.634666976  0.615331988  0.801256025
     0.365333002  0.384667985  0.801256025
     0.365332990  0.884667959  0.801256025
     0.865332949  0.384667985  0.801256025
     0.865332938  0.884667959  0.801256025
     0.115328503  0.365337004  0.801264999
     0.115328505  0.865336978  0.801264999
     0.615328503  0.365337004  0.801264999
     0.615328492  0.865336978  0.801264999
     0.384671513  0.134662996  0.801264999
     0.384671501  0.634662970  0.801264999
     0.884671486  0.134662996  0.801264999
     0.884671528  0.634662970  0.801264999
     0.994338110  0.004824811  0.605639873
     0.005638595  0.506960216  0.604202025
     0.503769084  0.007050637  0.604729046
     0.498468145  0.503246900  0.604584669
     0.248723991  0.252499126  0.604658781
     0.246724564  0.756534587  0.603764986
     0.746728925  0.259516865  0.606068609
     0.738762850  0.756553805  0.601930696
     0.000000500  0.000000500  0.704828963
     0.000000500  0.500000475  0.704828963
     0.500000475  0.000000500  0.704828963
     0.500000464  0.500000475  0.704828963
     0.249999994  0.249999472  0.704824995
     0.250000010  0.749999498  0.704824995
     0.749999994  0.249999472  0.704824995
     0.749999983  0.749999498  0.704824995
     0.000000000  0.000000000  0.807317968
     0.000000000  0.500000000  0.807317968
     0.500000000  0.000000000  0.807317968
     0.499999989  0.500000000  0.807317968
     0.249999994  0.250000000  0.807317968
     0.250000010  0.749999974  0.807317968
     0.749999994  0.250000000  0.807317968
     0.749999983  0.749999974  0.807317968

  ion indices of the primitive-cell ions
   primitive index   ion index
                 1           1
                 2           2
                 3           3
                 4           4
                 5           5
                 6           6
                 7           7
                 8           8
                 9           9
                10          10
                11          11
                12          12
                13          13
                14          14
                15          15
                16          16
                17          17
                18          18
                19          19
                20          20
                21          21
                22          22
                23          23
                24          24
                25          25
                26          26
                27          27
                28          28
                29          29
                30          30
                31          31
                32          32
                33          33
                34          34
                35          35
                36          36
                37          37
                38          38
                39          39
                40          40
                41          41
                42          42
                43          43
                44          44
                45          45
                46          46
                47          47
                48          48
                49          49
                50          50
                51          51
                52          52
                53          53
                54          54
                55          55
                56          56
                57          57
                58          58
                59          59
                60          60
                61          61
                62          62
                63          63
                64          64
                65          65
                66          66
                67          67
                68          68
                69          69
                70          70
                71          71
                72          72
                73          73
                74          74
                75          75
                76          76
                77          77
                78          78
                79          79
                80          80
                81          81
                82          82
                83          83
                84          84
                85          85
                86          86
                87          87
                88          88
                89          89
                90          90
                91          91
                92          92
                93          93
                94          94
                95          95
                96          96
                97          97
                98          98
                99          99
               100         100
               101         101
               102         102
               103         103
               104         104
               105         105
               106         106
               107         107
               108         108
               109         109
               110         110
               111         111
               112         112
               113         113
               114         114
               115         115
               116         116
               117         117
               118         118
               119         119
               120         120
               121         121
               122         122
               123         123
               124         124
               125         125
               126         126
               127         127
               128         128
               129         129
               130         130
               131         131
               132         132
               133         133
               134         134
               135         135
               136         136
               137         137
               138         138
               139         139
               140         140
               141         141
               142         142
               143         143
               144         144
               145         145
               146         146
               147         147
               148         148
               149         149
               150         150
               151         151
               152         152
               153         153
               154         154
               155         155
               156         156
               157         157
               158         158
               159         159
               160         160
               161         161
               162         162
               163         163
               164         164
               165         165
               166         166
               167         167
               168         168
               169         169
               170         170
               171         171
               172         172
               173         173
               174         174
               175         175
               176         176
               177         177
               178         178
               179         179
               180         180
               181         181
               182         182
               183         183
               184         184
               185         185
               186         186
               187         187
               188         188
               189         189
               190         190
               191         191
               192         192
               193         193
               194         194
               195         195
               196         196
               197         197
               198         198
               199         199
               200         200
               201         201
               202         202
               203         203
               204         204
               205         205
               206         206
               207         207
               208         208
               209         209
               210         210
               211         211
               212         212
               213         213
               214         214
               215         215
               216         216
               217         217
               218         218
               219         219
               220         220
               221         221
               222         222
               223         223
               224         224
               225         225
               226         226
               227         227
               228         228
               229         229
               230         230
               231         231
               232         232
               233         233
               234         234
               235         235
               236         236
               237         237
               238         238
               239         239
               240         240
               241         241
               242         242
               243         243
               244         244
               245         245
               246         246
               247         247
               248         248
               249         249
               250         250
               251         251
               252         252
               253         253
               254         254
               255         255
               256         256
               257         257
               258         258
               259         259
               260         260
               261         261
               262         262
               263         263
               264         264
               265         265
               266         266
               267         267
               268         268
               269         269
               270         270
               271         271
               272         272
               273         273
               274         274
               275         275
               276         276
               277         277
               278         278
               279         279
               280         280
               281         281
               282         282
               283         283
               284         284
               285         285
               286         286
               287         287
               288         288
               289         289
               290         290
               291         291
               292         292
               293         293
               294         294
               295         295
               296         296
               297         297
               298         298
               299         299
               300         300
               301         301
               302         302
               303         303
               304         304
               305         305
               306         306
               307         307
               308         308
               309         309
               310         310
               311         311
               312         312
               313         313
               314         314
               315         315
               316         316
               317         317
               318         318
               319         319
               320         320
               321         321
               322         322
               323         323
               324         324
               325         325

----------------------------------------------------------------------------------------

 
 
 KPOINTS: Automatic Mesh                          

Automatic generation of k-mesh.
 Grid dimensions read from file:
 generate k-points for:    3    3    1

 Generating k-lattice:

  Cartesian coordinates                     Fractional coordinates (reciprocal lattice)
     0.018456177  0.000005026 -0.000000000     0.333333333  0.000000000  0.000000000
     0.000000000  0.018454135  0.000000000     0.000000000  0.333333333  0.000000000
     0.000000000 -0.000000000  0.016003201     0.000000000  0.000000000  1.000000000

  Length of vectors
     0.018456178  0.018454135  0.016003201

  Shift w.r.t. Gamma in fractional coordinates (k-lattice)
     0.000000000  0.000000000  0.000000000

 
 Subroutine IBZKPT returns following result:
 ===========================================
 
 Found      5 irreducible k-points:
 
 Following reciprocal coordinates:
            Coordinates               Weight
  0.000000  0.000000  0.000000      1.000000
  0.333333  0.000000  0.000000      2.000000
  0.000000  0.333333  0.000000      2.000000
  0.333333  0.333333  0.000000      2.000000
 -0.333333  0.333333  0.000000      2.000000
 
 Following cartesian coordinates:
            Coordinates               Weight
  0.000000  0.000000  0.000000      1.000000
  0.018456  0.000005  0.000000      2.000000
  0.000000  0.018454  0.000000      2.000000
  0.018456  0.018459  0.000000      2.000000
 -0.018456  0.018449  0.000000      2.000000
 


--------------------------------------------------------------------------------------------------------




 Dimension of arrays:
   k-points           NKPTS =      5   k-points in BZ     NKDIM =      5   number of bands    NBANDS=    732
   number of dos      NEDOS =    301   number of ions     NIONS =    325
   non local maximal  LDIM  =      5   non local SUM 2l+1 LMDIM =     13
   total plane-waves  NPLWV = ******
   max r-space proj   IRMAX =   3336   max aug-charges    IRDMAX=  19845
   dimension x,y,z NGX =   100 NGY =  100 NGZ =  350
   dimension x,y,z NGXF=   200 NGYF=  200 NGZF=  700
   support grid    NGXF=   200 NGYF=  200 NGZF=  700
   ions per type =             143  39  47  72  24
   NGX,Y,Z   is equivalent  to a cutoff of   9.20,  9.20,  9.31 a.u.
   NGXF,Y,Z  is equivalent  to a cutoff of  18.41, 18.41, 18.62 a.u.

 SYSTEM =  PSC                                     
 POSCAR =   H  C  N  I Pb                          

 Startparameter for this run:
   NWRITE =      2    write-flag & timer
   PREC   = normal    normal or accurate (medium, high low for compatibility)
   ISTART =      0    job   : 0-new  1-cont  2-samecut
   ICHARG =      1    charge: 1-file 2-atom 10-const
   ISPIN  =      1    spin polarized calculation?
   LNONCOLLINEAR =      F non collinear calculations
   LSORBIT =      F    spin-orbit coupling
   INIWAV =      1    electr: 0-lowe 1-rand  2-diag
   LASPH  =      F    aspherical Exc in radial PAW
 Electronic Relaxation 1
   ENCUT  =  500.0 eV  36.75 Ry    6.06 a.u.  32.93 32.93113.93*2*pi/ulx,y,z
   ENINI  =  500.0     initial cutoff
   ENAUG  =  644.9 eV  augmentation charge cutoff
   NELM   =    600;   NELMIN=  2; NELMDL=  0     # of ELM steps 
   EDIFF  = 0.1E-03   stopping-criterion for ELM
   LREAL  =      T    real-space projection
   NLSPLINE    = F    spline interpolate recip. space projectors
   LCOMPAT=      F    compatible to vasp.4.4
   GGA_COMPAT  = F    GGA compatible to vasp.4.4-vasp.4.6
   LMAXPAW     = -100 max onsite density
   LMAXMIX     =    2 max onsite mixed and CHGCAR
   VOSKOWN=      0    Vosko Wilk Nusair interpolation
   ROPT   =   -0.00050  -0.00050  -0.00050  -0.00050
   ROPT   =   -0.00050
 Ionic relaxation
   EDIFFG = 0.1E-02   stopping-criterion for IOM
   NSW    =      0    number of steps for IOM
   NBLOCK =      1;   KBLOCK =      1    inner block; outer block 
   IBRION =     -1    ionic relax: 0-MD 1-quasi-New 2-CG
   NFREE  =      0    steps in history (QN), initial steepest desc. (CG)
   ISIF   =      2    stress and relaxation
   IWAVPR =     10    prediction:  0-non 1-charg 2-wave 3-comb
   ISYM   =      0    0-nonsym 1-usesym 2-fastsym
   LCORR  =      T    Harris-Foulkes like correction to forces

   POTIM  = 0.5000    time-step for ionic-motion
   TEIN   =    0.0    initial temperature
   TEBEG  =    0.0;   TEEND  =   0.0 temperature during run
   SMASS  =  -3.00    Nose mass-parameter (am)
   estimated Nose-frequenzy (Omega)   =  0.10E-29 period in steps = 0.13E+47 mass=  -0.745E-26a.u.
   SCALEE = 1.0000    scale energy and forces
   NPACO  =    256;   APACO  = 16.0  distance and # of slots for P.C.
   PSTRESS=    0.0 pullay stress

  Mass of Ions in am
   POMASS =   1.00 12.01 14.00126.90207.20
  Ionic Valenz
   ZVAL   =   1.00  4.00  5.00  7.00  4.00
  Atomic Wigner-Seitz radii
   RWIGS  =  -1.00 -1.00 -1.00 -1.00 -1.00
  virtual crystal weights 
   VCA    =   1.00  1.00  1.00  1.00  1.00
   NELECT =    1134.0000    total number of electrons
   NUPDOWN=      -1.0000    fix difference up-down

 DOS related values:
   EMIN   =  10.00;   EMAX   =-10.00  energy-range for DOS
   EFERMI =   0.00
   ISMEAR =     0;   SIGMA  =   0.05  broadening in eV -4-tet -1-fermi 0-gaus

 Electronic relaxation 2 (details)
   IALGO  =     38    algorithm
   LDIAG  =      T    sub-space diagonalisation (order eigenvalues)
   LSUBROT=      F    optimize rotation matrix (better conditioning)
   TURBO    =      0    0=normal 1=particle mesh
   IRESTART =      0    0=no restart 2=restart with 2 vectors
   NREBOOT  =      0    no. of reboots
   NMIN     =      0    reboot dimension
   EREF     =   0.00    reference energy to select bands
   IMIX   =      4    mixing-type and parameters
     AMIX     =   0.40;   BMIX     =  0.01
     AMIX_MAG =   1.60;   BMIX_MAG =  0.01
     AMIN     =   0.01
     WC   =   100.;   INIMIX=   1;  MIXPRE=   1;  MAXMIX= -45

 Intra band minimization:
   WEIMIN = 0.0000     energy-eigenvalue tresh-hold
   EBREAK =  0.34E-07  absolut break condition
   DEPER  =   0.30     relativ break condition  

   TIME   =   0.40     timestep for ELM

  volume/ion in A,a.u.               =      62.72       423.28
  Fermi-wavevector in a.u.,A,eV,Ry     =   0.624944  1.180972  5.313816  0.390554
  Thomas-Fermi vector in A             =   1.685677
 
 Write flags
   LWAVE        =      F    write WAVECAR
   LDOWNSAMPLE  =      F    k-point downsampling of WAVECAR
   LCHARG       =      T    write CHGCAR
   LVTOT        =      T    write LOCPOT, total local potential
   LVHAR        =      F    write LOCPOT, Hartree potential only
   LELF         =      F    write electronic localiz. function (ELF)
   LORBIT       =      0    0 simple, 1 ext, 2 COOP (PROOUT), +10 PAW based schemes


 Dipole corrections
   LMONO  =      F    monopole corrections only (constant potential shift)
   LDIPOL =      T    correct potential (dipole corrections)
   IDIPOL =      3    1-x, 2-y, 3-z, 4-all directions 
   EPSILON=  1.0000000 bulk dielectric constant

 Exchange correlation treatment:
   GGA     =    --    GGA type
   LEXCH   =     8    internal setting for exchange type
   VOSKOWN=      0    Vosko Wilk Nusair interpolation
   LHFCALC =     F    Hartree Fock is set to
   LHFONE  =     F    Hartree Fock one center treatment
   AEXX    =    0.0000 exact exchange contribution

 Linear response parameters
   LEPSILON=     F    determine dielectric tensor
   LRPA    =     F    only Hartree local field effects (RPA)
   LNABLA  =     F    use nabla operator in PAW spheres
   LVEL    =     F    velocity operator in full k-point grid
   LINTERFAST=   F  fast interpolation
   KINTER  =     0    interpolate to denser k-point grid
   CSHIFT  =0.1000    complex shift for real part using Kramers Kronig
   OMEGAMAX=  -1.0    maximum frequency
   DEG_THRESHOLD= 0.2000000E-02 threshold for treating states as degnerate
   RTIME   =   -0.100 relaxation time in fs
  (WPLASMAI=    0.000 imaginary part of plasma frequency in eV, 0.658/RTIME)
   DFIELD  = 0.0000000 0.0000000 0.0000000 field for delta impulse in time
 
 Orbital magnetization related:
   ORBITALMAG=     F  switch on orbital magnetization
   LCHIMAG   =     F  perturbation theory with respect to B field
   DQ        =  0.001000  dq finite difference perturbation B field
   LLRAUG    =     F  two centre corrections for induced B field



--------------------------------------------------------------------------------------------------------


 Static calculation
 charge density and potential will be updated during run
 non-spin polarized calculation
 Variant of blocked Davidson
 Davidson routine will perform the subspace rotation
 perform sub-space diagonalisation
    after iterative eigenvector-optimisation
 modified Broyden-mixing scheme, WC =      100.0
 initial mixing is a Kerker type mixing with AMIX =  0.4000 and BMIX =      0.0100
 Hartree-type preconditioning will be used
 using additional bands           165
 real space projection scheme for non local part
[...]
     13.54561      0.00000     45.35368         0.000501     -0.006730      0.012378
     13.54315      9.03140     45.35368        -0.004447      0.009406      0.001606
     12.95509      7.91869     33.87072        -0.007009     -0.088715      0.011296
     13.29659      8.97163     32.51134        -0.228098      0.130541     -0.312614
     11.80391      9.95139     35.08213         0.108678     -0.028293     -0.225753
     12.68765     11.48538     34.95845         0.086882     -0.268291     -0.164972
     15.22969      9.10978     35.77003         0.247872     -0.121042      0.063843
     14.07909     10.29748     36.38437         0.020473     -0.015365     -0.014043
     15.62344     10.07932     33.32840        -0.091363      0.203810     -0.161170
     14.31286     11.28092     32.96743         0.206895     -0.242493      0.038457
     15.66500      8.42657     32.44380        -0.169596      0.017125      0.017496
     15.59640      7.74133     34.05106         0.066892     -0.111441      0.012818
     15.77978      5.98741     32.46714         0.064331     -0.127401     -0.065643
     14.18122      5.84093     33.18037         0.088349      0.098664      0.115314
     11.50829      9.90689     32.56577        -0.053135      0.124966      0.063659
     12.46950     11.42471     32.43763        -0.068830     -0.056315     -0.009783
     10.92714     11.42751     33.28258         0.185359     -0.191150      0.003504
     13.60104      8.11014     37.41866         0.086294      0.094349     -0.181189
     13.43429      7.30431     35.84212         0.066465      0.194356      0.110806
     12.26167      8.52757     36.37167        -0.239058      0.008048     -0.031136
     14.90658     12.38973     35.20499         0.049277     -0.101977      0.062142
     16.13360     12.39410     33.95504        -0.042188     -0.206830      0.202374
     16.32087     11.23884     35.32105        -0.334876      0.208658     -0.211698
     14.78802      7.03551     30.42781        -0.056338     -0.168870      0.111394
     14.18201      5.40343     30.74883        -0.073486      0.148113      0.103219
     11.97412      5.78494     32.67175        -0.191554      0.099849     -0.123041
     13.22783      8.34342     29.43413        -0.289924     -0.109670      0.313017
      9.71403      6.81177     32.58863        -0.175166      0.020614      0.032388
     10.97003      9.37110     29.35072        -0.018586     -0.176454      0.109880
      9.18506      8.59767     30.91902         0.470527     -0.224967      0.054972
     17.95282      4.41069     34.74973         0.306905     -0.092347      0.150028
      0.60236     13.96022     35.12670         0.036129     -0.261170      0.170676
      8.53230      4.14831     34.84531        -0.202080      0.975914      0.618756
      8.93808     13.70546     34.80881         0.377232     -0.620620     -0.661421
      4.28424      9.34854     34.94349        -0.017559     -0.217508      0.112978
      4.56266     17.82291     34.73795        -0.018426     -0.036123      0.123947
     13.89599     17.69215     35.23207        -0.159041      0.089417      0.089172
      0.11719      4.48515     40.62831        -0.053914     -0.083923      1.116720
      0.20189     13.78408     40.74303        -0.073828     -0.390183      0.620958
      8.94202      4.40318     40.59803         0.417537     -0.392016      0.228917
      8.96400     13.65845     40.63090         0.448073     -0.417635      0.232755
      4.49808      9.00186     40.60358        -0.514675     -0.720274      0.076676
      4.60903      0.01535     40.52126        -1.072145     -0.923324      0.274336
     13.55093      9.39280     40.69446        -0.336898     -0.618608      0.780208
     13.52674     18.00688     40.57136        -0.831197     -0.822830      0.116003
      9.02897      4.51561     46.44552         0.010119      0.004978      0.035341
      9.02651     13.54701     46.44552         0.028343     -0.013778      0.051062
     18.05937      4.51561     46.44552         0.016212      0.000407      0.047121
     18.05691     13.54701     46.44552         0.021643     -0.003756      0.021953
      4.51521      0.00002     46.44421        -0.008470     -0.009946      0.063560
      4.51275      9.03142     46.44421        -0.001012      0.000881      0.051272
     13.54561      0.00002     46.44421        -0.003170     -0.004876      0.045853
     13.54315      9.03142     46.44421        -0.004977      0.001046      0.028889
     12.76275      7.00436     31.06488        -0.475976     -0.328614      0.037452
     11.73118      6.55858     31.92923         0.803014     -0.055911     -0.068813
     12.44570      7.99833     30.13819         0.401058      0.338639     -0.517196
     10.47225      7.13785     31.88198        -0.035117     -0.100422     -0.067456
     11.16855      8.57256     30.07592         0.626594      0.187367     -0.476861
     10.19388      8.14005     30.94532        -1.267676      0.168961      0.430380
     13.70845      8.57285     33.42672         0.161119      0.435620      0.242969
     12.47846     10.53200     34.43422        -0.076616      0.053701      0.020794
     14.17362      9.38233     35.78486         0.185715     -0.119039     -0.003545
     14.85488     10.73476     33.75517         0.419325     -0.030849      0.019033
     15.01556      7.84897     33.12254         0.032972      0.018260      0.409128
     14.79291      6.46824     32.51614         0.032211     -0.191086      0.145150
     11.82764     10.81649     33.09109        -0.092507      0.092017      0.100617
     13.32012      8.26946     36.36701        -0.006089      0.000309     -0.158459
     15.58596     11.72769     34.65012        -0.046207     -0.069289      0.097232
     14.16469      6.44399     31.13020         0.099126      0.193808     -0.562240
      1.02501      4.24819     35.39944         0.267516      0.079381     -0.163212
      0.94082     12.84235     35.72871         0.162858     -0.197645     -0.283867
      9.79001      3.90879     35.14281         0.151236      0.133447     -0.020159
      8.85519     12.72687     35.68135        -0.074907      0.331502     -0.203102
      7.86398      5.21281     35.29488         0.646247     -0.335168      0.093312
      8.59468     14.94440     35.01607        -0.620787      0.303708      1.016334
     16.76495      4.49051     35.28973        -0.035438      0.006015      0.220809
     17.65765     14.73104     35.47520         0.603214      0.080317     -0.857593
      4.30152      8.13612     35.47143         0.693798      0.989071      0.079979
      3.30337     17.98858     35.07774        -0.006300     -0.037665     -0.279438
     12.60051     17.66982     35.45206         0.202319      0.271411      0.183707
      5.57087      0.42698     35.26538        -0.504510     -0.065170     -0.034325
      5.07872     10.33095     35.31143        -0.164285      0.036120     -0.271845
     14.69836      0.58321     35.65539         0.329709     -0.238134     -0.292597
      1.01498      3.60568     41.03556        -0.396599      0.413727     -0.560514
      0.90396     12.81637     41.29873        -0.681633      0.398272      0.134279
      9.92871      3.71164     41.14086        -0.499041      0.526506      0.091561
      9.69805     12.86600     41.37302        -0.081976     -0.100660      1.169624
      3.70793      8.05952     41.05558        -0.346963     -0.475866      0.515939
      3.74524     17.28315     41.13979         0.867293      0.908960      0.912268
     12.73242      8.57995     41.34245        -0.033843     -0.040287      0.094403
     12.66861     17.16281     41.11181         0.718159      0.858249      1.136654
      8.23131      5.31739     41.20244        -0.020839      0.401374      0.816579
      8.06392     14.48982     41.06470        -0.545444      0.434238      0.742146
     17.33922      5.13376     41.41533         0.541706     -0.411927     -0.579372
     17.18437     14.33812     41.25114        -0.039629     -0.044718      0.062388
      5.41978      0.85457     41.09026         0.382766      0.386796      0.789205
      5.25458      9.76384     41.32986         1.161957      1.313694      0.568684
     14.26866      0.80570     41.21201         0.379444      0.447178      0.737686
     14.82808      9.51611     40.94385         0.438803     -0.110574      0.338536
      0.82731      3.68697     47.03596         0.017041     -0.021050     -0.096988
      0.82485     12.71837     47.03596         0.017096     -0.018320     -0.074294
      9.85771      3.68697     47.03596         0.020254     -0.026025     -0.088502
      9.85525     12.71837     47.03596         0.007502     -0.006904     -0.081948
      3.68432      8.20234     47.03465        -0.008706     -0.013340     -0.071279
      3.68186     17.23373     47.03465        -0.002721     -0.000373     -0.070911
     12.71472      8.20234     47.03465        -0.009575     -0.016160     -0.069158
     12.71226     17.23373     47.03465        -0.010702     -0.007964     -0.070590
      8.20068      5.34457     47.03603        -0.022320      0.015131     -0.092448
      8.19822     14.37597     47.03603        -0.028521      0.028616     -0.090062
     17.23108      5.34457     47.03603        -0.025742      0.021323     -0.108438
     17.22862     14.37597     47.03603        -0.025704      0.024834     -0.076170
      5.34365      0.82909     47.03465         0.012149      0.012499     -0.068133
      5.34119      9.86049     47.03465         0.010706      0.010080     -0.072489
     14.37405      0.82909     47.03465         0.013981      0.013634     -0.072782
     14.37159      9.86049     47.03465         0.014012      0.012428     -0.067775
     13.82352      9.77832     34.36148        -0.359063      0.523970      0.017474
      9.06276      0.30803     34.54456         0.026923      0.024850     -0.046265
      8.71196      9.29575     34.72033        -0.012419     -0.062534     -0.073085
     17.95872      0.08238     34.51446         0.007475     -0.007703     -0.000962
      0.62632      9.12264     34.59000        -0.178040      0.014891      0.107094
      4.42827      4.46618     34.55407         0.059934     -0.005034     -0.024860
      4.50059     13.79148     34.51199        -0.044560     -0.011652      0.048124
     13.42249      3.84472     34.80735        -0.164202     -0.027667      0.000659
     12.75548     14.30164     34.32916        -0.030513      0.009595      0.285029
      0.11512     18.01872     40.92260        -0.053086     -0.001940     -0.014818
      0.22472      8.85940     40.96466         0.019264      0.022098     -0.027331
      9.05450      0.04797     40.90859        -0.013206      0.006903      0.026101
      9.12388      8.91352     40.96029        -0.002803     -0.002743     -0.026327
      4.60508      4.42233     40.90221         0.010102      0.012010      0.058439
      4.49518     13.61807     40.90826         0.004031      0.010268      0.006048
     13.45868      4.65117     40.97862         0.001933      0.011255     -0.041871
     13.51430     13.51955     40.83746         0.021013     -0.026531     -0.000855
      2.53790      2.02294     37.93867        -0.044662      0.016201      0.002433
      2.60059     11.04664     38.18010         0.077886      0.004381      0.008585
     11.65999      1.97236     38.09662        -0.029024      0.026779      0.038735
     11.22507     11.34118     38.39328         0.083363     -0.063548     -0.316213
      6.47625      7.11106     38.14344         0.000664     -0.070966     -0.041784
      6.71118     15.96676     37.93595         0.007452     -0.017810     -0.019546
     15.97840      6.69112     38.31454         0.019565      0.015834     -0.127832
     15.63919     15.94124     38.12529        -0.029539      0.011671      0.009270
      2.07853      6.47913     38.06386        -0.007482      0.061652      0.002445
      2.18451     15.81684     38.04547         0.003961      0.005409     -0.048462
     10.61799      6.18736     37.81997         0.027980      0.044689     -0.029915
     11.05231     15.58803     38.13485        -0.045857      0.058385     -0.000313
      6.93140      2.40698     37.96045         0.050816     -0.020162     -0.003151
      6.86912     11.45810     38.34827         0.029603     -0.054562     -0.049935
     16.06199      2.57158     38.34605        -0.082676     -0.005059     -0.018974
     16.47969     11.75786     38.56753        -0.157715     -0.069166     -0.472096
      0.00000      0.00000     47.17356        -0.000006      0.006059      0.395142
     -0.00246      9.03140     47.17356        -0.001427     -0.007715      0.491965
      9.03040      0.00000     47.17356        -0.000255      0.000233      0.404233
      9.02794      9.03140     47.17356        -0.002377     -0.002912      0.490963
      4.51398      4.51570     47.17425        -0.000207     -0.004029      0.399879
      4.51152     13.54710     47.17425         0.004412      0.001481      0.431688
     13.54438      4.51570     47.17425         0.004768      0.001210      0.462036
     13.54192     13.54710     47.17425        -0.000500      0.000441      0.369295
      2.45192      2.06295     44.04013         0.010774     -0.001925     -0.031470
      2.44946     11.09435     44.04013         0.037643     -0.040624      0.039976
     11.48232      2.06295     44.04013         0.043309     -0.003982     -0.023004
     11.47986     11.09435     44.04013        -0.038785      0.035660      0.035294
      6.57602      6.96845     44.04013        -0.028324      0.002389     -0.025104
      6.57356     15.99985     44.04013         0.010404      0.014971     -0.023764
     15.60642      6.96845     44.04013        -0.054355      0.053341     -0.052446
     15.60396     15.99985     44.04013        -0.044365      0.042831      0.003730
      2.06108      6.57881     44.04000         0.067160     -0.055483      0.002577
      2.05862     15.61021     44.04000         0.030359      0.053438      0.007135
     11.09148      6.57881     44.04000        -0.018278     -0.056768     -0.009659
     11.08902     15.61021     44.04000        -0.018367      0.021769     -0.007614
      6.96686      2.45259     44.04007        -0.021965     -0.030598     -0.012256
      6.96440     11.48399     44.04007         0.024944      0.017129     -0.023051
     15.99726      2.45259     44.04007        -0.001594      0.011484     -0.043371
     15.99481     11.48399     44.04007         0.053608      0.036191     -0.094325
      2.43163      2.08322     50.06849         0.007657     -0.012160      0.021005
      2.42917     11.11462     50.06849         0.014616     -0.006902      0.024513
     11.46203      2.08322     50.06849         0.005203     -0.016073      0.022179
     11.45957     11.11462     50.06849         0.018182     -0.001946      0.024255
      6.59631      6.94818     50.06849        -0.018523      0.000919      0.023204
      6.59385     15.97958     50.06849        -0.005540      0.015408      0.022771
     15.62671      6.94818     50.06849        -0.012381      0.004661      0.021274
     15.62425     15.97958     50.06849        -0.009710      0.012944      0.024579
      2.08113      6.59901     50.06905        -0.003178     -0.019444      0.022694
      2.07867     15.63041     50.06905        -0.014784     -0.003849      0.023845
     11.11153      6.59901     50.06905        -0.006508     -0.014899      0.023784
     11.10907     15.63041     50.06905        -0.010428     -0.009619      0.023364
      6.94681      2.43239     50.06905         0.011325      0.007596      0.022813
      6.94435     11.46379     50.06905         0.005644      0.014170      0.024274
     15.97721      2.43239     50.06905         0.016207      0.003894      0.022241
     15.97475     11.46379     50.06905         0.001888      0.017423      0.025024
     17.95852      0.08715     37.84492         0.031829     -0.053353     -0.039364
      0.09934      9.15712     37.75507         0.031388     -0.027745      0.007057
      9.09844      0.12735     37.78801        -0.027735      0.020750     -0.036626
      9.00026      9.09005     37.77898        -0.011852     -0.030449      0.084090
      4.49091      4.56084     37.78362         0.068620      0.039393     -0.014856
      4.45232     13.66513     37.72776         0.008532     -0.053698     -0.031553
     13.48525      4.68760     37.87171        -0.020808     -0.062331      0.025572
     13.33893     13.66548     37.61314         0.065224      0.017519      0.049001
      0.00001      0.00001     44.04300        -0.020112     -0.108523      0.179431
     -0.00245      9.03141     44.04300         0.084738      0.062097      0.116226
      9.03041      0.00001     44.04300         0.004571      0.015496      0.119359
      9.02795      9.03141     44.04300         0.044669      0.059726      0.212009
      4.51397      4.51569     44.04275         0.014824      0.028571      0.123988
      4.51151     13.54709     44.04275        -0.094445     -0.006732      0.083315
     13.54437      4.51569     44.04275        -0.033059     -0.017292      0.252344
     13.54191     13.54709     44.04275        -0.035175     -0.050593     -0.033549
      0.00000      0.00000     50.44728        -0.000685     -0.002242     -0.623454
     -0.00246      9.03140     50.44728        -0.000152      0.001193     -0.649426
      9.03040      0.00000     50.44728        -0.000380      0.000056     -0.624739
      9.02794      9.03140     50.44728         0.000627     -0.000619     -0.651309
      4.51397      4.51570     50.44728         0.001124      0.011011     -0.623665
      4.51151     13.54710     50.44728         0.000285     -0.011942     -0.635744
     13.54437      4.51570     50.44728        -0.002586      0.011146     -0.638507
     13.54191     13.54710     50.44728         0.000845     -0.012003     -0.620644
 -----------------------------------------------------------------------------------
    total drift:                                0.041072      0.138133      0.478223


--------------------------------------------------------------------------------------------------------



  FREE ENERGIE OF THE ION-ELECTRON SYSTEM (eV)
  ---------------------------------------------------
  free  energy   TOTEN  =     -1574.61229365 eV

  energy  without entropy=    -1574.61229365  energy(sigma->0) =    -1574.61229365
 


--------------------------------------------------------------------------------------------------------


    POTLOK:  cpu time    0.5021: real time    0.5021


--------------------------------------------------------------------------------------------------------


     LOOP+:  cpu time  304.2325: real time  304.7959
 vacuum level on the upper side and lower side of the slab         2.329         1.534
    4ORBIT:  cpu time    0.0000: real time    0.0000

 total amount of memory used by VASP MPI-rank0  8653580. kBytes
=======================================================================

   base      :      30000. kBytes
   nonlr-proj:      53618. kBytes
   fftplans  :     249280. kBytes
   grid      :     701440. kBytes
   one-center:       2636. kBytes
   wavefun   :    7616606. kBytes
 
  
  
 General timing and accounting informations for this job:
 ========================================================
  
                  Total CPU time used (sec):      517.074
                            User time (sec):      417.087
                          System time (sec):       99.986
                         Elapsed time (sec):      518.380
  
                   Maximum memory used (kb):    10305648.
                   Average memory used (kb):          N/A
  
                          Minor page faults:      3736175
                          Major page faults:           13
                 Voluntary context switches:        11625
