 vasp.6.2.1 16May21 (build Nov 15 2021 14:57:28) complex                         
 executed on             LinuxPGI date 2023.07.30  16:22:56
 running on    4 total cores
 distrk:  each k-point on    4 cores,    1 groups
 distr:  one band on NCORE=   1 cores,    4 groups


--------------------------------------------------------------------------------------------------------


 INCAR:
   SYSTEM = PSC
   ISTART = 1
   ICHARG = 1
   PREC = Normal
   ENCUT = 500
   GGA_COMPAT = F
   NELM = 600
   ISYM = 0
   LREAL = Auto
   ISMEAR = 0
   SIGMA = 0.05
   AMIN = 0.01
   BMIX = 0.01
   LVTOT = T
   LWAVE = F
   LDIPOL = T
   IDIPOL = 3
   LVDW = T
   IVDW = 12

 POTCAR:    PAW_PBE H 15Jun2001                   
 POTCAR:    PAW_PBE C 08Apr2002                   
 POTCAR:    PAW_PBE N 08Apr2002                   
 POTCAR:    PAW_PBE I 08Apr2002                   
 POTCAR:    PAW_PBE Pb 08Apr2002                  
 WARNING: For LVTOT=.TRUE., VASP.5.x writes the TOTAL local potential to the
     file LOCPOT. If you want only the Hartree contributions, use LVHAR=.TRUE.
     instead. 

 POTCAR:    PAW_PBE H 15Jun2001                   
   SHA256 =  030f79b5d3ab3cf0e668861823c8fb652ff669f3e15e46930bd03bfd63a607b6 H/POTCAR              
   COPYR  = (c) Copyright 15Jun2001 Georg Kresse                                                    
   COPYR  = This file is part of the software VASP. Any use, copying, and all other rights are regul
   COPYR  = If you do not have a valid VASP license, you may not use, copy or distribute this file. 
   VRHFIN =H: ultrasoft test                                                                        
   LEXCH  = PE                                                                                      
   EATOM  =    12.4884 eV,    0.9179 Ry                                                             
                                                                                                    
   TITEL  = PAW_PBE H 15Jun2001                                                                     
   LULTRA =        F    use ultrasoft PP ?                                                          
   IUNSCR =        0    unscreen: 0-lin 1-nonlin 2-no                                               
   RPACOR =    0.000    partial core radius                                                         
   POMASS =    1.000; ZVAL   =    1.000    mass and valenz                                          
   RCORE  =    1.100    outmost cutoff radius                                                       
   RWIGS  =    0.700; RWIGS  =    0.370    wigner-seitz radius (au A)                               
   ENMAX  =  250.000; ENMIN  =  200.000 eV                                                          
   RCLOC  =    0.701    cutoff for local pot                                                        
   LCOR   =        T    correct aug charges                                                         
   LPAW   =        T    paw PP                                                                      
   EAUG   =  400.000                                                                                
   RMAX   =    1.123    core radius for proj-oper                                                   
   RAUG   =    1.200    factor for augmentation sphere                                              
   RDEP   =    1.112    radius for radial grids                                                     
   RDEPT  =    0.926    core radius for aug-charge                                                  
                                                                                                    
   Atomic configuration                                                                             
    2 entries                                                                                       
     n  l   j            E        occ.                                                              
     1  0  0.50        -6.4927   1.0000                                                             
     2  1  0.50        -3.4015   0.0000                                                             
   Description                                                                                      
     l       E           TYP  RCUT    TYP  RCUT                                                     
     0     -6.4927494     23  1.100                                                                 
     0      6.8029130     23  1.100                                                                 
     1     -4.0817478     23  1.100                                                                 
  local pseudopotential read in
  atomic valenz-charges read in
  non local Contribution for L=            0  read in
    real space projection operators read in
  non local Contribution for L=            0  read in
    real space projection operators read in
  non local Contribution for L=            1  read in
    real space projection operators read in
    PAW grid and wavefunctions read in
 
   number of l-projection  operators is LMAX  =            3
   number of lm-projection operators is LMMAX =            5
 
 POTCAR:    PAW_PBE C 08Apr2002                   
   SHA256 =  253f7b50bb8d59471dbedb8285d89021f4a42ed1a2c5d38a03a736e69125dd95 C/POTCAR              
   COPYR  = (c) Copyright 08Apr2002 Georg Kresse                                                    
   COPYR  = This file is part of the software VASP. Any use, copying, and all other rights are regul
   COPYR  = If you do not have a valid VASP license, you may not use, copy or distribute this file. 
   VRHFIN =C: s2p2                                                                                  
   LEXCH  = PE                                                                                      
   EATOM  =   147.1560 eV,   10.8157 Ry                                                             
                                                                                                    
   TITEL  = PAW_PBE C 08Apr2002                                                                     
   LULTRA =        F    use ultrasoft PP ?                                                          
   IUNSCR =        1    unscreen: 0-lin 1-nonlin 2-no                                               
   RPACOR =    1.200    partial core radius                                                         
   POMASS =   12.011; ZVAL   =    4.000    mass and valenz                                          
   RCORE  =    1.500    outmost cutoff radius                                                       
   RWIGS  =    1.630; RWIGS  =    0.863    wigner-seitz radius (au A)                               
   ENMAX  =  400.000; ENMIN  =  300.000 eV                                                          
   ICORE  =        2    local potential                                                             
   LCOR   =        T    correct aug charges                                                         
   LPAW   =        T    paw PP                                                                      
   EAUG   =  644.873                                                                                
   DEXC   =    0.000                                                                                
   RMAX   =    1.529    core radius for proj-oper                                                   
   RAUG   =    1.300    factor for augmentation sphere                                              
   RDEP   =    1.501    radius for radial grids                                                     
   RDEPT  =    1.300    core radius for aug-charge                                                  
                                                                                                    
   Atomic configuration                                                                             
    4 entries                                                                                       
     n  l   j            E        occ.                                                              
     1  0  0.50      -273.3789   2.0000                                                             
     2  0  0.50       -13.7508   2.0000                                                             
     2  1  0.50        -5.2854   2.0000                                                             
     3  2  1.50        -5.4423   0.0000                                                             
   Description                                                                                      
     l       E           TYP  RCUT    TYP  RCUT                                                     
     0    -13.7508458     23  1.200                                                                 
     0     -8.2022199     23  1.200                                                                 
     1     -5.2854383     23  1.500                                                                 
     1     34.0145650     23  1.500                                                                 
     2     -5.4423304      7  1.500                                                                 
  local pseudopotential read in
  partial core-charges read in
  partial kinetic energy density read in
  atomic valenz-charges read in
  non local Contribution for L=            0  read in
    real space projection operators read in
  non local Contribution for L=            0  read in
    real space projection operators read in
  non local Contribution for L=            1  read in
    real space projection operators read in
  non local Contribution for L=            1  read in
    real space projection operators read in
    PAW grid and wavefunctions read in
 
   number of l-projection  operators is LMAX  =            4
   number of lm-projection operators is LMMAX =            8
 
 POTCAR:    PAW_PBE N 08Apr2002                   
   SHA256 =  e053789ff3a61a86a1b75d8a110fcc91f86041011e7b0817c7c99e4e8a6349d7 N/POTCAR              
   COPYR  = (c) Copyright 08Apr2002 Georg Kresse                                                    
   COPYR  = This file is part of the software VASP. Any use, copying, and all other rights are regul
   COPYR  = If you do not have a valid VASP license, you may not use, copy or distribute this file. 
   VRHFIN =N: s2p3                                                                                  
   LEXCH  = PE                                                                                      
   EATOM  =   264.5486 eV,   19.4438 Ry                                                             
                                                                                                    
   TITEL  = PAW_PBE N 08Apr2002                                                                     
   LULTRA =        F    use ultrasoft PP ?                                                          
   IUNSCR =        1    unscreen: 0-lin 1-nonlin 2-no                                               
   RPACOR =    1.200    partial core radius                                                         
   POMASS =   14.001; ZVAL   =    5.000    mass and valenz                                          
   RCORE  =    1.500    outmost cutoff radius                                                       
   RWIGS  =    1.400; RWIGS  =    0.741    wigner-seitz radius (au A)                               
   ENMAX  =  400.000; ENMIN  =  300.000 eV                                                          
   ICORE  =        2    local potential                                                             
   LCOR   =        T    correct aug charges                                                         
   LPAW   =        T    paw PP                                                                      
   EAUG   =  627.112                                                                                
   DEXC   =    0.000                                                                                
   RMAX   =    1.529    core radius for proj-oper                                                   
   RAUG   =    1.300    factor for augmentation sphere                                              
   RDEP   =    1.514    radius for radial grids                                                     
   RDEPT  =    1.338    core radius for aug-charge                                                  
                                                                                                    
   Atomic configuration                                                                             
    4 entries                                                                                       
     n  l   j            E        occ.                                                              
     1  0  0.50      -384.7179   2.0000                                                             
     2  0  0.50       -18.5828   2.0000                                                             
     2  1  0.50        -7.0898   3.0000                                                             
     3  2  1.50        -6.8029   0.0000                                                             
   Description                                                                                      
     l       E           TYP  RCUT    TYP  RCUT                                                     
     0    -18.5828119     23  1.200                                                                 
     0    -13.5018863     23  1.200                                                                 
     1     -7.0897853     23  1.500                                                                 
     1      9.5240782     23  1.500                                                                 
     2     -6.8029130      7  1.500                                                                 
  local pseudopotential read in
  partial core-charges read in
  partial kinetic energy density read in
  atomic valenz-charges read in
  non local Contribution for L=            0  read in
    real space projection operators read in
  non local Contribution for L=            0  read in
    real space projection operators read in
  non local Contribution for L=            1  read in
    real space projection operators read in
  non local Contribution for L=            1  read in
    real space projection operators read in
    PAW grid and wavefunctions read in
 
   number of l-projection  operators is LMAX  =            4
   number of lm-projection operators is LMMAX =            8
 
 POTCAR:    PAW_PBE I 08Apr2002                   
   SHA256 =  e40f3f59b681c1fc3e3091736183c4589116986673d2b852a5012aec72758799 I/POTCAR              
   COPYR  = (c) Copyright 08Apr2002 Georg Kresse                                                    
   COPYR  = This file is part of the software VASP. Any use, copying, and all other rights are regul
   COPYR  = If you do not have a valid VASP license, you may not use, copy or distribute this file. 
   VRHFIN =I : s2p5                                                                                 
   LEXCH  = PE                                                                                      
   EATOM  =   315.8678 eV,   23.2156 Ry                                                             
                                                                                                    
   TITEL  = PAW_PBE I 08Apr2002                                                                     
   LULTRA =        F    use ultrasoft PP ?                                                          
   IUNSCR =        1    unscreen: 0-lin 1-nonlin 2-no                                               
   RPACOR =    2.200    partial core radius                                                         
   POMASS =  126.904; ZVAL   =    7.000    mass and valenz                                          
   RCORE  =    2.300    outmost cutoff radius                                                       
   RWIGS  =    2.810; RWIGS  =    1.487    wigner-seitz radius (au A)                               
   ENMAX  =  175.647; ENMIN  =  131.735 eV                                                          
   ICORE  =        3    local potential                                                             
   LCOR   =        T    correct aug charges                                                         
   LPAW   =        T    paw PP                                                                      
   EAUG   =  370.139                                                                                
   DEXC   =    0.000                                                                                
   RMAX   =    2.359    core radius for proj-oper                                                   
   RAUG   =    1.300    factor for augmentation sphere                                              
   RDEP   =    2.392    radius for radial grids                                                     
   RDEPT  =    2.170    core radius for aug-charge                                                  
                                                                                                    
   Atomic configuration                                                                             
   13 entries                                                                                       
     n  l   j            E        occ.                                                              
     1  0  0.50    -32976.3739   2.0000                                                             
     2  0  0.50     -5094.5933   2.0000                                                             
     2  1  1.50     -4572.0131   6.0000                                                             
     3  0  0.50     -1028.2813   2.0000                                                             
     3  1  1.50      -859.0250   6.0000                                                             
     3  2  2.50      -605.7620  10.0000                                                             
     4  0  0.50      -180.5540   2.0000                                                             
     4  1  1.50      -127.5306   6.0000                                                             
     4  2  2.50       -50.2720  10.0000                                                             
     5  0  0.50       -17.4058   2.0000                                                             
     5  1  0.50        -7.0851   5.0000                                                             
     5  2  1.50        -7.0750   0.0000                                                             
     4  3  2.50        -7.0750   0.0000                                                             
   Description                                                                                      
     l       E           TYP  RCUT    TYP  RCUT                                                     
     0    -17.4058016     23  2.300                                                                 
     0    -18.7663842     23  2.300                                                                 
     1     -7.0850686     23  2.300                                                                 
     1     -4.2150896     23  2.300                                                                 
     2     -7.0750295     23  2.300                                                                 
     3     -1.3605826     23  2.300                                                                 
  local pseudopotential read in
  partial core-charges read in
  partial kinetic energy density read in
  atomic valenz-charges read in
  non local Contribution for L=            0  read in
    real space projection operators read in
  non local Contribution for L=            0  read in
    real space projection operators read in
  non local Contribution for L=            1  read in
    real space projection operators read in
  non local Contribution for L=            1  read in
    real space projection operators read in
  non local Contribution for L=            2  read in
    real space projection operators read in
    PAW grid and wavefunctions read in
 
   number of l-projection  operators is LMAX  =            5
   number of lm-projection operators is LMMAX =           13
 
 POTCAR:    PAW_PBE Pb 08Apr2002                  
   SHA256 =  797118a27cf1bcd06b9881c67a26cdde129e3cd1a551dd4a281f9681ce847303 Pb/POTCAR             
   COPYR  = (c) Copyright 08Apr2002 Georg Kresse                                                    
   COPYR  = This file is part of the software VASP. Any use, copying, and all other rights are regul
   COPYR  = If you do not have a valid VASP license, you may not use, copy or distribute this file. 
   VRHFIN =Pb:                                                                                      
   LEXCH  = PE                                                                                      
   EATOM  =    96.9868 eV,    7.1283 Ry                                                             
                                                                                                    
   TITEL  = PAW_PBE Pb 08Apr2002                                                                    
   LULTRA =        F    use ultrasoft PP ?                                                          
   IUNSCR =        1    unscreen: 0-lin 1-nonlin 2-no                                               
   RPACOR =    2.200    partial core radius                                                         
   POMASS =  207.200; ZVAL   =    4.000    mass and valenz                                          
   RCORE  =    3.100    outmost cutoff radius                                                       
   RWIGS  =    3.260; RWIGS  =    1.725    wigner-seitz radius (au A)                               
   ENMAX  =   97.973; ENMIN  =   73.480 eV                                                          
   ICORE  =        3    local potential                                                             
   LCOR   =        T    correct aug charges                                                         
   LPAW   =        T    paw PP                                                                      
   EAUG   =  234.873                                                                                
   DEXC   =    0.000                                                                                
   RMAX   =    3.158    core radius for proj-oper                                                   
   RAUG   =    1.300    factor for augmentation sphere                                              
   RDEP   =    3.202    radius for radial grids                                                     
   RDEPT  =    2.659    core radius for aug-charge                                                  
                                                                                                    
   Atomic configuration                                                                             
   17 entries                                                                                       
     n  l   j            E        occ.                                                              
     1  0  0.50    -88091.8466   2.0000                                                             
     2  0  0.50    -15753.4197   2.0000                                                             
     2  1  1.50    -13508.1797   6.0000                                                             
     3  0  0.50     -3781.7194   2.0000                                                             
     3  1  1.50     -3138.2529   6.0000                                                             
     3  2  2.50     -2483.2977  10.0000                                                             
     4  0  0.50      -856.2895   2.0000                                                             
     4  1  1.50      -645.4943   6.0000                                                             
     4  2  2.50      -401.8768  10.0000                                                             
     4  3  3.50      -132.9059  14.0000                                                             
     5  0  0.50      -144.0950   2.0000                                                             
     5  1  1.50       -85.7879   6.0000                                                             
     5  2  2.50       -21.1769  10.0000                                                             
     6  0  0.50       -12.0372   2.0000                                                             
     6  1  1.50        -3.4971   2.0000                                                             
     6  2  2.50        -1.3606   0.0000                                                             
     5  3  2.50        -2.7212   0.0000                                                             
   Description                                                                                      
     l       E           TYP  RCUT    TYP  RCUT                                                     
     0    -12.0371566     23  3.100                                                                 
     0    -13.3977392     23  3.100                                                                 
     1     -3.4971341     23  3.100                                                                 
     1     -5.4423304     23  3.100                                                                 
     2     -1.3605826     23  3.100                                                                 
     3     -1.3605826     23  3.100                                                                 
  local pseudopotential read in
  partial core-charges read in
  partial kinetic energy density read in
  atomic valenz-charges read in
  non local Contribution for L=            0  read in
    real space projection operators read in
  non local Contribution for L=            0  read in
    real space projection operators read in
  non local Contribution for L=            1  read in
    real space projection operators read in
  non local Contribution for L=            1  read in
    real space projection operators read in
  non local Contribution for L=            2  read in
    real space projection operators read in
    PAW grid and wavefunctions read in
 
   number of l-projection  operators is LMAX  =            5
   number of lm-projection operators is LMMAX =           13
 
 Optimization of the real space projectors (new method)

 maximal supplied QI-value         = 34.20
 optimisation between [QCUT,QGAM] = [ 11.29, 22.57] = [ 35.68,142.71] Ry 
 Optimized for a Real-space Cutoff    1.16 Angstroem

   l    n(q)    QCUT    max X(q) W(low)/X(q) W(high)/X(q)  e(spline) 
   0      8    11.287    19.460    0.40E-03    0.73E-03    0.16E-06
   0      8    11.287    12.209    0.38E-03    0.70E-03    0.15E-06
   1      7    11.287     4.655    0.22E-03    0.25E-04    0.22E-06
 Optimization of the real space projectors (new method)

 maximal supplied QI-value         = 25.13
 optimisation between [QCUT,QGAM] = [ 11.31, 22.87] = [ 35.82,146.48] Ry 
 Optimized for a Real-space Cutoff    1.00 Angstroem

   l    n(q)    QCUT    max X(q) W(low)/X(q) W(high)/X(q)  e(spline) 
   0      7    11.310   115.676    0.43E-03    0.13E-02    0.19E-06
   0      7    11.310    87.132    0.43E-03    0.13E-02    0.18E-06
   1      6    11.310     4.429    0.42E-03    0.74E-03    0.11E-06
   1      6    11.310     2.733    0.34E-03    0.55E-03    0.92E-07
 Optimization of the real space projectors (new method)

 maximal supplied QI-value         = 25.13
 optimisation between [QCUT,QGAM] = [ 11.31, 22.87] = [ 35.82,146.48] Ry 
 Optimized for a Real-space Cutoff    1.27 Angstroem

   l    n(q)    QCUT    max X(q) W(low)/X(q) W(high)/X(q)  e(spline) 
   0      9    11.310    79.467    0.75E-04    0.16E-03    0.36E-06
   0      9    11.310    66.151    0.74E-04    0.16E-03    0.36E-06
   1      8    11.310    17.416    0.35E-03    0.12E-03    0.95E-06
   1      8    11.310    12.382    0.37E-03    0.13E-03    0.98E-06
 Optimization of the real space projectors (new method)

 maximal supplied QI-value         = 16.25
 optimisation between [QCUT,QGAM] = [ 11.38, 22.75] = [ 36.24,144.96] Ry 
 Optimized for a Real-space Cutoff    1.31 Angstroem

   l    n(q)    QCUT    max X(q) W(low)/X(q) W(high)/X(q)  e(spline) 
   0      9    11.376   194.483    0.24E-03    0.23E-03    0.67E-07
   0      9    11.376   190.334    0.23E-03    0.22E-03    0.65E-07
   1      8    11.376   116.687    0.25E-03    0.63E-04    0.16E-06
   1      8    11.376    88.696    0.25E-03    0.61E-04    0.16E-06
   2      8    11.376     4.877    0.17E-03    0.14E-03    0.29E-07
 Optimization of the real space projectors (new method)

 maximal supplied QI-value         = 12.09
 optimisation between [QCUT,QGAM] = [ 11.37, 22.86] = [ 36.19,146.31] Ry 
 Optimized for a Real-space Cutoff    1.66 Angstroem

   l    n(q)    QCUT    max X(q) W(low)/X(q) W(high)/X(q)  e(spline) 
   0     11    11.369   135.111    0.12E-03    0.69E-04    0.19E-05
   0     11    11.369   146.850    0.11E-03    0.65E-04    0.18E-05
   1     11    11.369   148.016    0.17E-03    0.32E-03    0.89E-06
   1     11    11.369   122.989    0.17E-03    0.32E-03    0.91E-06
   2     10    11.369     8.916    0.12E-03    0.45E-04    0.33E-06
  PAW_PBE H 15Jun2001                   :
 energy of atom  1       EATOM=  -12.4884
 kinetic energy error for atom=    0.0020 (will be added to EATOM!!)
  PAW_PBE C 08Apr2002                   :
 energy of atom  2       EATOM= -147.1560
 kinetic energy error for atom=    0.0076 (will be added to EATOM!!)
  PAW_PBE N 08Apr2002                   :
 energy of atom  3       EATOM= -264.5486
 kinetic energy error for atom=    0.0138 (will be added to EATOM!!)
  PAW_PBE I 08Apr2002                   :
 energy of atom  4       EATOM= -315.8678
 kinetic energy error for atom=    0.0009 (will be added to EATOM!!)
  PAW_PBE Pb 08Apr2002                  :
 energy of atom  5       EATOM=  -96.9868
 kinetic energy error for atom=    0.0000 (will be added to EATOM!!)
 
 
 POSCAR:  H  C  N  I Pb
  positions in cartesian coordinates
  No initial velocities read in
 exchange correlation table for  LEXCH =        8
   RHO(1)=    0.500       N(1)  =     2000
   RHO(2)=  100.500       N(2)  =     4000
 


--------------------------------------------------------------------------------------------------------


 ion  position               nearest neighbor table
   1  0.450  0.298  0.581- 187 1.00
   2  0.445  0.814  0.580- 188 0.97
   3  0.955  0.280  0.587- 189 1.03
   4  0.969  0.804  0.585- 190 1.00
   5  0.301  0.046  0.583- 194 1.06
   6  0.299  0.550  0.583- 195 1.06
   7  0.790  0.058  0.581- 196 1.06
   8  0.090  0.176  0.554- 183 1.04
   9  0.076  0.672  0.555- 184 1.00
  10  0.588  0.181  0.555- 185 1.02
  11  0.562  0.666  0.564- 186 1.02
  12  0.334  0.070  0.558- 194 0.96
  13  0.326  0.582  0.558- 195 0.96
  14  0.826  0.079  0.556- 196 0.95
  15  0.065  0.194  0.581- 183 1.04
  16  0.052  0.699  0.581- 184 0.98
  17  0.561  0.212  0.580- 185 1.02
  18  0.529  0.710  0.587- 186 1.01
  19  0.198  0.446  0.581- 191 1.06
  20  0.190  0.952  0.581- 192 1.06
  21  0.700  0.945  0.581- 193 1.06
  22  0.408  0.315  0.556- 187 1.02
  23  0.427  0.840  0.554- 188 0.99
  24  0.913  0.316  0.564- 189 1.02
  25  0.937  0.849  0.562- 190 1.04
  26  0.172  0.423  0.555- 191 0.96
  27  0.164  0.927  0.556- 192 0.95
  28  0.688  0.906  0.556- 193 0.96
  29  0.493  0.244  0.537- 146 1.09
  30  0.504  0.744  0.541- 147 1.05
  31  0.993  0.254  0.540- 144 1.06
  32  0.001  0.767  0.540- 145 1.05
  33  0.248  0.506  0.538- 148 1.09
  34  0.251  0.997  0.539- 149 1.09
  35  0.767  0.988  0.538- 150 1.09
  36  0.451  0.304  0.675- 205 0.97
  37  0.450  0.793  0.676- 206 0.97
  38  0.944  0.307  0.672- 207 1.01
  39  0.945  0.804  0.674- 208 1.05
  40  0.300  0.048  0.675- 209 0.97
  41  0.297  0.551  0.675- 210 0.97
  42  0.802  0.058  0.674- 211 0.97
  43  0.814  0.543  0.675- 212 0.98
  44  0.076  0.167  0.651- 197 1.08
  45  0.080  0.672  0.650- 198 1.07
  46  0.576  0.170  0.649- 199 1.08
  47  0.575  0.675  0.647- 200 0.96
  48  0.172  0.420  0.649- 201 1.05
  49  0.170  0.923  0.648- 202 1.10
  50  0.664  0.440  0.651- 203 1.00
  51  0.672  0.922  0.651- 204 1.10
  52  0.041  0.205  0.675- 197 0.99
  53  0.049  0.702  0.676- 198 1.07
  54  0.550  0.200  0.675- 199 1.02
  55  0.552  0.696  0.673- 200 1.03
  56  0.202  0.449  0.675- 201 0.97
  57  0.198  0.951  0.674- 202 0.98
  58  0.699  0.452  0.675- 203 1.00
  59  0.703  0.956  0.676- 204 0.98
  60  0.420  0.335  0.649- 205 1.04
  61  0.415  0.829  0.652- 206 1.04
  62  0.923  0.329  0.645- 207 0.98
  63  0.918  0.827  0.648- 208 1.01
  64  0.334  0.079  0.650- 209 1.04
  65  0.325  0.584  0.650- 210 1.07
  66  0.828  0.085  0.648- 211 1.04
  67  0.835  0.576  0.650- 212 0.98
  68  0.004  0.244  0.630- 151 1.14
  69  0.997  0.748  0.631- 152 1.14
  70  0.498  0.252  0.632- 153 1.14
  71  0.492  0.756  0.631- 154 1.13
  72  0.253  0.003  0.631- 156 1.13
  73  0.248  0.502  0.632- 155 1.12
  74  0.749  0.002  0.632- 158 1.13
  75  0.742  0.517  0.633- 157 1.07
  76  0.449  0.301  0.769- 221 1.02
  77  0.449  0.801  0.769- 222 1.02
  78  0.949  0.301  0.769- 223 1.02
  79  0.949  0.801  0.769- 224 1.02
  80  0.301  0.051  0.769- 225 1.02
  81  0.301  0.551  0.769- 226 1.02
  82  0.801  0.051  0.769- 227 1.02
  83  0.801  0.551  0.769- 228 1.02
  84  0.079  0.171  0.743- 213 1.02
  85  0.079  0.671  0.743- 214 1.02
  86  0.579  0.171  0.743- 215 1.02
  87  0.579  0.671  0.743- 216 1.02
  88  0.171  0.421  0.743- 217 1.02
  89  0.171  0.921  0.743- 218 1.02
  90  0.671  0.421  0.743- 219 1.02
  91  0.671  0.921  0.743- 220 1.02
  92  0.051  0.199  0.769- 213 1.02
  93  0.051  0.699  0.769- 214 1.02
  94  0.551  0.199  0.769- 215 1.02
  95  0.551  0.699  0.769- 216 1.02
  96  0.199  0.449  0.769- 217 1.02
  97  0.199  0.949  0.769- 218 1.02
  98  0.699  0.449  0.769- 219 1.02
  99  0.699  0.949  0.769- 220 1.02
 100  0.421  0.329  0.743- 221 1.02
 101  0.421  0.829  0.743- 222 1.02
 102  0.921  0.329  0.743- 223 1.02
 103  0.921  0.829  0.743- 224 1.02
 104  0.329  0.079  0.743- 225 1.02
 105  0.329  0.579  0.743- 226 1.02
 106  0.829  0.079  0.743- 227 1.02
 107  0.829  0.579  0.743- 228 1.02
 108  0.000  0.250  0.726- 161 1.09
 109  0.000  0.750  0.726- 162 1.09
 110  0.500  0.250  0.726- 159 1.09
 111  0.500  0.750  0.726- 160 1.09
 112  0.250  0.000  0.726- 163 1.09
 113  0.250  0.500  0.726- 164 1.09
 114  0.750  0.000  0.726- 165 1.09
 115  0.750  0.500  0.726- 166 1.09
 116  0.721  0.463  0.550- 173 1.08
 117  0.745  0.518  0.528- 173 1.10
 118  0.658  0.560  0.565- 174 1.12
 119  0.695  0.648  0.566- 174 1.09
 120  0.838  0.525  0.581- 175 1.09
 121  0.775  0.593  0.590- 175 1.10
 122  0.878  0.564  0.547- 176 1.09
 123  0.821  0.627  0.534- 176 1.04
 124  0.879  0.491  0.532- 177 1.08
 125  0.863  0.455  0.558- 177 1.11
 126  0.888  0.354  0.535- 178 1.08
 127  0.797  0.348  0.544- 178 1.07
 128  0.627  0.568  0.527- 179 1.11
 129  0.709  0.620  0.522- 179 1.08
 130  0.637  0.667  0.533- 179 1.12
 131  0.730  0.482  0.604- 180 1.09
 132  0.745  0.425  0.581- 180 1.10
 133  0.673  0.493  0.582- 180 1.10
 134  0.838  0.681  0.576- 181 1.09
 135  0.875  0.717  0.553- 181 1.09
 136  0.927  0.648  0.568- 181 1.11
 137  0.844  0.401  0.500- 182 1.06
 138  0.806  0.315  0.506- 182 1.09
 139  0.676  0.328  0.529- 168 1.11
 140  0.764  0.479  0.483- 169 1.05
 141  0.554  0.381  0.524- 170 1.08
 142  0.639  0.531  0.478- 171 1.03
 143  0.535  0.485  0.499- 172 1.04
 144  0.002  0.246  0.557-  31 1.06 183 1.28 189 1.38
 145  0.006  0.762  0.557-  32 1.05 190 1.33 184 1.36
 146  0.499  0.247  0.555-  29 1.09 185 1.30 187 1.38
 147  0.498  0.751  0.557-  30 1.05 186 1.30 188 1.39
 148  0.250  0.504  0.556-  33 1.09 195 1.29 191 1.35
 149  0.248  0.997  0.556-  34 1.09 192 1.29 194 1.35
 150  0.758  0.994  0.555-  35 1.09 196 1.29 193 1.35
 151  1.000  0.248  0.648-  68 1.14 197 1.25 207 1.35
 152  0.999  0.749  0.650-  69 1.14 198 1.24 208 1.33
 153  0.499  0.251  0.650-  70 1.14 199 1.25 205 1.37
 154  0.498  0.750  0.649-  71 1.13 200 1.29 206 1.37
 155  0.249  0.503  0.650-  73 1.12 210 1.28 201 1.35
 156  0.250  1.000  0.649-  72 1.13 202 1.26 209 1.37
 157  0.748  0.507  0.650-  75 1.07 203 1.28 212 1.38
 158  0.750  0.002  0.650-  74 1.13 204 1.26 211 1.37
 159  0.500  0.250  0.743- 110 1.09 221 1.31 215 1.31
 160  0.500  0.750  0.743- 111 1.09 222 1.31 216 1.31
 161  1.000  0.250  0.743- 108 1.09 223 1.31 213 1.31
 162  1.000  0.750  0.743- 109 1.09 224 1.31 214 1.31
 163  0.250  0.000  0.743- 112 1.09 225 1.31 218 1.31
 164  0.250  0.500  0.743- 113 1.09 226 1.31 217 1.31
 165  0.750  0.000  0.743- 114 1.09 227 1.31 220 1.31
 166  0.750  0.500  0.743- 115 1.09 228 1.31 219 1.31
 167  0.731  0.399  0.506- 168 1.38 169 1.40 182 1.42
 168  0.670  0.372  0.517- 139 1.11 167 1.38 170 1.42
 169  0.719  0.457  0.492- 140 1.05 171 1.40 167 1.40
 170  0.598  0.402  0.515- 141 1.08 172 1.36 168 1.42
 171  0.648  0.488  0.489- 142 1.03 169 1.40 172 1.46
 172  0.586  0.460  0.501- 143 1.04 170 1.36 171 1.46
 173  0.763  0.501  0.544- 116 1.08 117 1.10 229 1.42 177 1.58
 174  0.694  0.599  0.556- 119 1.09 118 1.12 179 1.53 229 1.57
 175  0.781  0.543  0.580- 120 1.09 121 1.10 229 1.47 180 1.53
 176  0.836  0.607  0.549- 123 1.04 122 1.09 229 1.49 181 1.50
 177  0.841  0.459  0.542- 124 1.08 125 1.11 178 1.57 173 1.58
 178  0.833  0.378  0.533- 127 1.07 126 1.08 177 1.57 182 1.58
 179  0.665  0.611  0.533- 129 1.08 128 1.11 130 1.12 174 1.53
 180  0.729  0.481  0.587- 131 1.09 133 1.10 132 1.10 175 1.53
 181  0.872  0.666  0.562- 134 1.09 135 1.09 136 1.11 176 1.50
 182  0.804  0.374  0.510- 137 1.06 138 1.09 167 1.42 178 1.58
 183  0.054  0.204  0.564-  15 1.04   8 1.04 144 1.28
 184  0.047  0.705  0.565-  16 0.98   9 1.00 145 1.36
 185  0.551  0.210  0.564-  17 1.02  10 1.02 146 1.30
 186  0.532  0.708  0.570-  18 1.01  11 1.02 147 1.30
 187  0.449  0.290  0.565-   1 1.00  22 1.02 146 1.38
 188  0.453  0.808  0.565-   2 0.97  23 0.99 147 1.39
 189  0.954  0.284  0.570-  24 1.02   3 1.03 144 1.38
 190  0.970  0.810  0.569-   4 1.00  25 1.04 145 1.33
 191  0.203  0.454  0.564-  26 0.96  19 1.06 148 1.35
 192  0.197  0.956  0.564-  27 0.95  20 1.06 149 1.29
 193  0.711  0.944  0.564-  28 0.96  21 1.06 150 1.35
 194  0.298  0.041  0.566-  12 0.96   5 1.06 149 1.35
 195  0.295  0.549  0.566-  13 0.96   6 1.06 148 1.29
 196  0.794  0.047  0.564-  14 0.95   7 1.06 150 1.29
 197  0.040  0.206  0.659-  52 0.99  44 1.08 151 1.25
 198  0.044  0.708  0.659-  45 1.07  53 1.07 152 1.24
 199  0.542  0.206  0.659-  54 1.02  46 1.08 153 1.25
 200  0.547  0.705  0.657-  47 0.96  55 1.03 154 1.29
 201  0.206  0.452  0.659-  56 0.97  48 1.05 155 1.35
 202  0.205  0.957  0.658-  57 0.98  49 1.10 156 1.26
 203  0.702  0.464  0.660-  58 1.00  50 1.00 157 1.28
 204  0.708  0.960  0.660-  59 0.98  51 1.10 158 1.26
 205  0.453  0.301  0.659-  36 0.97  60 1.04 153 1.37
 206  0.450  0.794  0.661-  37 0.97  61 1.04 154 1.37
 207  0.951  0.300  0.656-  62 0.98  38 1.01 151 1.35
 208  0.952  0.798  0.658-  63 1.01  39 1.05 152 1.33
 209  0.299  0.046  0.659-  40 0.97  64 1.04 156 1.37
 210  0.291  0.549  0.659-  41 0.97  65 1.07 155 1.28
 211  0.798  0.052  0.659-  42 0.97  66 1.04 158 1.37
 212  0.805  0.546  0.660-  43 0.98  67 0.98 157 1.38
 213  0.046  0.204  0.753-  92 1.02  84 1.02 161 1.31
 214  0.046  0.704  0.753-  93 1.02  85 1.02 162 1.31
 215  0.546  0.204  0.753-  94 1.02  86 1.02 159 1.31
 216  0.546  0.704  0.753-  95 1.02  87 1.02 160 1.31
 217  0.204  0.454  0.753-  96 1.02  88 1.02 164 1.31
 218  0.204  0.954  0.753-  97 1.02  89 1.02 163 1.31
 219  0.704  0.454  0.753-  98 1.02  90 1.02 166 1.31
 220  0.704  0.954  0.753-  99 1.02  91 1.02 165 1.31
 221  0.454  0.296  0.753-  76 1.02 100 1.02 159 1.31
 222  0.454  0.796  0.753-  77 1.02 101 1.02 160 1.31
 223  0.954  0.296  0.753-  78 1.02 102 1.02 161 1.31
 224  0.954  0.796  0.753-  79 1.02 103 1.02 162 1.31
 225  0.296  0.046  0.753-  80 1.02 104 1.02 163 1.31
 226  0.296  0.546  0.753-  81 1.02 105 1.02 164 1.31
 227  0.796  0.046  0.753-  82 1.02 106 1.02 165 1.31
 228  0.796  0.546  0.753-  83 1.02 107 1.02 166 1.31
 229  0.773  0.563  0.557- 173 1.42 175 1.47 176 1.49 174 1.57
 230  0.496  0.004  0.552- 304 3.15
 231  0.490  0.510  0.554- 305 3.08
 232  0.002  0.002  0.552- 302 3.19
 233  0.013  0.510  0.556- 303 3.10
 234  0.253  0.252  0.553- 306 3.14
 235  0.252  0.748  0.553- 307 3.05
 236  0.739  0.238  0.556- 308 3.05
 237  0.737  0.763  0.548- 309 3.54
 238  0.998  0.003  0.653- 302 3.17 310 3.21
 239  0.005  0.497  0.655- 311 3.10 303 3.14
 240  0.498  0.999  0.654- 312 3.18 304 3.21
 241  0.496  0.498  0.654- 313 3.15 305 3.18
 242  0.252  0.248  0.654- 314 3.15 306 3.22
 243  0.246  0.748  0.654- 315 3.17 307 3.27
 244  0.752  0.248  0.655- 316 3.13 308 3.16
 245  0.752  0.750  0.654- 309 3.09 317 3.16
 246  0.145  0.108  0.608- 306 3.22 302 3.34
 247  0.144  0.606  0.608- 303 3.20 307 3.22
 248  0.645  0.107  0.608- 308 3.17 304 3.26
 249  0.631  0.619  0.611- 305 3.20 309 3.27
 250  0.354  0.391  0.608- 306 3.16 305 3.33
 251  0.358  0.891  0.608- 304 3.26 307 3.27
 252  0.869  0.382  0.611- 303 3.26 308 3.27
 253  0.857  0.894  0.608- 302 3.17 309 3.20
 254  0.110  0.355  0.608- 306 3.25 303 3.34
 255  0.109  0.860  0.608- 307 3.21 302 3.23
 256  0.597  0.347  0.607- 308 3.26 305 3.28
 257  0.604  0.859  0.608- 309 3.08 304 3.18
 258  0.392  0.144  0.608- 306 3.15 304 3.26
 259  0.395  0.641  0.608- 305 3.18 307 3.35
 260  0.890  0.144  0.608- 308 3.20 302 3.28
 261  0.905  0.646  0.611- 303 3.12 309 3.61
 262  0.000  0.000  0.755- 310 3.13 318 3.27
 263  0.000  0.500  0.755- 311 3.13 319 3.27
 264  0.500  0.000  0.755- 312 3.13 320 3.27
 265  0.500  0.500  0.755- 313 3.13 321 3.27
 266  0.250  0.250  0.755- 314 3.13 322 3.27
 267  0.250  0.750  0.755- 315 3.13 323 3.27
 268  0.750  0.250  0.755- 316 3.13 324 3.27
 269  0.750  0.750  0.755- 317 3.13 325 3.27
 270  0.136  0.114  0.705- 310 3.20 314 3.20
 271  0.136  0.614  0.705- 311 3.20 315 3.20
 272  0.636  0.114  0.705- 312 3.20 316 3.20
 273  0.636  0.614  0.705- 313 3.20 317 3.20
 274  0.364  0.386  0.705- 313 3.20 314 3.20
 275  0.364  0.886  0.705- 312 3.20 315 3.20
 276  0.864  0.386  0.705- 311 3.20 316 3.20
 277  0.864  0.886  0.705- 310 3.20 317 3.20
 278  0.114  0.364  0.705- 314 3.21 311 3.21
 279  0.114  0.864  0.705- 315 3.21 310 3.21
 280  0.614  0.364  0.705- 316 3.21 313 3.21
 281  0.614  0.864  0.705- 317 3.21 312 3.21
 282  0.386  0.136  0.705- 314 3.21 312 3.21
 283  0.386  0.636  0.705- 315 3.21 313 3.21
 284  0.886  0.136  0.705- 316 3.21 310 3.21
 285  0.886  0.636  0.705- 317 3.21 311 3.21
 286  0.135  0.115  0.801- 318 3.22 322 3.22
 287  0.135  0.615  0.801- 319 3.22 323 3.22
 288  0.635  0.115  0.801- 320 3.22 324 3.22
 289  0.635  0.615  0.801- 321 3.22 325 3.22
 290  0.365  0.385  0.801- 321 3.22 322 3.22
 291  0.365  0.885  0.801- 320 3.22 323 3.22
 292  0.865  0.385  0.801- 319 3.22 324 3.22
 293  0.865  0.885  0.801- 318 3.22 325 3.22
 294  0.115  0.365  0.801- 319 3.23 322 3.23
 295  0.115  0.865  0.801- 318 3.23 323 3.23
 296  0.615  0.365  0.801- 321 3.23 324 3.23
 297  0.615  0.865  0.801- 320 3.23 325 3.23
 298  0.385  0.135  0.801- 320 3.23 322 3.23
 299  0.385  0.635  0.801- 321 3.23 323 3.23
 300  0.885  0.135  0.801- 318 3.23 324 3.23
 301  0.885  0.635  0.801- 319 3.23 325 3.23
 302  0.998  0.998  0.603- 238 3.17 253 3.17 232 3.19 255 3.23 260 3.28 246 3.34
 303  0.000  0.503  0.605- 233 3.10 261 3.12 239 3.14 247 3.20 252 3.26 254 3.34
 304  0.501  0.000  0.603- 230 3.15 257 3.18 240 3.21 251 3.26 248 3.26 258 3.26
 305  0.501  0.501  0.604- 231 3.08 241 3.18 259 3.18 249 3.20 256 3.28 250 3.33
 306  0.254  0.249  0.603- 234 3.14 258 3.15 250 3.16 242 3.22 246 3.22 254 3.25
 307  0.247  0.750  0.602- 235 3.05 255 3.21 247 3.22 251 3.27 243 3.27 259 3.35
 308  0.748  0.248  0.604- 236 3.05 244 3.16 248 3.17 260 3.20 256 3.26 252 3.27
 309  0.743  0.760  0.605- 257 3.08 245 3.09 253 3.20 249 3.27 237 3.54 261 3.61
 310  0.000  0.000  0.705- 262 3.13 270 3.20 277 3.20 279 3.21 284 3.21 238 3.21
 311  0.000  0.500  0.705- 239 3.10 263 3.13 271 3.20 276 3.20 278 3.21 285 3.21
 312  0.500  0.000  0.705- 264 3.13 240 3.18 272 3.20 275 3.20 281 3.21 282 3.21
 313  0.500  0.500  0.705- 265 3.13 241 3.15 273 3.20 274 3.20 280 3.21 283 3.21
 314  0.250  0.250  0.705- 266 3.13 242 3.15 270 3.20 274 3.20 282 3.21 278 3.21
 315  0.250  0.750  0.705- 267 3.13 243 3.17 271 3.20 275 3.20 283 3.21 279 3.21
 316  0.750  0.250  0.705- 244 3.13 268 3.13 272 3.20 276 3.20 284 3.21 280 3.21
 317  0.750  0.750  0.705- 269 3.13 245 3.16 273 3.20 277 3.20 285 3.21 281 3.21
 318  0.000  0.000  0.807- 286 3.22 293 3.22 300 3.23 295 3.23 262 3.27
 319  0.000  0.500  0.807- 287 3.22 292 3.22 301 3.23 294 3.23 263 3.27
 320  0.500  0.000  0.807- 288 3.22 291 3.22 298 3.23 297 3.23 264 3.27
 321  0.500  0.500  0.807- 289 3.22 290 3.22 299 3.23 296 3.23 265 3.27
 322  0.250  0.250  0.807- 290 3.22 286 3.22 294 3.23 298 3.23 266 3.27
 323  0.250  0.750  0.807- 291 3.22 287 3.22 299 3.23 295 3.23 267 3.27
 324  0.750  0.250  0.807- 292 3.22 288 3.22 296 3.23 300 3.23 268 3.27
 325  0.750  0.750  0.807- 293 3.22 289 3.22 297 3.23 301 3.23 269 3.27
 

IMPORTANT INFORMATION: All symmetrisations will be switched off!
NOSYMM: (Re-)initialisation of all symmetry stuff for point group C_1.


----------------------------------------------------------------------------------------

                                     Primitive cell                                     

  volume of cell :   20385.2105

  direct lattice vectors                    reciprocal lattice vectors
    18.060800552  0.000000000  0.000000000     0.055368531  0.000015077 -0.000000000
    -0.004918649 18.062799454  0.000000000     0.000000000  0.055362404  0.000000000
     0.000000000  0.000000000 62.487499237     0.000000000 -0.000000000  0.016003201

  length of vectors
    18.060800552 18.062800123 62.487499237     0.055368533  0.055362404  0.016003201

  position of ions in fractional coordinates (direct lattice)
     0.450373181  0.298250897  0.581115376
     0.445014822  0.813945753  0.580000895
     0.955097504  0.279794272  0.586837223
     0.968596837  0.804459114  0.584997500
     0.300819663  0.045753899  0.582579414
     0.298957760  0.549683430  0.582695770
     0.790420608  0.058148552  0.581102922
     0.089904391  0.176114354  0.554376019
     0.075798193  0.672299020  0.555160172
     0.588133422  0.180995488  0.555018420
     0.561766360  0.666178605  0.563650640
     0.333615284  0.069691648  0.557813169
     0.326058115  0.582030735  0.558106990
     0.825703830  0.079276391  0.556386064
     0.065163432  0.194477183  0.580503437
     0.052217381  0.698996601  0.580553618
     0.560611648  0.212072533  0.580440253
     0.529429300  0.710348107  0.586519533
     0.198091084  0.445824647  0.580990045
     0.189906540  0.952055584  0.581318053
     0.700406304  0.945329622  0.581043157
     0.407931958  0.314911502  0.556265801
     0.426772943  0.840037216  0.554310820
     0.912576272  0.316190474  0.564272774
     0.936713419  0.849043343  0.561859571
     0.171949751  0.423378284  0.555465165
     0.164244443  0.927204917  0.555912825
     0.687547619  0.906098203  0.556228989
     0.492698642  0.244493358  0.537416511
     0.503645083  0.743957804  0.540557276
     0.993214803  0.253822686  0.540487315
     0.001211199  0.766993073  0.540046798
     0.247819369  0.505845550  0.538458284
     0.250518785  0.997152480  0.538528855
     0.766674272  0.987570150  0.538250601
     0.450563458  0.304162893  0.674746347
     0.450442177  0.793181525  0.676138043
     0.943856443  0.306993668  0.671533363
     0.945333569  0.804293963  0.674437691
     0.300416014  0.048399047  0.674868808
     0.297394177  0.551074703  0.674878697
     0.802371817  0.057655930  0.674122931
     0.813619249  0.543393587  0.674904948
     0.076254944  0.167408818  0.651286454
     0.080175993  0.672042212  0.650425198
     0.576019052  0.169863673  0.649246984
     0.575340637  0.674962770  0.647266546
     0.171764682  0.419528619  0.649483603
     0.169515431  0.922621924  0.647870732
     0.664128007  0.439977037  0.650648448
     0.671931220  0.922330685  0.651035550
     0.040557783  0.205024844  0.674999632
     0.049383856  0.702057970  0.675988905
     0.550165370  0.200460813  0.674809103
     0.551889366  0.696284488  0.673279562
     0.202120395  0.448989447  0.674752329
     0.197909317  0.950565874  0.673618252
     0.698865184  0.452365173  0.675396623
     0.703419557  0.956256265  0.675847702
     0.420341114  0.334518167  0.649395085
     0.415452325  0.829037554  0.651957060
     0.923453535  0.329169152  0.645274265
     0.918111286  0.826995761  0.648389268
     0.333808079  0.078936921  0.649875344
     0.325158879  0.583997238  0.649775166
     0.827927144  0.084975315  0.648092639
     0.835450197  0.576387030  0.650229724
     0.004471037  0.243738008  0.630226883
     0.996803515  0.747688068  0.631266764
     0.498330209  0.251726802  0.631550024
     0.492482341  0.755713530  0.631437697
     0.253365492  0.002830280  0.631114207
     0.247798475  0.501833031  0.631662168
     0.749459933  0.002256312  0.631861243
     0.742319905  0.517089138  0.633157645
     0.448745018  0.301283966  0.768889017
     0.448745007  0.801283913  0.768889017
     0.948744965  0.301283966  0.768889017
     0.948745007  0.801283913  0.768889017
     0.301275995  0.051294496  0.768872961
     0.301276011  0.551294499  0.768872961
     0.801275943  0.051294496  0.768872961
     0.801275984  0.551294499  0.768872961
     0.078771004  0.171180501  0.743441971
     0.078771006  0.671180448  0.743441971
     0.578771004  0.171180501  0.743441971
     0.578770992  0.671180448  0.743441971
     0.171199499  0.421174482  0.743421032
     0.171199501  0.921174508  0.743421032
     0.671199512  0.421174482  0.743421032
     0.671199501  0.921174508  0.743421032
     0.051256000  0.198714991  0.768889017
     0.051256002  0.698714925  0.768889017
     0.551256027  0.198714991  0.768889017
     0.551256016  0.698714925  0.768889017
     0.198723491  0.448703970  0.768872046
     0.198723493  0.948703970  0.768872046
     0.698723518  0.448703970  0.768872046
     0.698723507  0.948703970  0.768872046
     0.421231519  0.328817467  0.743441971
     0.421231508  0.828817440  0.743441971
     0.921231466  0.328817467  0.743441971
     0.921231508  0.828817440  0.743441971
     0.328800503  0.078824997  0.743421032
     0.328800492  0.578824964  0.743421032
     0.828800477  0.078824997  0.743421032
     0.828800519  0.578824964  0.743421032
     0.000003500  0.250001478  0.725821992
     0.000003500  0.750001452  0.725821992
     0.500003506  0.250001478  0.725821992
     0.500003495  0.750001452  0.725821992
     0.250000502  0.000000000  0.725803983
     0.250000517  0.500000000  0.725803983
     0.750000502  0.000000000  0.725803983
     0.750000490  0.500000000  0.725803983
     0.720859942  0.463497622  0.549647412
     0.744560750  0.518135325  0.527873525
     0.657805623  0.559978296  0.564819880
     0.695418282  0.648225327  0.565944678
     0.838419144  0.524670994  0.581354742
     0.774787114  0.592892225  0.590035861
     0.878252359  0.563891926  0.547403372
     0.821134125  0.626697750  0.533765146
     0.879195250  0.490910611  0.531984821
     0.862562389  0.455206165  0.558127318
     0.887849096  0.354140459  0.534882435
     0.796944889  0.348136780  0.544137521
     0.626702182  0.567782852  0.527137477
     0.709166296  0.620024701  0.521856331
     0.637305386  0.667010644  0.533486342
     0.730350341  0.481982256  0.604166007
     0.745497600  0.425489638  0.580990656
     0.672835001  0.493125370  0.581562242
     0.838262898  0.681332865  0.575851322
     0.874568449  0.717195441  0.553129981
     0.926716363  0.648279128  0.568454152
     0.844171716  0.400758244  0.499821223
     0.806117010  0.314931988  0.506105378
     0.676296515  0.328043083  0.529329444
     0.763620554  0.479143323  0.483115489
     0.553604087  0.380748073  0.524471905
     0.639376387  0.531455446  0.478206273
     0.535155905  0.485464476  0.499030934
     0.002003941  0.246023726  0.557050931
     0.006438661  0.761624813  0.556721275
     0.499357777  0.246530267  0.554783266
     0.497576154  0.751303707  0.557084080
     0.250103365  0.504120122  0.555897807
     0.247667439  0.997320969  0.555980527
     0.757949259  0.993897909  0.555444042
     0.999679140  0.248486395  0.648293912
     0.999432253  0.749366401  0.649507656
     0.499425968  0.250874752  0.649712226
     0.497963196  0.749722099  0.649421884
     0.249481004  0.502695640  0.649608201
     0.250413706  0.999673871  0.649194971
     0.747618978  0.506714917  0.650008550
     0.749976254  0.002287959  0.649984009
     0.499988984  0.249994984  0.743277021
     0.499989025  0.749994958  0.743277021
     0.999988984  0.249994984  0.743277021
     0.999989025  0.749994958  0.743277021
     0.250000502  0.000001000  0.743255960
     0.250000517  0.500001003  0.743255960
     0.750000502  0.000001000  0.743255960
     0.750000491  0.500001003  0.743255960
     0.730524153  0.398740527  0.506138343
     0.670062654  0.372324622  0.517143169
     0.718820095  0.457123408  0.491673322
     0.597838716  0.402231537  0.514667820
     0.648423650  0.487861544  0.488584997
     0.586245263  0.459579135  0.500989456
     0.763493903  0.500561715  0.543826118
     0.694266528  0.599158626  0.555875952
     0.781481924  0.543476796  0.579985633
     0.836225494  0.606567094  0.548769001
     0.840506703  0.459418788  0.541647887
     0.832809054  0.377594149  0.533433353
     0.664910358  0.611230768  0.533203083
     0.729434411  0.480625830  0.586726789
     0.871934609  0.665621536  0.562185259
     0.804475639  0.374168423  0.509587062
     0.053625411  0.204471049  0.564497550
     0.047181074  0.705162792  0.565076279
     0.551420242  0.209559916  0.564373685
     0.531966764  0.707984512  0.570327207
     0.448524869  0.290387629  0.565263023
     0.452521904  0.807555805  0.564666956
     0.953881002  0.284007740  0.570348207
     0.970390384  0.809580386  0.569132205
     0.202876469  0.453813467  0.564235413
     0.197233942  0.955979919  0.564476061
     0.711450305  0.944290088  0.564427651
     0.298194719  0.041194566  0.565671491
     0.294741294  0.548528533  0.565723686
     0.794294045  0.047215817  0.564428200
     0.039648361  0.206057330  0.659119259
     0.043697708  0.708137678  0.658981475
     0.542038943  0.206421819  0.658822324
     0.546907391  0.704572144  0.657068556
     0.206012301  0.451829435  0.659275906
     0.205069172  0.957006296  0.658208676
     0.702054456  0.464160127  0.659869226
     0.707828296  0.959791659  0.660290941
     0.452707007  0.300824521  0.659210952
     0.450444221  0.794482672  0.660598925
     0.951216629  0.299656477  0.655602015
     0.952392915  0.797958292  0.657913512
     0.299103049  0.046346292  0.659332192
     0.290670121  0.549039140  0.659461063
     0.798148423  0.052195901  0.658709509
     0.804552018  0.545851954  0.659528948
     0.045862501  0.204119496  0.752725994
     0.045862500  0.704119456  0.752725994
     0.545862507  0.204119496  0.752725994
     0.545862496  0.704119456  0.752725994
     0.204119002  0.454101003  0.752704994
     0.204118991  0.954100951  0.752704994
     0.704118976  0.454101003  0.752704994
     0.704118964  0.954100951  0.752704994
     0.454140018  0.295888490  0.752726971
     0.454140007  0.795888516  0.752726971
     0.954140018  0.295888490  0.752726971
     0.954140060  0.795888516  0.752726971
     0.295882492  0.045900498  0.752704994
     0.295882481  0.545900528  0.752704994
     0.795882439  0.045900498  0.752704994
     0.795882481  0.545900528  0.752704994
     0.772873578  0.562882222  0.557334069
     0.495552977  0.004212560  0.552227335
     0.489620368  0.510174909  0.554461607
     0.001856613  0.002332617  0.551849085
     0.012570935  0.509783731  0.555501427
     0.253006913  0.251819250  0.552650881
     0.252356911  0.747923968  0.552854718
     0.738977830  0.237573058  0.555587992
     0.737208809  0.762637368  0.548386417
     0.998088939  0.002937896  0.653454307
     0.005337407  0.496726067  0.655216256
     0.497691591  0.998850469  0.653976506
     0.496383015  0.497926898  0.654466350
     0.252219405  0.248150549  0.654454019
     0.245663450  0.747907073  0.654040057
     0.751939469  0.248448724  0.654737767
     0.752334497  0.750252663  0.654294624
     0.145048118  0.108278585  0.607923472
     0.144373712  0.605706017  0.608230235
     0.645006535  0.107114897  0.608210700
     0.630514846  0.619298204  0.611072784
     0.354061898  0.390768021  0.608114062
     0.358116358  0.891170630  0.608444817
     0.868511370  0.381631009  0.610838301
     0.857430290  0.894498574  0.608228159
     0.110183605  0.355216212  0.608300317
     0.109096152  0.859557583  0.608074808
     0.596540659  0.346630963  0.606580552
     0.604247103  0.859193912  0.607861204
     0.392239135  0.143591893  0.608149775
     0.395042850  0.640646216  0.608445366
     0.890416449  0.143739832  0.607647355
     0.905197596  0.646137389  0.611150375
     0.000000000  0.000000000  0.754927972
     0.000000000  0.500000000  0.754927972
     0.500000000  0.000000000  0.754927972
     0.499999989  0.500000000  0.754927972
     0.250000496  0.250000000  0.754939022
     0.250000511  0.749999974  0.754939022
     0.750000470  0.250000000  0.754939022
     0.750000458  0.749999974  0.754939022
     0.135790500  0.114209997  0.704782994
     0.135790502  0.614209984  0.704782994
     0.635790447  0.114209997  0.704782994
     0.635790488  0.614209984  0.704782994
     0.364209516  0.385789989  0.704782994
     0.364209505  0.885789963  0.704782994
     0.864209542  0.385789989  0.704782994
     0.864209531  0.885789963  0.704782994
     0.114217990  0.364218986  0.704780979
     0.114217992  0.864218986  0.704780979
     0.614218004  0.364218986  0.704780979
     0.614217992  0.864218986  0.704780979
     0.385782012  0.135781489  0.704782017
     0.385782001  0.635781489  0.704782017
     0.885781985  0.135781489  0.704782017
     0.885782027  0.635781489  0.704782017
     0.134667000  0.115332001  0.801256025
     0.134666989  0.615331988  0.801256025
     0.634666987  0.115332001  0.801256025
     0.634666976  0.615331988  0.801256025
     0.365333002  0.384667985  0.801256025
     0.365332990  0.884667959  0.801256025
     0.865332949  0.384667985  0.801256025
     0.865332938  0.884667959  0.801256025
     0.115328503  0.365337004  0.801264999
     0.115328505  0.865336978  0.801264999
     0.615328503  0.365337004  0.801264999
     0.615328492  0.865336978  0.801264999
     0.384671513  0.134662996  0.801264999
     0.384671501  0.634662970  0.801264999
     0.884671486  0.134662996  0.801264999
     0.884671528  0.634662970  0.801264999
     0.997729575  0.998013616  0.602822232
     0.000044814  0.503488819  0.605009559
     0.500551810  0.000242525  0.602578470
     0.501096727  0.501000833  0.603575373
     0.253895261  0.248648907  0.602908492
     0.246848286  0.749955254  0.601639928
     0.748007844  0.248333625  0.604235112
     0.742627331  0.760240722  0.605002905
     0.000000500  0.000000500  0.704828963
     0.000000500  0.500000475  0.704828963
     0.500000475  0.000000500  0.704828963
     0.500000464  0.500000475  0.704828963
     0.249999994  0.249999472  0.704824995
     0.250000010  0.749999498  0.704824995
     0.749999994  0.249999472  0.704824995
     0.749999983  0.749999498  0.704824995
     0.000000000  0.000000000  0.807317968
     0.000000000  0.500000000  0.807317968
     0.500000000  0.000000000  0.807317968
     0.499999989  0.500000000  0.807317968
     0.249999994  0.250000000  0.807317968
     0.250000010  0.749999974  0.807317968
     0.749999994  0.250000000  0.807317968
     0.749999983  0.749999974  0.807317968

  ion indices of the primitive-cell ions
   primitive index   ion index
                 1           1
                 2           2
                 3           3
                 4           4
                 5           5
                 6           6
                 7           7
                 8           8
                 9           9
                10          10
                11          11
                12          12
                13          13
                14          14
                15          15
                16          16
                17          17
                18          18
                19          19
                20          20
                21          21
                22          22
                23          23
                24          24
                25          25
                26          26
                27          27
                28          28
                29          29
                30          30
                31          31
                32          32
                33          33
                34          34
                35          35
                36          36
                37          37
                38          38
                39          39
                40          40
                41          41
                42          42
                43          43
                44          44
                45          45
                46          46
                47          47
                48          48
                49          49
                50          50
                51          51
                52          52
                53          53
                54          54
                55          55
                56          56
                57          57
                58          58
                59          59
                60          60
                61          61
                62          62
                63          63
                64          64
                65          65
                66          66
                67          67
                68          68
                69          69
                70          70
                71          71
                72          72
                73          73
                74          74
                75          75
                76          76
                77          77
                78          78
                79          79
                80          80
                81          81
                82          82
                83          83
                84          84
                85          85
                86          86
                87          87
                88          88
                89          89
                90          90
                91          91
                92          92
                93          93
                94          94
                95          95
                96          96
                97          97
                98          98
                99          99
               100         100
               101         101
               102         102
               103         103
               104         104
               105         105
               106         106
               107         107
               108         108
               109         109
               110         110
               111         111
               112         112
               113         113
               114         114
               115         115
               116         116
               117         117
               118         118
               119         119
               120         120
               121         121
               122         122
               123         123
               124         124
               125         125
               126         126
               127         127
               128         128
               129         129
               130         130
               131         131
               132         132
               133         133
               134         134
               135         135
               136         136
               137         137
               138         138
               139         139
               140         140
               141         141
               142         142
               143         143
               144         144
               145         145
               146         146
               147         147
               148         148
               149         149
               150         150
               151         151
               152         152
               153         153
               154         154
               155         155
               156         156
               157         157
               158         158
               159         159
               160         160
               161         161
               162         162
               163         163
               164         164
               165         165
               166         166
               167         167
               168         168
               169         169
               170         170
               171         171
               172         172
               173         173
               174         174
               175         175
               176         176
               177         177
               178         178
               179         179
               180         180
               181         181
               182         182
               183         183
               184         184
               185         185
               186         186
               187         187
               188         188
               189         189
               190         190
               191         191
               192         192
               193         193
               194         194
               195         195
               196         196
               197         197
               198         198
               199         199
               200         200
               201         201
               202         202
               203         203
               204         204
               205         205
               206         206
               207         207
               208         208
               209         209
               210         210
               211         211
               212         212
               213         213
               214         214
               215         215
               216         216
               217         217
               218         218
               219         219
               220         220
               221         221
               222         222
               223         223
               224         224
               225         225
               226         226
               227         227
               228         228
               229         229
               230         230
               231         231
               232         232
               233         233
               234         234
               235         235
               236         236
               237         237
               238         238
               239         239
               240         240
               241         241
               242         242
               243         243
               244         244
               245         245
               246         246
               247         247
               248         248
               249         249
               250         250
               251         251
               252         252
               253         253
               254         254
               255         255
               256         256
               257         257
               258         258
               259         259
               260         260
               261         261
               262         262
               263         263
               264         264
               265         265
               266         266
               267         267
               268         268
               269         269
               270         270
               271         271
               272         272
               273         273
               274         274
               275         275
               276         276
               277         277
               278         278
               279         279
               280         280
               281         281
               282         282
               283         283
               284         284
               285         285
               286         286
               287         287
               288         288
               289         289
               290         290
               291         291
               292         292
               293         293
               294         294
               295         295
               296         296
               297         297
               298         298
               299         299
               300         300
               301         301
               302         302
               303         303
               304         304
               305         305
               306         306
               307         307
               308         308
               309         309
               310         310
               311         311
               312         312
               313         313
               314         314
               315         315
               316         316
               317         317
               318         318
               319         319
               320         320
               321         321
               322         322
               323         323
               324         324
               325         325

----------------------------------------------------------------------------------------

 
 
 KPOINTS: Automatic Mesh                          

Automatic generation of k-mesh.
 Grid dimensions read from file:
 generate k-points for:    3    3    1

 Generating k-lattice:

  Cartesian coordinates                     Fractional coordinates (reciprocal lattice)
     0.018456177  0.000005026 -0.000000000     0.333333333  0.000000000  0.000000000
     0.000000000  0.018454135  0.000000000     0.000000000  0.333333333  0.000000000
     0.000000000 -0.000000000  0.016003201     0.000000000  0.000000000  1.000000000

  Length of vectors
     0.018456178  0.018454135  0.016003201

  Shift w.r.t. Gamma in fractional coordinates (k-lattice)
     0.000000000  0.000000000  0.000000000

 
 Subroutine IBZKPT returns following result:
 ===========================================
 
 Found      5 irreducible k-points:
 
 Following reciprocal coordinates:
            Coordinates               Weight
  0.000000  0.000000  0.000000      1.000000
  0.333333  0.000000  0.000000      2.000000
  0.000000  0.333333  0.000000      2.000000
  0.333333  0.333333  0.000000      2.000000
 -0.333333  0.333333  0.000000      2.000000
 
 Following cartesian coordinates:
            Coordinates               Weight
  0.000000  0.000000  0.000000      1.000000
  0.018456  0.000005  0.000000      2.000000
  0.000000  0.018454  0.000000      2.000000
  0.018456  0.018459  0.000000      2.000000
 -0.018456  0.018449  0.000000      2.000000
 


--------------------------------------------------------------------------------------------------------




 Dimension of arrays:
   k-points           NKPTS =      5   k-points in BZ     NKDIM =      5   number of bands    NBANDS=    732
   number of dos      NEDOS =    301   number of ions     NIONS =    325
   non local maximal  LDIM  =      5   non local SUM 2l+1 LMDIM =     13
   total plane-waves  NPLWV = ******
   max r-space proj   IRMAX =   3336   max aug-charges    IRDMAX=  19845
   dimension x,y,z NGX =   100 NGY =  100 NGZ =  350
   dimension x,y,z NGXF=   200 NGYF=  200 NGZF=  700
   support grid    NGXF=   200 NGYF=  200 NGZF=  700
   ions per type =             143  39  47  72  24
   NGX,Y,Z   is equivalent  to a cutoff of   9.20,  9.20,  9.31 a.u.
   NGXF,Y,Z  is equivalent  to a cutoff of  18.41, 18.41, 18.62 a.u.

 SYSTEM =  PSC                                     
 POSCAR =   H  C  N  I Pb                          

 Startparameter for this run:
   NWRITE =      2    write-flag & timer
   PREC   = normal    normal or accurate (medium, high low for compatibility)
   ISTART =      0    job   : 0-new  1-cont  2-samecut
   ICHARG =      1    charge: 1-file 2-atom 10-const
   ISPIN  =      1    spin polarized calculation?
   LNONCOLLINEAR =      F non collinear calculations
   LSORBIT =      F    spin-orbit coupling
   INIWAV =      1    electr: 0-lowe 1-rand  2-diag
   LASPH  =      F    aspherical Exc in radial PAW
 Electronic Relaxation 1
   ENCUT  =  500.0 eV  36.75 Ry    6.06 a.u.  32.93 32.93113.93*2*pi/ulx,y,z
   ENINI  =  500.0     initial cutoff
   ENAUG  =  644.9 eV  augmentation charge cutoff
   NELM   =    600;   NELMIN=  2; NELMDL=  0     # of ELM steps 
   EDIFF  = 0.1E-03   stopping-criterion for ELM
   LREAL  =      T    real-space projection
   NLSPLINE    = F    spline interpolate recip. space projectors
   LCOMPAT=      F    compatible to vasp.4.4
   GGA_COMPAT  = F    GGA compatible to vasp.4.4-vasp.4.6
   LMAXPAW     = -100 max onsite density
   LMAXMIX     =    2 max onsite mixed and CHGCAR
   VOSKOWN=      0    Vosko Wilk Nusair interpolation
   ROPT   =   -0.00050  -0.00050  -0.00050  -0.00050
   ROPT   =   -0.00050
 Ionic relaxation
   EDIFFG = 0.1E-02   stopping-criterion for IOM
   NSW    =      0    number of steps for IOM
   NBLOCK =      1;   KBLOCK =      1    inner block; outer block 
   IBRION =     -1    ionic relax: 0-MD 1-quasi-New 2-CG
   NFREE  =      0    steps in history (QN), initial steepest desc. (CG)
   ISIF   =      2    stress and relaxation
   IWAVPR =     10    prediction:  0-non 1-charg 2-wave 3-comb
   ISYM   =      0    0-nonsym 1-usesym 2-fastsym
   LCORR  =      T    Harris-Foulkes like correction to forces

   POTIM  = 0.5000    time-step for ionic-motion
   TEIN   =    0.0    initial temperature
   TEBEG  =    0.0;   TEEND  =   0.0 temperature during run
   SMASS  =  -3.00    Nose mass-parameter (am)
   estimated Nose-frequenzy (Omega)   =  0.10E-29 period in steps = 0.13E+47 mass=  -0.745E-26a.u.
   SCALEE = 1.0000    scale energy and forces
   NPACO  =    256;   APACO  = 16.0  distance and # of slots for P.C.
   PSTRESS=    0.0 pullay stress

  Mass of Ions in am
   POMASS =   1.00 12.01 14.00126.90207.20
  Ionic Valenz
   ZVAL   =   1.00  4.00  5.00  7.00  4.00
  Atomic Wigner-Seitz radii
   RWIGS  =  -1.00 -1.00 -1.00 -1.00 -1.00
  virtual crystal weights 
   VCA    =   1.00  1.00  1.00  1.00  1.00
   NELECT =    1134.0000    total number of electrons
   NUPDOWN=      -1.0000    fix difference up-down

 DOS related values:
   EMIN   =  10.00;   EMAX   =-10.00  energy-range for DOS
   EFERMI =   0.00
   ISMEAR =     0;   SIGMA  =   0.05  broadening in eV -4-tet -1-fermi 0-gaus

 Electronic relaxation 2 (details)
   IALGO  =     38    algorithm
   LDIAG  =      T    sub-space diagonalisation (order eigenvalues)
   LSUBROT=      F    optimize rotation matrix (better conditioning)
   TURBO    =      0    0=normal 1=particle mesh
   IRESTART =      0    0=no restart 2=restart with 2 vectors
   NREBOOT  =      0    no. of reboots
   NMIN     =      0    reboot dimension
   EREF     =   0.00    reference energy to select bands
   IMIX   =      4    mixing-type and parameters
     AMIX     =   0.40;   BMIX     =  0.01
     AMIX_MAG =   1.60;   BMIX_MAG =  0.01
     AMIN     =   0.01
     WC   =   100.;   INIMIX=   1;  MIXPRE=   1;  MAXMIX= -45

 Intra band minimization:
   WEIMIN = 0.0000     energy-eigenvalue tresh-hold
   EBREAK =  0.34E-07  absolut break condition
   DEPER  =   0.30     relativ break condition  

   TIME   =   0.40     timestep for ELM

  volume/ion in A,a.u.               =      62.72       423.28
  Fermi-wavevector in a.u.,A,eV,Ry     =   0.624944  1.180972  5.313816  0.390554
  Thomas-Fermi vector in A             =   1.685677
 
 Write flags
   LWAVE        =      F    write WAVECAR
   LDOWNSAMPLE  =      F    k-point downsampling of WAVECAR
   LCHARG       =      T    write CHGCAR
   LVTOT        =      T    write LOCPOT, total local potential
   LVHAR        =      F    write LOCPOT, Hartree potential only
   LELF         =      F    write electronic localiz. function (ELF)
   LORBIT       =      0    0 simple, 1 ext, 2 COOP (PROOUT), +10 PAW based schemes


 Dipole corrections
   LMONO  =      F    monopole corrections only (constant potential shift)
   LDIPOL =      T    correct potential (dipole corrections)
   IDIPOL =      3    1-x, 2-y, 3-z, 4-all directions 
   EPSILON=  1.0000000 bulk dielectric constant

 Exchange correlation treatment:
   GGA     =    --    GGA type
   LEXCH   =     8    internal setting for exchange type
   VOSKOWN=      0    Vosko Wilk Nusair interpolation
   LHFCALC =     F    Hartree Fock is set to
   LHFONE  =     F    Hartree Fock one center treatment
   AEXX    =    0.0000 exact exchange contribution

 Linear response parameters
   LEPSILON=     F    determine dielectric tensor
   LRPA    =     F    only Hartree local field effects (RPA)
   LNABLA  =     F    use nabla operator in PAW spheres
   LVEL    =     F    velocity operator in full k-point grid
   LINTERFAST=   F  fast interpolation
   KINTER  =     0    interpolate to denser k-point grid
   CSHIFT  =0.1000    complex shift for real part using Kramers Kronig
   OMEGAMAX=  -1.0    maximum frequency
   DEG_THRESHOLD= 0.2000000E-02 threshold for treating states as degnerate
   RTIME   =   -0.100 relaxation time in fs
  (WPLASMAI=    0.000 imaginary part of plasma frequency in eV, 0.658/RTIME)
   DFIELD  = 0.0000000 0.0000000 0.0000000 field for delta impulse in time
 
 Orbital magnetization related:
   ORBITALMAG=     F  switch on orbital magnetization
   LCHIMAG   =     F  perturbation theory with respect to B field
   DQ        =  0.001000  dq finite difference perturbation B field
   LLRAUG    =     F  two centre corrections for induced B field



--------------------------------------------------------------------------------------------------------


 Static calculation
 charge density and potential will be updated during run
 non-spin polarized calculation
 Variant of blocked Davidson
 Davidson routine will perform the subspace rotation
 perform sub-space diagonalisation
    after iterative eigenvector-optimisation
 modified Broyden-mixing scheme, WC =      100.0
 initial mixing is a Kerker type mixing with AMIX =  0.4000 and BMIX =      0.0100
 Hartree-type preconditioning will be used
 using additional bands           165
 real space projection scheme for non local part
[...]
     13.54561      0.00000     45.35368         0.001679      0.003457      0.012076
     13.54315      9.03140     45.35368         0.003067     -0.001318      0.011890
     13.01703      8.37206     34.34609        -0.181467     -0.133601      0.257163
     13.44481      9.35897     32.98550         0.224007      0.039783      0.308412
     11.87774     10.11478     35.29418         0.338459      0.318732     -0.705597
     12.55662     11.70876     35.36447         0.141176      0.157513     -0.239960
     15.13994      9.47703     36.32740         0.359129     -0.003694      0.380857
     13.99036     10.70929     36.86987        -0.063723     -0.146744     -0.270538
     15.85917     10.18547     34.20587         0.249196      0.266776     -0.299080
     14.82726     11.31992     33.35365        -0.610873      0.525527     -1.820070
     15.87656      8.86722     33.24240         0.115078     -0.226414     -0.304148
     15.57633      8.22230     34.87598         0.187055      0.060760     -0.368571
     16.03352      6.39677     33.42347         0.476872     -0.380302     -0.297837
     14.39175      6.28832     34.00179        -0.384929     -0.210637      0.180959
     11.31595     10.25575     32.93950         0.393430      0.288189      0.393535
     12.80506     11.19938     32.60950         0.371033      0.032290     -0.443638
     11.50696     12.04808     33.33623         0.032126     -0.763956     -0.117826
     13.18834      8.70595     37.75282        -0.150787     -0.396480      0.027519
     13.46219      7.68553     36.30465         0.069138      0.195506      0.099667
     12.14951      8.90722     36.34037        -0.003084     -0.375293      0.266627
     15.13635     12.30678     35.98351        -0.020498     -0.009961      0.022579
     15.79188     12.95456     34.56371         0.245554     -0.115123     -0.191241
     16.73405     11.70974     35.52128        -0.605045     -0.009793     -0.415728
     15.24445      7.23882     31.23258         0.869127      0.706475     -0.957105
     14.55757      5.68855     31.62526         0.221934     -0.432013     -0.361821
     12.21284      5.92538     33.07647         0.076182      0.393838     -0.518046
     13.78924      8.65467     30.18868         1.333099      0.570040     -0.833148
      9.99666      6.87738     32.77294        -0.304592     -0.116134      0.210111
     11.54504      9.59957     29.88191        -0.240137      1.694489     -1.444522
      9.66296      8.76885     31.18320        -1.730187      0.695851     -0.125791
      0.03498      4.44388     34.80872        -2.796943      2.182710      3.194442
      0.11254     13.75708     34.78812         0.787041     -1.067671      3.462397
      9.01759      4.45303     34.66702        -2.406297      1.938601      1.470074
      8.98293     13.57065     34.81079        -2.431943      3.004720      3.150063
      4.51459      9.10582     34.73666        -2.012275     -1.990147     -0.575453
      4.46817     18.01441     34.74183         2.111030      1.741008     -0.486721
     13.68428     17.95258     34.70831        -1.455642     -2.028763     -0.485486
     18.05378      4.48836     40.51027        -3.077957      3.288998     -3.212240
     18.04686     13.53566     40.58611        -3.259202      3.221614     -3.529486
      9.01880      4.53150     40.59889        -3.936849      4.091730     -2.317376
      8.98993     13.54208     40.58075        -2.428379      2.468036     -0.827474
      4.50335      9.08009     40.59239        -2.262612     -2.691829     -0.919783
      4.51775     18.05691     40.56657         3.908695      3.812906     -1.547815
     13.50010      9.15269     40.61741         3.560232      2.671262      1.620474
     13.54516      0.04133     40.61588         3.511745      3.708188     -1.932028
      9.02897      4.51561     46.44552         0.002123      0.010422      0.038193
      9.02651     13.54701     46.44552        -0.000021      0.014034      0.044491
     18.05937      4.51561     46.44552         0.014848      0.003212      0.030958
     18.05691     13.54701     46.44552         0.029160     -0.013700      0.040488
      4.51521      0.00002     46.44421         0.010965      0.011107      0.042784
      4.51275      9.03142     46.44421        -0.012847     -0.013940      0.049567
     13.54561      0.00002     46.44421         0.007932      0.009476      0.056801
     13.54315      9.03142     46.44421        -0.003941     -0.006372      0.054281
     13.19189      7.20237     31.62732        -1.605716      1.631499     -0.760981
     12.10004      6.72522     32.31498        -1.419458     -0.680561      0.968513
     12.98022      8.25693     30.72344        -2.040363     -0.024593      0.285085
     10.79547      7.26543     32.16031         1.221956     -0.890121      0.484246
     11.70865      8.81215     30.53045        -0.653829     -2.573071      2.524279
     10.58580      8.30129     31.30558         2.782983      0.840681     -1.789753
     13.78685      9.04155     33.98233         2.043678     -2.799156     -2.287132
     12.53606     10.82248     34.73530        -0.525305     -0.837148      0.183001
     14.11152      9.81671     36.24185         0.214640     -1.256232      0.532381
     15.09992     10.95630     34.29120         1.098952     -0.288578      1.609212
     15.17796      8.29839     33.84622        -1.901491     -1.683342      0.310629
     15.03934      6.82041     33.33292        -0.022393      2.666506     -0.896060
     12.00581     11.04054     33.31853        -0.784829      0.669623      0.541978
     13.17181      8.68145     36.66309         0.207805      0.681594      0.086800
     15.74456     12.02299     35.12955        -0.011483      0.148058      0.142628
     14.52763      6.75853     31.84282         1.735756     -2.365185      2.395011
      0.96751      3.69332     35.27404         1.941398     -1.589767     -0.253799
      0.84866     12.73721     35.31020        -1.627870      2.713501     -2.904928
      9.95806      3.78524     35.26630         0.159503     -0.286838     -0.739695
      9.60426     12.78818     35.63832         0.595332     -0.626716     -0.847330
      8.09929      5.24521     35.32187         1.796499     -1.582552     -2.566923
      8.16894     14.58672     35.28463         2.724614     -3.330389     -2.971915
     17.22646      5.12997     35.63963         1.576422     -1.252866     -1.382921
     17.52205     14.62329     35.56365        -0.030046     -0.162077     -2.538661
      3.66188      8.19714     35.25766         3.216453      3.028434      3.182652
      3.55750     17.26767     35.27270         1.556038      1.383789      4.077443
     12.84472     17.05652     35.26967         2.270687      4.021575      2.712710
      5.38543      0.74409     35.34740        -3.700984     -2.895341      2.781533
      5.32057      9.90796     35.35066        -1.598985     -1.799569      3.782997
     14.34535      0.85285     35.26971        -1.929029     -1.404510      4.032999
      0.71507      3.72197     41.18671         3.309968     -3.467953      0.086113
      0.78573     12.79095     41.17810         4.088406     -4.033663      2.994158
      9.78864      3.72856     41.16816         3.602281     -3.761421      0.281775
      9.87412     12.72655     41.05857        -1.617202      1.471894      2.660755
      3.71852      8.16130     41.19650         0.599169      0.874610     -3.880738
      3.69901     17.28621     41.12981        -3.351744     -3.230154     -2.463146
     12.67738      8.38403     41.23358        -0.456038     -0.327251     -0.764199
     12.77922     17.33652     41.25993        -3.376630     -3.580353     -2.217647
      8.17477      5.43373     41.19244         1.396505     -1.543728     -3.631617
      8.13148     14.35058     41.27917         1.603958     -1.472335     -3.858145
     17.17826      5.41263     40.96693         2.624786     -2.791017      0.944731
     17.19705     14.41336     41.11137         0.590575     -0.658436      1.443745
      5.40181      0.83714     41.20002        -1.389556     -1.385081     -3.908742
      5.24703      9.91718     41.20807         2.068206      2.163491     -3.020407
     14.41494      0.94280     41.16111        -1.501939     -1.616913     -3.842985
     14.52817      9.85961     41.21231        -3.884256     -2.728852     -2.177444
      0.82731      3.68697     47.03596         0.016548     -0.025837     -0.082695
      0.82485     12.71837     47.03596         0.010375     -0.010886     -0.092358
      9.85771      3.68697     47.03596         0.027624     -0.027124     -0.087049
      9.85525     12.71837     47.03596         0.030599     -0.026535     -0.086999
      3.68432      8.20234     47.03465        -0.004431     -0.000687     -0.076227
      3.68186     17.23373     47.03465        -0.020928     -0.018061     -0.066784
     12.71472      8.20234     47.03465        -0.010044     -0.006878     -0.081560
     12.71226     17.23373     47.03465        -0.013823     -0.019390     -0.077758
      8.20068      5.34457     47.03603        -0.011241      0.016320     -0.089603
      8.19822     14.37597     47.03603        -0.011143      0.011614     -0.094712
     17.23108      5.34457     47.03603        -0.024448      0.019827     -0.087008
     17.22862     14.37597     47.03603        -0.032957      0.027832     -0.087253
      5.34365      0.82909     47.03465         0.005204      0.002257     -0.069028
      5.34119      9.86049     47.03465         0.018906      0.020551     -0.070595
     14.37405      0.82909     47.03465         0.005903      0.002617     -0.077913
     14.37159      9.86049     47.03465         0.008650      0.018486     -0.076069
     13.95595     10.16723     34.82641        -2.649827      2.323288      0.155280
      8.95006      0.07609     34.50731         0.019174      0.026486      0.057329
      8.84043      9.21519     34.64692         0.005857      0.086661     -0.034783
      0.03352      0.04213     34.48367        -0.059328     -0.020965     -0.007768
      0.22453      9.20812     34.71189         0.643277     -0.032648     -0.090642
      4.56827      4.54856     34.53377        -0.049750     -0.035066     -0.111846
      4.55409     13.50960     34.54651        -0.032067      0.026620     -0.222195
     13.34536      4.29123     34.71730        -0.127717     -0.991746      0.197131
     13.31083     13.77537     34.26730        -0.288975      2.155213      0.007002
     18.02627      0.05307     40.83273         0.071620     -0.007003      0.102749
      0.09395      8.97226     40.94283         0.025825      0.055263      0.119971
      8.98380     18.04204     40.86536         0.093685      0.002460      0.058484
      8.96263      8.99395     40.89597         0.039025      0.043517      0.123101
      4.55406      4.48229     40.89520        -0.063841     -0.021814      0.085708
      4.43320     13.50930     40.86933         0.016039      0.056155      0.049372
     13.57941      4.48768     40.91293        -0.102403      0.067198      0.170028
     13.58407     13.55166     40.88523        -0.050618      0.065547     -0.156618
      2.61915      1.95581     37.98762        -0.244718     -0.168847     -0.060162
      2.60453     10.94075     38.00679         0.069377      0.103453     -0.006259
     11.64881      1.93479     38.00557        -0.123269     -0.188622      0.014389
     11.38456     11.18626     38.18441        -0.047395      0.298932      0.270106
      6.39272      7.05836     37.99953         0.182925      0.250445     -0.014028
      6.46348     16.09704     38.02020        -0.014544      0.012996      0.007941
     15.68413      6.89332     38.16976         0.045446      0.070013     -0.059268
     15.48148     16.15715     38.00666        -0.165048     -0.056667      0.003615
      1.98826      6.41620     38.01117         0.048657      0.071338     -0.047320
      1.96614     15.52602     37.99707         0.023763      0.032761      0.076076
     10.77230      6.26113     37.90370         0.019895      0.018041      0.007958
     10.90896     15.51945     37.98373         0.119868     -0.065845      0.076203
      7.08345      2.59367     38.00176         0.216913     -0.242942     -0.010658
      7.13164     11.57186     38.02023        -0.287648      0.130421      0.063839
     16.08093      2.59634     37.97036         0.092956     -0.274820      0.004236
     16.34542     11.67105     38.18926         0.069011      0.137805      1.209868
      0.00000      0.00000     47.17356        -0.004481     -0.002946      0.363385
     -0.00246      9.03140     47.17356        -0.002747      0.003699      0.497218
      9.03040      0.00000     47.17356         0.004383     -0.003702      0.418964
      9.02794      9.03140     47.17356         0.004536      0.003033      0.443080
      4.51398      4.51570     47.17425         0.000887     -0.001354      0.491302
      4.51152     13.54710     47.17425        -0.000699     -0.000571      0.441617
     13.54438      4.51570     47.17425        -0.001116     -0.000473      0.469221
     13.54192     13.54710     47.17425         0.000019     -0.000036      0.302676
      2.45192      2.06295     44.04013        -0.035418     -0.046241     -0.041106
      2.44946     11.09435     44.04013        -0.014595      0.031149     -0.032872
     11.48232      2.06295     44.04013        -0.007924     -0.006303     -0.053354
     11.47986     11.09435     44.04013         0.007342      0.044759     -0.065227
      6.57602      6.96845     44.04013        -0.018268      0.069970      0.043054
      6.57356     15.99985     44.04013        -0.048203      0.040933      0.029635
     15.60642      6.96845     44.04013        -0.016522      0.009925     -0.048406
     15.60396     15.99985     44.04013        -0.032338     -0.010559     -0.025223
      2.06108      6.57881     44.04000        -0.031668     -0.022383      0.019486
      2.05862     15.61021     44.04000        -0.012067      0.018719     -0.052915
     11.09148      6.57881     44.04000         0.009537      0.014989     -0.050791
     11.08902     15.61021     44.04000         0.025741     -0.038375     -0.042939
      6.96686      2.45259     44.04007         0.070312      0.001429      0.031726
      6.96440     11.48399     44.04007         0.027536      0.019533     -0.022605
     15.99726      2.45259     44.04007         0.045958      0.020704      0.030311
     15.99481     11.48399     44.04007         0.015821      0.077747      0.022715
      2.43163      2.08322     50.06849        -0.004580     -0.025245      0.024912
      2.42917     11.11462     50.06849         0.013891     -0.003910      0.023442
     11.46203      2.08322     50.06849         0.006569     -0.015977      0.023419
     11.45957     11.11462     50.06849         0.025633      0.005166      0.021224
      6.59631      6.94818     50.06849        -0.002341      0.017897      0.024380
      6.59385     15.97958     50.06849        -0.006849      0.011825      0.023834
     15.62671      6.94818     50.06849        -0.014164      0.008514      0.023532
     15.62425     15.97958     50.06849        -0.018998      0.002603      0.021274
      2.08113      6.59901     50.06905        -0.013061     -0.006753      0.025441
      2.07867     15.63041     50.06905        -0.017905     -0.004386      0.024093
     11.11153      6.59901     50.06905        -0.010849     -0.006980      0.022874
     11.10907     15.63041     50.06905         0.002838     -0.022316      0.021977
      6.94681      2.43239     50.06905         0.021086     -0.000475      0.025365
      6.94435     11.46379     50.06905         0.010782      0.011626      0.023794
     15.97721      2.43239     50.06905         0.017411      0.000095      0.022863
     15.97475     11.46379     50.06905        -0.009864      0.029983      0.022081
     18.01489     18.02692     37.66885         0.136482      0.361402      0.024188
     -0.00167      9.09442     37.80553         0.130988     -0.237799      0.018470
      9.04037      0.00438     37.65362        -0.215654      0.311367     -0.082307
      9.04774      9.04948     37.71592        -0.190004     -0.318476      0.018252
      4.58433      4.49130     37.67424        -0.181922      0.155479      0.057658
      4.45459     13.54629     37.59497         0.201853     -0.098124      0.273766
     13.50840      4.48560     37.75714        -0.074310      0.220321      0.211912
     13.40870     13.73208     37.80512         0.189099     -0.137440     -0.174219
      0.00001      0.00001     44.04300         0.035622      0.041925     -0.004849
     -0.00245      9.03141     44.04300         0.050782     -0.056344      0.070103
      9.03041      0.00001     44.04300        -0.071398      0.035133     -0.019414
      9.02795      9.03141     44.04300        -0.062302     -0.040522      0.035956
      4.51397      4.51569     44.04275         0.005983      0.012626     -0.096387
      4.51151     13.54709     44.04275         0.003344      0.013551     -0.058346
     13.54437      4.51569     44.04275         0.026043      0.005493      0.009468
     13.54191     13.54709     44.04275        -0.001180     -0.006376      0.236730
      0.00000      0.00000     50.44728         0.014276      0.014689     -0.615843
     -0.00246      9.03140     50.44728         0.011884     -0.016062     -0.652668
      9.03040      0.00000     50.44728        -0.012211      0.016224     -0.631305
      9.02794      9.03140     50.44728        -0.013787     -0.014168     -0.636810
      4.51397      4.51570     50.44728        -0.001064      0.008204     -0.655237
      4.51151     13.54710     50.44728         0.000123     -0.008133     -0.637626
     13.54437      4.51570     50.44728        -0.000197      0.008803     -0.643829
     13.54191     13.54710     50.44728         0.000902     -0.008483     -0.595359
 -----------------------------------------------------------------------------------
    total drift:                                0.005831     -0.051890      0.506323


--------------------------------------------------------------------------------------------------------



  FREE ENERGIE OF THE ION-ELECTRON SYSTEM (eV)
  ---------------------------------------------------
  free  energy   TOTEN  =     -1565.43295385 eV

  energy  without entropy=    -1565.43295385  energy(sigma->0) =    -1565.43295385
 


--------------------------------------------------------------------------------------------------------


    POTLOK:  cpu time    0.5022: real time    0.5021


--------------------------------------------------------------------------------------------------------


     LOOP+:  cpu time  342.9417: real time  343.1324
 vacuum level on the upper side and lower side of the slab         2.431         1.436
    4ORBIT:  cpu time    0.0000: real time    0.0000

 total amount of memory used by VASP MPI-rank0  8653572. kBytes
=======================================================================

   base      :      30000. kBytes
   nonlr-proj:      53610. kBytes
   fftplans  :     249280. kBytes
   grid      :     701440. kBytes
   one-center:       2636. kBytes
   wavefun   :    7616606. kBytes
 
  
  
 General timing and accounting informations for this job:
 ========================================================
  
                  Total CPU time used (sec):      554.493
                            User time (sec):      442.999
                          System time (sec):      111.495
                         Elapsed time (sec):      556.837
  
                   Maximum memory used (kb):    10368832.
                   Average memory used (kb):          N/A
  
                          Minor page faults:      3879754
                          Major page faults:           12
                 Voluntary context switches:        11768
