<?xml version="1.0" encoding="ISO-8859-1"?>
<modeling>
 <generator>
  <i name="program" type="string">vasp </i>
  <i name="version" type="string">6.2.1  </i>
  <i name="subversion" type="string">16May21 (build Nov 15 2021 14:57:28) complex                          parallel </i>
  <i name="platform" type="string">LinuxPGI </i>
  <i name="date" type="string">2023 07 30 </i>
  <i name="time" type="string">16:22:56 </i>
 </generator>
 <incar>
  <i type="string" name="SYSTEM">PSC</i>
  <i type="int" name="ISTART">     1</i>
  <i type="string" name="PREC">Normal</i>
  <i name="BMIX">      0.01000000</i>
  <i name="AMIN">      0.01000000</i>
  <i type="int" name="ICHARG">     1</i>
  <i type="int" name="NELM">   600</i>
  <i type="int" name="ISYM">     0</i>
  <i name="ENCUT">    500.00000000</i>
  <i type="string" name="LREAL">Auto</i>
  <i type="int" name="ISMEAR">     0</i>
  <i name="SIGMA">      0.05000000</i>
  <i type="logical" name="LWAVE"> F  </i>
  <i type="logical" name="LVTOT"> T  </i>
  <i type="logical" name="GGA_COMPAT"> F  </i>
  <i type="logical" name="LDIPOL"> T  </i>
  <i type="int" name="IDIPOL">     3</i>
  <i type="int" name="IVDW">    12</i>
 </incar>
 <primitive_cell>
  <structure name="primitive_cell" >
   <crystal>
    <varray name="basis" >
     <v>      18.06080055       0.00000000       0.00000000 </v>
     <v>      -0.00491865      18.06279945       0.00000000 </v>
     <v>       0.00000000       0.00000000      62.48749924 </v>
    </varray>
    <i name="volume">  20385.21054034 </i>
    <varray name="rec_basis" >
     <v>       0.05536853       0.00001508      -0.00000000 </v>
     <v>       0.00000000       0.05536240       0.00000000 </v>
     <v>       0.00000000      -0.00000000       0.01600320 </v>
    </varray>
   </crystal>
   <varray name="positions" >
    <v>       0.45037318       0.29825090       0.58111538 </v>
    <v>       0.44501482       0.81394575       0.58000089 </v>
    <v>       0.95509750       0.27979427       0.58683722 </v>
    <v>       0.96859684       0.80445911       0.58499750 </v>
    <v>       0.30081966       0.04575390       0.58257941 </v>
    <v>       0.29895776       0.54968343       0.58269577 </v>
    <v>       0.79042061       0.05814855       0.58110292 </v>
    <v>       0.08990439       0.17611435       0.55437602 </v>
    <v>       0.07579819       0.67229902       0.55516017 </v>
    <v>       0.58813342       0.18099549       0.55501842 </v>
    <v>       0.56176636       0.66617860       0.56365064 </v>
    <v>       0.33361528       0.06969165       0.55781317 </v>
    <v>       0.32605812       0.58203073       0.55810699 </v>
    <v>       0.82570383       0.07927639       0.55638606 </v>
    <v>       0.06516343       0.19447718       0.58050344 </v>
    <v>       0.05221738       0.69899660       0.58055362 </v>
    <v>       0.56061165       0.21207253       0.58044025 </v>
    <v>       0.52942930       0.71034811       0.58651953 </v>
    <v>       0.19809108       0.44582465       0.58099005 </v>
    <v>       0.18990654       0.95205558       0.58131805 </v>
    <v>       0.70040630       0.94532962       0.58104316 </v>
    <v>       0.40793196       0.31491150       0.55626580 </v>
    <v>       0.42677294       0.84003722       0.55431082 </v>
    <v>       0.91257627       0.31619047       0.56427277 </v>
    <v>       0.93671342       0.84904334       0.56185957 </v>
    <v>       0.17194975       0.42337828       0.55546516 </v>
    <v>       0.16424444       0.92720492       0.55591283 </v>
    <v>       0.68754762       0.90609820       0.55622899 </v>
    <v>       0.49269864       0.24449336       0.53741651 </v>
    <v>       0.50364508       0.74395780       0.54055728 </v>
    <v>       0.99321480       0.25382269       0.54048732 </v>
    <v>       0.00121120       0.76699307       0.54004680 </v>
    <v>       0.24781937       0.50584555       0.53845828 </v>
    <v>       0.25051879       0.99715248       0.53852885 </v>
    <v>       0.76667427       0.98757015       0.53825060 </v>
    <v>       0.45056346       0.30416289       0.67474635 </v>
    <v>       0.45044218       0.79318153       0.67613804 </v>
    <v>       0.94385644       0.30699367       0.67153336 </v>
    <v>       0.94533357       0.80429396       0.67443769 </v>
    <v>       0.30041601       0.04839905       0.67486881 </v>
    <v>       0.29739418       0.55107470       0.67487870 </v>
    <v>       0.80237182       0.05765593       0.67412293 </v>
    <v>       0.81361925       0.54339359       0.67490495 </v>
    <v>       0.07625494       0.16740882       0.65128645 </v>
    <v>       0.08017599       0.67204221       0.65042520 </v>
    <v>       0.57601905       0.16986367       0.64924698 </v>
    <v>       0.57534064       0.67496277       0.64726655 </v>
    <v>       0.17176468       0.41952862       0.64948360 </v>
    <v>       0.16951543       0.92262192       0.64787073 </v>
    <v>       0.66412801       0.43997704       0.65064845 </v>
    <v>       0.67193122       0.92233069       0.65103555 </v>
    <v>       0.04055778       0.20502484       0.67499963 </v>
    <v>       0.04938386       0.70205797       0.67598890 </v>
    <v>       0.55016537       0.20046081       0.67480910 </v>
    <v>       0.55188937       0.69628449       0.67327956 </v>
    <v>       0.20212039       0.44898945       0.67475233 </v>
    <v>       0.19790932       0.95056587       0.67361825 </v>
    <v>       0.69886518       0.45236517       0.67539662 </v>
    <v>       0.70341956       0.95625627       0.67584770 </v>
    <v>       0.42034111       0.33451817       0.64939508 </v>
    <v>       0.41545233       0.82903755       0.65195706 </v>
    <v>       0.92345354       0.32916915       0.64527427 </v>
    <v>       0.91811129       0.82699576       0.64838927 </v>
    <v>       0.33380808       0.07893692       0.64987534 </v>
    <v>       0.32515888       0.58399724       0.64977517 </v>
    <v>       0.82792714       0.08497532       0.64809264 </v>
    <v>       0.83545020       0.57638703       0.65022972 </v>
    <v>       0.00447104       0.24373801       0.63022688 </v>
    <v>       0.99680352       0.74768807       0.63126676 </v>
    <v>       0.49833021       0.25172680       0.63155002 </v>
    <v>       0.49248234       0.75571353       0.63143770 </v>
    <v>       0.25336549       0.00283028       0.63111421 </v>
    <v>       0.24779847       0.50183303       0.63166217 </v>
    <v>       0.74945993       0.00225631       0.63186124 </v>
    <v>       0.74231991       0.51708914       0.63315765 </v>
    <v>       0.44874502       0.30128397       0.76888902 </v>
    <v>       0.44874501       0.80128391       0.76888902 </v>
    <v>       0.94874497       0.30128397       0.76888902 </v>
    <v>       0.94874501       0.80128391       0.76888902 </v>
    <v>       0.30127600       0.05129450       0.76887296 </v>
    <v>       0.30127601       0.55129450       0.76887296 </v>
    <v>       0.80127594       0.05129450       0.76887296 </v>
    <v>       0.80127598       0.55129450       0.76887296 </v>
    <v>       0.07877100       0.17118050       0.74344197 </v>
    <v>       0.07877101       0.67118045       0.74344197 </v>
    <v>       0.57877100       0.17118050       0.74344197 </v>
    <v>       0.57877099       0.67118045       0.74344197 </v>
    <v>       0.17119950       0.42117448       0.74342103 </v>
    <v>       0.17119950       0.92117451       0.74342103 </v>
    <v>       0.67119951       0.42117448       0.74342103 </v>
    <v>       0.67119950       0.92117451       0.74342103 </v>
    <v>       0.05125600       0.19871499       0.76888902 </v>
    <v>       0.05125600       0.69871493       0.76888902 </v>
    <v>       0.55125603       0.19871499       0.76888902 </v>
    <v>       0.55125602       0.69871493       0.76888902 </v>
    <v>       0.19872349       0.44870397       0.76887205 </v>
    <v>       0.19872349       0.94870397       0.76887205 </v>
    <v>       0.69872352       0.44870397       0.76887205 </v>
    <v>       0.69872351       0.94870397       0.76887205 </v>
    <v>       0.42123152       0.32881747       0.74344197 </v>
    <v>       0.42123151       0.82881744       0.74344197 </v>
    <v>       0.92123147       0.32881747       0.74344197 </v>
    <v>       0.92123151       0.82881744       0.74344197 </v>
    <v>       0.32880050       0.07882500       0.74342103 </v>
    <v>       0.32880049       0.57882496       0.74342103 </v>
    <v>       0.82880048       0.07882500       0.74342103 </v>
    <v>       0.82880052       0.57882496       0.74342103 </v>
    <v>       0.00000350       0.25000148       0.72582199 </v>
    <v>       0.00000350       0.75000145       0.72582199 </v>
    <v>       0.50000351       0.25000148       0.72582199 </v>
    <v>       0.50000350       0.75000145       0.72582199 </v>
    <v>       0.25000050       0.00000000       0.72580398 </v>
    <v>       0.25000052       0.50000000       0.72580398 </v>
    <v>       0.75000050       0.00000000       0.72580398 </v>
    <v>       0.75000049       0.50000000       0.72580398 </v>
    <v>       0.72085994       0.46349762       0.54964741 </v>
    <v>       0.74456075       0.51813532       0.52787353 </v>
    <v>       0.65780562       0.55997830       0.56481988 </v>
    <v>       0.69541828       0.64822533       0.56594468 </v>
    <v>       0.83841914       0.52467099       0.58135474 </v>
    <v>       0.77478711       0.59289223       0.59003586 </v>
    <v>       0.87825236       0.56389193       0.54740337 </v>
    <v>       0.82113413       0.62669775       0.53376515 </v>
    <v>       0.87919525       0.49091061       0.53198482 </v>
    <v>       0.86256239       0.45520616       0.55812732 </v>
    <v>       0.88784910       0.35414046       0.53488243 </v>
    <v>       0.79694489       0.34813678       0.54413752 </v>
    <v>       0.62670218       0.56778285       0.52713748 </v>
    <v>       0.70916630       0.62002470       0.52185633 </v>
    <v>       0.63730539       0.66701064       0.53348634 </v>
    <v>       0.73035034       0.48198226       0.60416601 </v>
    <v>       0.74549760       0.42548964       0.58099066 </v>
    <v>       0.67283500       0.49312537       0.58156224 </v>
    <v>       0.83826290       0.68133287       0.57585132 </v>
    <v>       0.87456845       0.71719544       0.55312998 </v>
    <v>       0.92671636       0.64827913       0.56845415 </v>
    <v>       0.84417172       0.40075824       0.49982122 </v>
    <v>       0.80611701       0.31493199       0.50610538 </v>
    <v>       0.67629651       0.32804308       0.52932944 </v>
    <v>       0.76362055       0.47914332       0.48311549 </v>
    <v>       0.55360409       0.38074807       0.52447191 </v>
    <v>       0.63937639       0.53145545       0.47820627 </v>
    <v>       0.53515591       0.48546448       0.49903093 </v>
    <v>       0.00200394       0.24602373       0.55705093 </v>
    <v>       0.00643866       0.76162481       0.55672128 </v>
    <v>       0.49935778       0.24653027       0.55478327 </v>
    <v>       0.49757615       0.75130371       0.55708408 </v>
    <v>       0.25010336       0.50412012       0.55589781 </v>
    <v>       0.24766744       0.99732097       0.55598053 </v>
    <v>       0.75794926       0.99389791       0.55544404 </v>
    <v>       0.99967914       0.24848640       0.64829391 </v>
    <v>       0.99943225       0.74936640       0.64950766 </v>
    <v>       0.49942597       0.25087475       0.64971223 </v>
    <v>       0.49796320       0.74972210       0.64942188 </v>
    <v>       0.24948100       0.50269564       0.64960820 </v>
    <v>       0.25041371       0.99967387       0.64919497 </v>
    <v>       0.74761898       0.50671492       0.65000855 </v>
    <v>       0.74997625       0.00228796       0.64998401 </v>
    <v>       0.49998898       0.24999498       0.74327702 </v>
    <v>       0.49998903       0.74999496       0.74327702 </v>
    <v>       0.99998898       0.24999498       0.74327702 </v>
    <v>       0.99998903       0.74999496       0.74327702 </v>
    <v>       0.25000050       0.00000100       0.74325596 </v>
    <v>       0.25000052       0.50000100       0.74325596 </v>
    <v>       0.75000050       0.00000100       0.74325596 </v>
    <v>       0.75000049       0.50000100       0.74325596 </v>
    <v>       0.73052415       0.39874053       0.50613834 </v>
    <v>       0.67006265       0.37232462       0.51714317 </v>
    <v>       0.71882009       0.45712341       0.49167332 </v>
    <v>       0.59783872       0.40223154       0.51466782 </v>
    <v>       0.64842365       0.48786154       0.48858500 </v>
    <v>       0.58624526       0.45957913       0.50098946 </v>
    <v>       0.76349390       0.50056171       0.54382612 </v>
    <v>       0.69426653       0.59915863       0.55587595 </v>
    <v>       0.78148192       0.54347680       0.57998563 </v>
    <v>       0.83622549       0.60656709       0.54876900 </v>
    <v>       0.84050670       0.45941879       0.54164789 </v>
    <v>       0.83280905       0.37759415       0.53343335 </v>
    <v>       0.66491036       0.61123077       0.53320308 </v>
    <v>       0.72943441       0.48062583       0.58672679 </v>
    <v>       0.87193461       0.66562154       0.56218526 </v>
    <v>       0.80447564       0.37416842       0.50958706 </v>
    <v>       0.05362541       0.20447105       0.56449755 </v>
    <v>       0.04718107       0.70516279       0.56507628 </v>
    <v>       0.55142024       0.20955992       0.56437368 </v>
    <v>       0.53196676       0.70798451       0.57032721 </v>
    <v>       0.44852487       0.29038763       0.56526302 </v>
    <v>       0.45252190       0.80755581       0.56466696 </v>
    <v>       0.95388100       0.28400774       0.57034821 </v>
    <v>       0.97039038       0.80958039       0.56913220 </v>
    <v>       0.20287647       0.45381347       0.56423541 </v>
    <v>       0.19723394       0.95597992       0.56447606 </v>
    <v>       0.71145030       0.94429009       0.56442765 </v>
    <v>       0.29819472       0.04119457       0.56567149 </v>
    <v>       0.29474129       0.54852853       0.56572369 </v>
    <v>       0.79429404       0.04721582       0.56442820 </v>
    <v>       0.03964836       0.20605733       0.65911926 </v>
    <v>       0.04369771       0.70813768       0.65898147 </v>
    <v>       0.54203894       0.20642182       0.65882232 </v>
    <v>       0.54690739       0.70457214       0.65706856 </v>
    <v>       0.20601230       0.45182944       0.65927591 </v>
    <v>       0.20506917       0.95700630       0.65820868 </v>
    <v>       0.70205446       0.46416013       0.65986923 </v>
    <v>       0.70782830       0.95979166       0.66029094 </v>
    <v>       0.45270701       0.30082452       0.65921095 </v>
    <v>       0.45044422       0.79448267       0.66059892 </v>
    <v>       0.95121663       0.29965648       0.65560201 </v>
    <v>       0.95239292       0.79795829       0.65791351 </v>
    <v>       0.29910305       0.04634629       0.65933219 </v>
    <v>       0.29067012       0.54903914       0.65946106 </v>
    <v>       0.79814842       0.05219590       0.65870951 </v>
    <v>       0.80455202       0.54585195       0.65952895 </v>
    <v>       0.04586250       0.20411950       0.75272599 </v>
    <v>       0.04586250       0.70411946       0.75272599 </v>
    <v>       0.54586251       0.20411950       0.75272599 </v>
    <v>       0.54586250       0.70411946       0.75272599 </v>
    <v>       0.20411900       0.45410100       0.75270499 </v>
    <v>       0.20411899       0.95410095       0.75270499 </v>
    <v>       0.70411898       0.45410100       0.75270499 </v>
    <v>       0.70411896       0.95410095       0.75270499 </v>
    <v>       0.45414002       0.29588849       0.75272697 </v>
    <v>       0.45414001       0.79588852       0.75272697 </v>
    <v>       0.95414002       0.29588849       0.75272697 </v>
    <v>       0.95414006       0.79588852       0.75272697 </v>
    <v>       0.29588249       0.04590050       0.75270499 </v>
    <v>       0.29588248       0.54590053       0.75270499 </v>
    <v>       0.79588244       0.04590050       0.75270499 </v>
    <v>       0.79588248       0.54590053       0.75270499 </v>
    <v>       0.77287358       0.56288222       0.55733407 </v>
    <v>       0.49555298       0.00421256       0.55222733 </v>
    <v>       0.48962037       0.51017491       0.55446161 </v>
    <v>       0.00185661       0.00233262       0.55184909 </v>
    <v>       0.01257094       0.50978373       0.55550143 </v>
    <v>       0.25300691       0.25181925       0.55265088 </v>
    <v>       0.25235691       0.74792397       0.55285472 </v>
    <v>       0.73897783       0.23757306       0.55558799 </v>
    <v>       0.73720881       0.76263737       0.54838642 </v>
    <v>       0.99808894       0.00293790       0.65345431 </v>
    <v>       0.00533741       0.49672607       0.65521626 </v>
    <v>       0.49769159       0.99885047       0.65397651 </v>
    <v>       0.49638301       0.49792690       0.65446635 </v>
    <v>       0.25221940       0.24815055       0.65445402 </v>
    <v>       0.24566345       0.74790707       0.65404006 </v>
    <v>       0.75193947       0.24844872       0.65473777 </v>
    <v>       0.75233450       0.75025266       0.65429462 </v>
    <v>       0.14504812       0.10827858       0.60792347 </v>
    <v>       0.14437371       0.60570602       0.60823024 </v>
    <v>       0.64500654       0.10711490       0.60821070 </v>
    <v>       0.63051485       0.61929820       0.61107278 </v>
    <v>       0.35406190       0.39076802       0.60811406 </v>
    <v>       0.35811636       0.89117063       0.60844482 </v>
    <v>       0.86851137       0.38163101       0.61083830 </v>
    <v>       0.85743029       0.89449857       0.60822816 </v>
    <v>       0.11018361       0.35521621       0.60830032 </v>
    <v>       0.10909615       0.85955758       0.60807481 </v>
    <v>       0.59654066       0.34663096       0.60658055 </v>
    <v>       0.60424710       0.85919391       0.60786120 </v>
    <v>       0.39223913       0.14359189       0.60814977 </v>
    <v>       0.39504285       0.64064622       0.60844537 </v>
    <v>       0.89041645       0.14373983       0.60764735 </v>
    <v>       0.90519760       0.64613739       0.61115037 </v>
    <v>       0.00000000       0.00000000       0.75492797 </v>
    <v>       0.00000000       0.50000000       0.75492797 </v>
    <v>       0.50000000       0.00000000       0.75492797 </v>
    <v>       0.49999999       0.50000000       0.75492797 </v>
    <v>       0.25000050       0.25000000       0.75493902 </v>
    <v>       0.25000051       0.74999997       0.75493902 </v>
    <v>       0.75000047       0.25000000       0.75493902 </v>
    <v>       0.75000046       0.74999997       0.75493902 </v>
    <v>       0.13579050       0.11421000       0.70478299 </v>
    <v>       0.13579050       0.61420998       0.70478299 </v>
    <v>       0.63579045       0.11421000       0.70478299 </v>
    <v>       0.63579049       0.61420998       0.70478299 </v>
    <v>       0.36420952       0.38578999       0.70478299 </v>
    <v>       0.36420950       0.88578996       0.70478299 </v>
    <v>       0.86420954       0.38578999       0.70478299 </v>
    <v>       0.86420953       0.88578996       0.70478299 </v>
    <v>       0.11421799       0.36421899       0.70478098 </v>
    <v>       0.11421799       0.86421899       0.70478098 </v>
    <v>       0.61421800       0.36421899       0.70478098 </v>
    <v>       0.61421799       0.86421899       0.70478098 </v>
    <v>       0.38578201       0.13578149       0.70478202 </v>
    <v>       0.38578200       0.63578149       0.70478202 </v>
    <v>       0.88578199       0.13578149       0.70478202 </v>
    <v>       0.88578203       0.63578149       0.70478202 </v>
    <v>       0.13466700       0.11533200       0.80125603 </v>
    <v>       0.13466699       0.61533199       0.80125603 </v>
    <v>       0.63466699       0.11533200       0.80125603 </v>
    <v>       0.63466698       0.61533199       0.80125603 </v>
    <v>       0.36533300       0.38466799       0.80125603 </v>
    <v>       0.36533299       0.88466796       0.80125603 </v>
    <v>       0.86533295       0.38466799       0.80125603 </v>
    <v>       0.86533294       0.88466796       0.80125603 </v>
    <v>       0.11532850       0.36533700       0.80126500 </v>
    <v>       0.11532850       0.86533698       0.80126500 </v>
    <v>       0.61532850       0.36533700       0.80126500 </v>
    <v>       0.61532849       0.86533698       0.80126500 </v>
    <v>       0.38467151       0.13466300       0.80126500 </v>
    <v>       0.38467150       0.63466297       0.80126500 </v>
    <v>       0.88467149       0.13466300       0.80126500 </v>
    <v>       0.88467153       0.63466297       0.80126500 </v>
    <v>       0.99772958       0.99801362       0.60282223 </v>
    <v>       0.00004481       0.50348882       0.60500956 </v>
    <v>       0.50055181       0.00024253       0.60257847 </v>
    <v>       0.50109673       0.50100083       0.60357537 </v>
    <v>       0.25389526       0.24864891       0.60290849 </v>
    <v>       0.24684829       0.74995525       0.60163993 </v>
    <v>       0.74800784       0.24833363       0.60423511 </v>
    <v>       0.74262733       0.76024072       0.60500290 </v>
    <v>       0.00000050       0.00000050       0.70482896 </v>
    <v>       0.00000050       0.50000048       0.70482896 </v>
    <v>       0.50000048       0.00000050       0.70482896 </v>
    <v>       0.50000046       0.50000048       0.70482896 </v>
    <v>       0.24999999       0.24999947       0.70482499 </v>
    <v>       0.25000001       0.74999950       0.70482499 </v>
    <v>       0.74999999       0.24999947       0.70482499 </v>
    <v>       0.74999998       0.74999950       0.70482499 </v>
    <v>       0.00000000       0.00000000       0.80731797 </v>
    <v>       0.00000000       0.50000000       0.80731797 </v>
    <v>       0.50000000       0.00000000       0.80731797 </v>
    <v>       0.49999999       0.50000000       0.80731797 </v>
    <v>       0.24999999       0.25000000       0.80731797 </v>
    <v>       0.25000001       0.74999997       0.80731797 </v>
    <v>       0.74999999       0.25000000       0.80731797 </v>
    <v>       0.74999998       0.74999997       0.80731797 </v>
   </varray>
  </structure>
  <varray name="primitive_index" >
   <v type="int" >        1 </v>
   <v type="int" >        2 </v>
   <v type="int" >        3 </v>
   <v type="int" >        4 </v>
   <v type="int" >        5 </v>
   <v type="int" >        6 </v>
   <v type="int" >        7 </v>
   <v type="int" >        8 </v>
   <v type="int" >        9 </v>
   <v type="int" >       10 </v>
   <v type="int" >       11 </v>
   <v type="int" >       12 </v>
   <v type="int" >       13 </v>
   <v type="int" >       14 </v>
   <v type="int" >       15 </v>
   <v type="int" >       16 </v>
   <v type="int" >       17 </v>
   <v type="int" >       18 </v>
   <v type="int" >       19 </v>
   <v type="int" >       20 </v>
   <v type="int" >       21 </v>
   <v type="int" >       22 </v>
   <v type="int" >       23 </v>
   <v type="int" >       24 </v>
   <v type="int" >       25 </v>
   <v type="int" >       26 </v>
   <v type="int" >       27 </v>
   <v type="int" >       28 </v>
   <v type="int" >       29 </v>
   <v type="int" >       30 </v>
   <v type="int" >       31 </v>
   <v type="int" >       32 </v>
   <v type="int" >       33 </v>
   <v type="int" >       34 </v>
   <v type="int" >       35 </v>
   <v type="int" >       36 </v>
   <v type="int" >       37 </v>
   <v type="int" >       38 </v>
   <v type="int" >       39 </v>
   <v type="int" >       40 </v>
   <v type="int" >       41 </v>
   <v type="int" >       42 </v>
   <v type="int" >       43 </v>
   <v type="int" >       44 </v>
   <v type="int" >       45 </v>
   <v type="int" >       46 </v>
   <v type="int" >       47 </v>
   <v type="int" >       48 </v>
   <v type="int" >       49 </v>
   <v type="int" >       50 </v>
   <v type="int" >       51 </v>
   <v type="int" >       52 </v>
   <v type="int" >       53 </v>
   <v type="int" >       54 </v>
   <v type="int" >       55 </v>
   <v type="int" >       56 </v>
   <v type="int" >       57 </v>
   <v type="int" >       58 </v>
   <v type="int" >       59 </v>
   <v type="int" >       60 </v>
   <v type="int" >       61 </v>
   <v type="int" >       62 </v>
   <v type="int" >       63 </v>
   <v type="int" >       64 </v>
   <v type="int" >       65 </v>
   <v type="int" >       66 </v>
   <v type="int" >       67 </v>
   <v type="int" >       68 </v>
   <v type="int" >       69 </v>
   <v type="int" >       70 </v>
   <v type="int" >       71 </v>
   <v type="int" >       72 </v>
   <v type="int" >       73 </v>
   <v type="int" >       74 </v>
   <v type="int" >       75 </v>
   <v type="int" >       76 </v>
   <v type="int" >       77 </v>
   <v type="int" >       78 </v>
   <v type="int" >       79 </v>
   <v type="int" >       80 </v>
   <v type="int" >       81 </v>
   <v type="int" >       82 </v>
   <v type="int" >       83 </v>
   <v type="int" >       84 </v>
   <v type="int" >       85 </v>
   <v type="int" >       86 </v>
   <v type="int" >       87 </v>
   <v type="int" >       88 </v>
   <v type="int" >       89 </v>
   <v type="int" >       90 </v>
   <v type="int" >       91 </v>
   <v type="int" >       92 </v>
   <v type="int" >       93 </v>
   <v type="int" >       94 </v>
   <v type="int" >       95 </v>
   <v type="int" >       96 </v>
   <v type="int" >       97 </v>
   <v type="int" >       98 </v>
   <v type="int" >       99 </v>
   <v type="int" >      100 </v>
   <v type="int" >      101 </v>
   <v type="int" >      102 </v>
   <v type="int" >      103 </v>
   <v type="int" >      104 </v>
   <v type="int" >      105 </v>
   <v type="int" >      106 </v>
   <v type="int" >      107 </v>
   <v type="int" >      108 </v>
   <v type="int" >      109 </v>
   <v type="int" >      110 </v>
   <v type="int" >      111 </v>
   <v type="int" >      112 </v>
   <v type="int" >      113 </v>
   <v type="int" >      114 </v>
   <v type="int" >      115 </v>
   <v type="int" >      116 </v>
   <v type="int" >      117 </v>
   <v type="int" >      118 </v>
   <v type="int" >      119 </v>
   <v type="int" >      120 </v>
   <v type="int" >      121 </v>
   <v type="int" >      122 </v>
   <v type="int" >      123 </v>
   <v type="int" >      124 </v>
   <v type="int" >      125 </v>
   <v type="int" >      126 </v>
   <v type="int" >      127 </v>
   <v type="int" >      128 </v>
   <v type="int" >      129 </v>
   <v type="int" >      130 </v>
   <v type="int" >      131 </v>
   <v type="int" >      132 </v>
   <v type="int" >      133 </v>
   <v type="int" >      134 </v>
   <v type="int" >      135 </v>
   <v type="int" >      136 </v>
   <v type="int" >      137 </v>
   <v type="int" >      138 </v>
   <v type="int" >      139 </v>
   <v type="int" >      140 </v>
   <v type="int" >      141 </v>
   <v type="int" >      142 </v>
   <v type="int" >      143 </v>
   <v type="int" >      144 </v>
   <v type="int" >      145 </v>
   <v type="int" >      146 </v>
   <v type="int" >      147 </v>
   <v type="int" >      148 </v>
   <v type="int" >      149 </v>
   <v type="int" >      150 </v>
   <v type="int" >      151 </v>
   <v type="int" >      152 </v>
   <v type="int" >      153 </v>
   <v type="int" >      154 </v>
   <v type="int" >      155 </v>
   <v type="int" >      156 </v>
   <v type="int" >      157 </v>
   <v type="int" >      158 </v>
   <v type="int" >      159 </v>
   <v type="int" >      160 </v>
   <v type="int" >      161 </v>
   <v type="int" >      162 </v>
   <v type="int" >      163 </v>
   <v type="int" >      164 </v>
   <v type="int" >      165 </v>
   <v type="int" >      166 </v>
   <v type="int" >      167 </v>
   <v type="int" >      168 </v>
   <v type="int" >      169 </v>
   <v type="int" >      170 </v>
   <v type="int" >      171 </v>
   <v type="int" >      172 </v>
   <v type="int" >      173 </v>
   <v type="int" >      174 </v>
   <v type="int" >      175 </v>
   <v type="int" >      176 </v>
   <v type="int" >      177 </v>
   <v type="int" >      178 </v>
   <v type="int" >      179 </v>
   <v type="int" >      180 </v>
   <v type="int" >      181 </v>
   <v type="int" >      182 </v>
   <v type="int" >      183 </v>
   <v type="int" >      184 </v>
   <v type="int" >      185 </v>
   <v type="int" >      186 </v>
   <v type="int" >      187 </v>
   <v type="int" >      188 </v>
   <v type="int" >      189 </v>
   <v type="int" >      190 </v>
   <v type="int" >      191 </v>
   <v type="int" >      192 </v>
   <v type="int" >      193 </v>
   <v type="int" >      194 </v>
   <v type="int" >      195 </v>
   <v type="int" >      196 </v>
   <v type="int" >      197 </v>
   <v type="int" >      198 </v>
   <v type="int" >      199 </v>
   <v type="int" >      200 </v>
   <v type="int" >      201 </v>
   <v type="int" >      202 </v>
   <v type="int" >      203 </v>
   <v type="int" >      204 </v>
   <v type="int" >      205 </v>
   <v type="int" >      206 </v>
   <v type="int" >      207 </v>
   <v type="int" >      208 </v>
   <v type="int" >      209 </v>
   <v type="int" >      210 </v>
   <v type="int" >      211 </v>
   <v type="int" >      212 </v>
   <v type="int" >      213 </v>
   <v type="int" >      214 </v>
   <v type="int" >      215 </v>
   <v type="int" >      216 </v>
   <v type="int" >      217 </v>
   <v type="int" >      218 </v>
   <v type="int" >      219 </v>
   <v type="int" >      220 </v>
   <v type="int" >      221 </v>
   <v type="int" >      222 </v>
   <v type="int" >      223 </v>
   <v type="int" >      224 </v>
   <v type="int" >      225 </v>
   <v type="int" >      226 </v>
   <v type="int" >      227 </v>
   <v type="int" >      228 </v>
   <v type="int" >      229 </v>
   <v type="int" >      230 </v>
   <v type="int" >      231 </v>
   <v type="int" >      232 </v>
   <v type="int" >      233 </v>
   <v type="int" >      234 </v>
   <v type="int" >      235 </v>
   <v type="int" >      236 </v>
   <v type="int" >      237 </v>
   <v type="int" >      238 </v>
   <v type="int" >      239 </v>
   <v type="int" >      240 </v>
   <v type="int" >      241 </v>
   <v type="int" >      242 </v>
   <v type="int" >      243 </v>
   <v type="int" >      244 </v>
   <v type="int" >      245 </v>
   <v type="int" >      246 </v>
   <v type="int" >      247 </v>
   <v type="int" >      248 </v>
   <v type="int" >      249 </v>
   <v type="int" >      250 </v>
   <v type="int" >      251 </v>
   <v type="int" >      252 </v>
   <v type="int" >      253 </v>
   <v type="int" >      254 </v>
   <v type="int" >      255 </v>
   <v type="int" >      256 </v>
   <v type="int" >      257 </v>
   <v type="int" >      258 </v>
   <v type="int" >      259 </v>
   <v type="int" >      260 </v>
   <v type="int" >      261 </v>
   <v type="int" >      262 </v>
   <v type="int" >      263 </v>
   <v type="int" >      264 </v>
   <v type="int" >      265 </v>
   <v type="int" >      266 </v>
   <v type="int" >      267 </v>
   <v type="int" >      268 </v>
   <v type="int" >      269 </v>
   <v type="int" >      270 </v>
   <v type="int" >      271 </v>
   <v type="int" >      272 </v>
   <v type="int" >      273 </v>
   <v type="int" >      274 </v>
   <v type="int" >      275 </v>
   <v type="int" >      276 </v>
   <v type="int" >      277 </v>
   <v type="int" >      278 </v>
   <v type="int" >      279 </v>
   <v type="int" >      280 </v>
   <v type="int" >      281 </v>
   <v type="int" >      282 </v>
   <v type="int" >      283 </v>
   <v type="int" >      284 </v>
   <v type="int" >      285 </v>
   <v type="int" >      286 </v>
   <v type="int" >      287 </v>
   <v type="int" >      288 </v>
   <v type="int" >      289 </v>
   <v type="int" >      290 </v>
   <v type="int" >      291 </v>
   <v type="int" >      292 </v>
   <v type="int" >      293 </v>
   <v type="int" >      294 </v>
   <v type="int" >      295 </v>
   <v type="int" >      296 </v>
   <v type="int" >      297 </v>
   <v type="int" >      298 </v>
   <v type="int" >      299 </v>
   <v type="int" >      300 </v>
   <v type="int" >      301 </v>
   <v type="int" >      302 </v>
   <v type="int" >      303 </v>
   <v type="int" >      304 </v>
   <v type="int" >      305 </v>
   <v type="int" >      306 </v>
   <v type="int" >      307 </v>
   <v type="int" >      308 </v>
   <v type="int" >      309 </v>
   <v type="int" >      310 </v>
   <v type="int" >      311 </v>
   <v type="int" >      312 </v>
   <v type="int" >      313 </v>
   <v type="int" >      314 </v>
   <v type="int" >      315 </v>
   <v type="int" >      316 </v>
   <v type="int" >      317 </v>
   <v type="int" >      318 </v>
   <v type="int" >      319 </v>
   <v type="int" >      320 </v>
   <v type="int" >      321 </v>
   <v type="int" >      322 </v>
   <v type="int" >      323 </v>
   <v type="int" >      324 </v>
   <v type="int" >      325 </v>
  </varray>
 </primitive_cell>
 <kpoints>
  <generation param="Gamma">
   <v type="int" name="divisions">       3        3        1 </v>
   <v name="usershift">      0.00000000       0.00000000       0.00000000 </v>
   <v name="genvec1">      0.33333333       0.00000000       0.00000000 </v>
   <v name="genvec2">      0.00000000       0.33333333       0.00000000 </v>
   <v name="genvec3">      0.00000000       0.00000000       1.00000000 </v>
   <v name="shift">      0.00000000       0.00000000       0.00000000 </v>
  </generation>
  <varray name="kpointlist" >
   <v>       0.00000000       0.00000000       0.00000000 </v>
   <v>       0.33333333       0.00000000       0.00000000 </v>
   <v>       0.00000000       0.33333333       0.00000000 </v>
   <v>       0.33333333       0.33333333       0.00000000 </v>
   <v>      -0.33333333       0.33333333       0.00000000 </v>
  </varray>
  <varray name="weights" >
   <v>       0.11111111 </v>
   <v>       0.22222222 </v>
   <v>       0.22222222 </v>
   <v>       0.22222222 </v>
   <v>       0.22222222 </v>
  </varray>
 </kpoints>
 <parameters>
  <separator name="general" >
   <i type="string" name="SYSTEM">PSC</i>
   <i type="logical" name="LCOMPAT"> F  </i>
  </separator>
  <separator name="electronic" >
   <i type="string" name="PREC">normal</i>
   <i name="ENMAX">    500.00000000</i>
   <i name="ENAUG">    644.87300000</i>
   <i name="EDIFF">      0.00010000</i>
   <i type="int" name="IALGO">    38</i>
   <i type="int" name="IWAVPR">    10</i>
   <i type="int" name="NBANDS">   732</i>
   <i type="int" name="NBANDSLOW">    -1</i>
   <i type="int" name="NBANDSHIGH">    -1</i>
   <i name="NELECT">   1134.00000000</i>
   <i type="int" name="TURBO">     0</i>
   <i type="int" name="IRESTART">     0</i>
   <i type="int" name="NREBOOT">     0</i>
   <i type="int" name="NMIN">     0</i>
   <i name="EREF">      0.00000000</i>
   <separator name="electronic smearing" >
    <i type="int" name="ISMEAR">     0</i>
    <i name="SIGMA">      0.05000000</i>
    <i name="KSPACING">      0.50000000</i>
    <i type="logical" name="KGAMMA"> T  </i>
    <i type="logical" name="KBLOWUP"> T  </i>
   </separator>
   <separator name="electronic projectors" >
    <i type="logical" name="LREAL"> T  </i>
    <v name="ROPT">     -0.00050000     -0.00050000     -0.00050000     -0.00050000     -0.00050000</v>
    <i type="int" name="LMAXPAW">  -100</i>
    <i type="int" name="LMAXMIX">     2</i>
    <i type="logical" name="NLSPLINE"> F  </i>
   </separator>
   <separator name="electronic startup" >
    <i type="int" name="ISTART">     0</i>
    <i type="int" name="ICHARG">     1</i>
    <i type="int" name="INIWAV">     1</i>
   </separator>
   <separator name="electronic spin" >
    <i type="int" name="ISPIN">     1</i>
    <i type="logical" name="LNONCOLLINEAR"> F  </i>
    <v name="MAGMOM">      1.00000000      1.00000000      1.00000000      1.00000000      1.00000000      1.00000000      1.00000000      1.00000000      1.00000000      1.00000000      1.00000000      1.00000000      1.00000000      1.00000000      1.00000000      1.00000000      1.00000000      1.00000000      1.00000000      1.00000000
      1.00000000      1.00000000      1.00000000      1.00000000      1.00000000      1.00000000      1.00000000      1.00000000      1.00000000      1.00000000      1.00000000      1.00000000      1.00000000      1.00000000      1.00000000      1.00000000      1.00000000      1.00000000      1.00000000      1.00000000
      1.00000000      1.00000000      1.00000000      1.00000000      1.00000000      1.00000000      1.00000000      1.00000000      1.00000000      1.00000000      1.00000000      1.00000000      1.00000000      1.00000000      1.00000000      1.00000000      1.00000000      1.00000000      1.00000000      1.00000000
      1.00000000      1.00000000      1.00000000      1.00000000      1.00000000      1.00000000      1.00000000      1.00000000      1.00000000      1.00000000      1.00000000      1.00000000      1.00000000      1.00000000      1.00000000      1.00000000      1.00000000      1.00000000      1.00000000      1.00000000
      1.00000000      1.00000000      1.00000000      1.00000000      1.00000000      1.00000000      1.00000000      1.00000000      1.00000000      1.00000000      1.00000000      1.00000000      1.00000000      1.00000000      1.00000000      1.00000000      1.00000000      1.00000000      1.00000000      1.00000000
      1.00000000      1.00000000      1.00000000      1.00000000      1.00000000      1.00000000      1.00000000      1.00000000      1.00000000      1.00000000      1.00000000      1.00000000      1.00000000      1.00000000      1.00000000      1.00000000      1.00000000      1.00000000      1.00000000      1.00000000
      1.00000000      1.00000000      1.00000000      1.00000000      1.00000000      1.00000000      1.00000000      1.00000000      1.00000000      1.00000000      1.00000000      1.00000000      1.00000000      1.00000000      1.00000000      1.00000000      1.00000000      1.00000000      1.00000000      1.00000000
      1.00000000      1.00000000      1.00000000      1.00000000      1.00000000      1.00000000      1.00000000      1.00000000      1.00000000      1.00000000      1.00000000      1.00000000      1.00000000      1.00000000      1.00000000      1.00000000      1.00000000      1.00000000      1.00000000      1.00000000
      1.00000000      1.00000000      1.00000000      1.00000000      1.00000000      1.00000000      1.00000000      1.00000000      1.00000000      1.00000000      1.00000000      1.00000000      1.00000000      1.00000000      1.00000000      1.00000000      1.00000000      1.00000000      1.00000000      1.00000000
      1.00000000      1.00000000      1.00000000      1.00000000      1.00000000      1.00000000      1.00000000      1.00000000      1.00000000      1.00000000      1.00000000      1.00000000      1.00000000      1.00000000      1.00000000      1.00000000      1.00000000      1.00000000      1.00000000      1.00000000
      1.00000000      1.00000000      1.00000000      1.00000000      1.00000000      1.00000000      1.00000000      1.00000000      1.00000000      1.00000000      1.00000000      1.00000000      1.00000000      1.00000000      1.00000000      1.00000000      1.00000000      1.00000000      1.00000000      1.00000000
      1.00000000      1.00000000      1.00000000      1.00000000      1.00000000      1.00000000      1.00000000      1.00000000      1.00000000      1.00000000      1.00000000      1.00000000      1.00000000      1.00000000      1.00000000      1.00000000      1.00000000      1.00000000      1.00000000      1.00000000
      1.00000000      1.00000000      1.00000000      1.00000000      1.00000000      1.00000000      1.00000000      1.00000000      1.00000000      1.00000000      1.00000000      1.00000000      1.00000000      1.00000000      1.00000000      1.00000000      1.00000000      1.00000000      1.00000000      1.00000000
      1.00000000      1.00000000      1.00000000      1.00000000      1.00000000      1.00000000      1.00000000      1.00000000      1.00000000      1.00000000      1.00000000      1.00000000      1.00000000      1.00000000      1.00000000      1.00000000      1.00000000      1.00000000      1.00000000      1.00000000
      1.00000000      1.00000000      1.00000000      1.00000000      1.00000000      1.00000000      1.00000000      1.00000000      1.00000000      1.00000000      1.00000000      1.00000000      1.00000000      1.00000000      1.00000000      1.00000000      1.00000000      1.00000000      1.00000000      1.00000000
      1.00000000      1.00000000      1.00000000      1.00000000      1.00000000      1.00000000      1.00000000      1.00000000      1.00000000      1.00000000      1.00000000      1.00000000      1.00000000      1.00000000      1.00000000      1.00000000      1.00000000      1.00000000      1.00000000      1.00000000
      1.00000000      1.00000000      1.00000000      1.00000000      1.00000000</v>
    <i name="NUPDOWN">     -1.00000000</i>
    <i type="logical" name="LSORBIT"> F  </i>
    <v name="SAXIS">      0.00000000      0.00000000      1.00000000</v>
    <i type="logical" name="LSPIRAL"> F  </i>
    <v name="QSPIRAL">      0.00000000      0.00000000      0.00000000</v>
    <i type="logical" name="LZEROZ"> F  </i>
   </separator>
   <separator name="electronic exchange-correlation" >
    <i type="logical" name="LASPH"> F  </i>
    <i type="logical" name="LMETAGGA"> F  </i>
   </separator>
   <separator name="electronic convergence" >
    <i type="int" name="NELM">   600</i>
    <i type="int" name="NELMDL">     0</i>
    <i type="int" name="NELMIN">     2</i>
    <i name="ENINI">    500.00000000</i>
    <separator name="electronic convergence detail" >
     <i type="logical" name="LDIAG"> T  </i>
     <i type="logical" name="LSUBROT"> F  </i>
     <i name="WEIMIN">      0.00000000</i>
     <i name="EBREAK">      0.00000003</i>
     <i name="DEPER">      0.30000000</i>
     <i type="int" name="NRMM">     4</i>
     <i name="TIME">      0.40000000</i>
    </separator>
   </separator>
   <separator name="electronic mixer" >
    <i name="AMIX">      0.40000000</i>
    <i name="BMIX">      0.01000000</i>
    <i name="AMIN">      0.01000000</i>
    <i name="AMIX_MAG">      1.60000000</i>
    <i name="BMIX_MAG">      0.01000000</i>
    <separator name="electronic mixer details" >
     <i type="int" name="IMIX">     4</i>
     <i type="logical" name="MIXFIRST"> F  </i>
     <i type="int" name="MAXMIX">   -45</i>
     <i name="WC">    100.00000000</i>
     <i type="int" name="INIMIX">     1</i>
     <i type="int" name="MIXPRE">     1</i>
     <i type="int" name="MREMOVE">     5</i>
    </separator>
   </separator>
   <separator name="electronic dipolcorrection" >
    <i type="logical" name="LDIPOL"> T  </i>
    <i type="logical" name="LMONO"> F  </i>
    <i type="int" name="IDIPOL">     3</i>
    <i name="EPSILON">      1.00000000</i>
    <v name="DIPOL">   -100.00000000   -100.00000000   -100.00000000</v>
    <i name="EFIELD">      0.00000000</i>
   </separator>
  </separator>
  <separator name="grids" >
   <i type="int" name="NGX">   100</i>
   <i type="int" name="NGY">   100</i>
   <i type="int" name="NGZ">   350</i>
   <i type="int" name="NGXF">   200</i>
   <i type="int" name="NGYF">   200</i>
   <i type="int" name="NGZF">   700</i>
   <i type="logical" name="ADDGRID"> F  </i>
  </separator>
  <separator name="ionic" >
   <i type="int" name="NSW">     0</i>
   <i type="int" name="IBRION">    -1</i>
   <i type="int" name="MDALGO">     0</i>
   <i type="int" name="ISIF">     2</i>
   <i name="PSTRESS">      0.00000000</i>
   <i name="EDIFFG">      0.00100000</i>
   <i type="int" name="NFREE">     0</i>
   <i name="POTIM">      0.50000000</i>
   <i name="SMASS">     -3.00000000</i>
   <i name="SCALEE">      1.00000000</i>
  </separator>
  <separator name="ionic md" >
   <i name="TEBEG">      0.00010000</i>
   <i name="TEEND">      0.00010000</i>
   <i type="int" name="NBLOCK">     1</i>
   <i type="int" name="KBLOCK">     1</i>
   <i type="int" name="NPACO">   256</i>
   <i name="APACO">     16.00000000</i>
  </separator>
  <separator name="symmetry" >
   <i type="int" name="ISYM">     0</i>
   <i name="SYMPREC">      0.00001000</i>
  </separator>
  <separator name="dos" >
   <i type="int" name="LORBIT">     0</i>
   <v name="RWIGS">     -1.00000000     -1.00000000     -1.00000000     -1.00000000     -1.00000000</v>
   <i type="int" name="NEDOS">   301</i>
   <i name="EMIN">     10.00000000</i>
   <i name="EMAX">    -10.00000000</i>
   <i name="EFERMI">      0.00000000</i>
  </separator>
  <separator name="writing" >
   <i type="int" name="NWRITE">     2</i>
   <i type="logical" name="LWAVE"> F  </i>
   <i type="logical" name="LDOWNSAMPLE"> F  </i>
   <i type="logical" name="LCHARG"> T  </i>
   <i type="logical" name="LPARD"> F  </i>
   <i type="logical" name="LVTOT"> T  </i>
   <i type="logical" name="LVHAR"> F  </i>
   <i type="logical" name="LELF"> F  </i>
   <i type="logical" name="LOPTICS"> F  </i>
   <v name="STM">      0.00000000      0.00000000      0.00000000      0.00000000      0.00000000      0.00000000      0.00000000</v>
  </separator>
  <separator name="performance" >
   <i type="int" name="NPAR">     4</i>
   <i type="int" name="NSIM">     4</i>
   <i type="int" name="NBLK">    -1</i>
   <i type="logical" name="LPLANE"> T  </i>
   <i type="logical" name="LSCALAPACK"> T  </i>
   <i type="logical" name="LSCAAWARE"> F  </i>
   <i type="logical" name="LSCALU"> F  </i>
   <i type="logical" name="LASYNC"> F  </i>
   <i type="logical" name="LORBITALREAL"> F  </i>
  </separator>
  <separator name="miscellaneous" >
   <i type="int" name="IDIOT">     3</i>
   <i type="int" name="PHON_NSTRUCT">    -1</i>
   <i type="logical" name="LMUSIC"> F  </i>
   <v name="POMASS">      1.00000000     12.01100000     14.00100000    126.90400000    207.20000000</v>
   <v name="DARWINR">      0.00000000      0.00000000      0.00000000      0.00000000      0.00000000</v>
   <v name="DARWINV">      1.00000000      1.00000000      1.00000000      1.00000000      1.00000000</v>
   <i type="logical" name="LCORR"> T  </i>
  </separator>
  <i type="logical" name="GGA_COMPAT"> F  </i>
  <i type="logical" name="LBERRY"> F  </i>
  <i type="int" name="ICORELEVEL">     0</i>
  <i type="logical" name="LDAU"> F  </i>
  <i type="int" name="I_CONSTRAINED_M">     0</i>
  <separator name="electronic exchange-correlation" >
   <i type="string" name="GGA">--</i>
   <i type="int" name="VOSKOWN">     0</i>
   <i type="logical" name="LHFCALC"> F  </i>
   <i type="string" name="PRECFOCK"></i>
   <i type="logical" name="LSYMGRAD"> F  </i>
   <i type="logical" name="LHFONE"> F  </i>
   <i type="logical" name="LRHFCALC"> F  </i>
   <i type="logical" name="LTHOMAS"> F  </i>
   <i type="logical" name="LMODELHF"> F  </i>
   <i type="logical" name="LFOCKACE"> F  </i>
   <i name="ENCUT4O">     -1.00000000</i>
   <i type="int" name="EXXOEP">     0</i>
   <i type="int" name="FOURORBIT">     0</i>
   <i name="AEXX">      0.00000000</i>
   <i name="HFALPHA">      0.00000000</i>
   <i name="MCALPHA">      0.00000000</i>
   <i name="ALDAX">      1.00000000</i>
   <i name="AGGAX">      1.00000000</i>
   <i name="ALDAC">      1.00000000</i>
   <i name="AGGAC">      1.00000000</i>
   <i type="int" name="NKREDX">     1</i>
   <i type="int" name="NKREDY">     1</i>
   <i type="int" name="NKREDZ">     1</i>
   <i type="logical" name="SHIFTRED"> F  </i>
   <i type="logical" name="ODDONLY"> F  </i>
   <i type="logical" name="EVENONLY"> F  </i>
   <i type="int" name="LMAXFOCK">     0</i>
   <i type="int" name="NMAXFOCKAE">     0</i>
   <i type="logical" name="LFOCKAEDFT"> F  </i>
   <i name="HFSCREEN">      0.00000000</i>
   <i name="HFSCREENC">      0.00000000</i>
   <i type="int" name="NBANDSGWLOW">     0</i>
  </separator>
  <separator name="vdW DFT" >
   <i type="logical" name="LUSE_VDW"> F  </i>
   <i name="Zab_VDW">     -0.84910000</i>
   <i name="PARAM1">      0.12340000</i>
   <i name="PARAM2">      1.00000000</i>
   <i name="PARAM3">      0.00000000</i>
  </separator>
  <separator name="model GW" >
   <i type="int" name="MODEL_GW">     0</i>
   <i name="MODEL_EPS0">     37.63423484</i>
   <i name="MODEL_ALPHA">      1.00000000</i>
  </separator>
  <separator name="linear response parameters" >
   <i type="logical" name="LEPSILON"> F  </i>
   <i type="logical" name="LRPA"> F  </i>
   <i type="logical" name="LNABLA"> F  </i>
   <i type="logical" name="LVEL"> F  </i>
   <i type="int" name="KINTER">     0</i>
   <i name="CSHIFT">      0.10000000</i>
   <i name="OMEGAMAX">     -1.00000000</i>
   <i name="DEG_THRESHOLD">      0.00200000</i>
   <i name="RTIME">     -0.10000000</i>
   <i name="WPLASMAI">      0.00000000</i>
   <v name="DFIELD">      0.00000000      0.00000000      0.00000000</v>
   <v name="WPLASMA">      0.00000000      0.00000000      0.00000000      0.00000000      0.00000000      0.00000000      0.00000000      0.00000000      0.00000000</v>
  </separator>
  <separator name="orbital magnetization" >
   <i type="logical" name="NUCIND"> F  </i>
   <v name="MAGPOS">      0.00000000      0.00000000      0.00000000</v>
   <i type="logical" name="LNICSALL"> T  </i>
   <i type="logical" name="ORBITALMAG"> F  </i>
   <i type="logical" name="LMAGBLOCH"> F  </i>
   <i type="logical" name="LCHIMAG"> F  </i>
   <i type="logical" name="LGAUGE"> T  </i>
   <i type="int" name="MAGATOM">     0</i>
   <v name="MAGDIPOL">      0.00000000      0.00000000      0.00000000</v>
   <v name="AVECCONST">      0.00000000      0.00000000      0.00000000</v>
  </separator>
  <separator name="response functions" >
   <i type="logical" name="LFINITE_TEMPERATURE"> F  </i>
   <i type="logical" name="LADDER"> F  </i>
   <i type="logical" name="LRPAFORCE"> F  </i>
   <i type="logical" name="LFXC"> F  </i>
   <i type="logical" name="LHARTREE"> T  </i>
   <i type="int" name="IBSE">     0</i>
   <v type="int" name="KPOINT">    -1     0     0     0</v>
   <i type="logical" name="LTCTC"> F  </i>
   <i type="logical" name="LTCTE"> F  </i>
   <i type="logical" name="LTETE"> F  </i>
   <i type="logical" name="LTRIPLET"> F  </i>
   <i type="logical" name="LFXCEPS"> F  </i>
   <i type="logical" name="LFXHEG"> F  </i>
   <i type="int" name="NATURALO">     2</i>
   <i type="logical" name="LHOLEGF"> F  </i>
   <i type="logical" name="L2ORDER"> F  </i>
   <i type="logical" name="LDMP1"> F  </i>
   <i type="logical" name="LMP2LT"> F  </i>
   <i type="logical" name="LSMP2LT"> F  </i>
   <i type="logical" name="LGWLF"> F  </i>
   <i name="ENCUTGW">     -2.00000000</i>
   <i name="ENCUTGWSOFT">     -2.00000000</i>
   <i name="ENCUTLF">     -1.00000000</i>
   <i type="logical" name="LESF_SPLINES"> F  </i>
   <i type="int" name="LMAXMP2">    -1</i>
   <i name="SCISSOR">      0.00000000</i>
   <i type="int" name="NOMEGA">     0</i>
   <i type="int" name="NOMEGAR">     0</i>
   <i type="int" name="NBANDSGW">    -1</i>
   <i type="int" name="NBANDSO">    -1</i>
   <i type="int" name="NBANDSV">    -1</i>
   <i type="int" name="NELM">   600</i>
   <i type="int" name="NELMHF">     1</i>
   <i type="int" name="DIM">     3</i>
   <i type="int" name="IESPILON">     4</i>
   <i type="int" name="ANTIRES">     0</i>
   <i name="OMEGAMAX">    -30.00000000</i>
   <i name="OMEGAMIN">    -30.00000000</i>
   <i name="OMEGATL">   -200.00000000</i>
   <i type="int" name="OMEGAGRID">     0</i>
   <i name="CSHIFT">     -0.10000000</i>
   <i type="logical" name="LSELFENERGY"> F  </i>
   <i type="logical" name="LSPECTRAL"> F  </i>
   <i type="logical" name="LSPECTRALGW"> F  </i>
   <i type="logical" name="LSINGLES"> F  </i>
   <i type="logical" name="LFERMIGW"> F  </i>
   <i type="logical" name="ODDONLYGW"> F  </i>
   <i type="logical" name="EVENONLYGW"> F  </i>
   <i type="int" name="NKREDLFX">     1</i>
   <i type="int" name="NKREDLFY">     1</i>
   <i type="int" name="NKREDLFZ">     1</i>
   <i type="int" name="MAXMEM">  2800</i>
   <i type="int" name="TELESCOPE">     0</i>
   <i type="int" name="NTAUPAR">    -1</i>
   <i type="int" name="NOMEGAPAR">    -1</i>
   <i name="DAMP_NEWTON">      0.80000001</i>
   <i name="LAMBDA">      1.00000000</i>
  </separator>
  <separator name="External order field" >
   <i name="OFIELD_KAPPA">      0.00000000</i>
   <v name="OFIELD_K">      0.00000000      0.00000000      0.00000000</v>
   <i name="OFIELD_Q6_NEAR">      0.00000000</i>
   <i name="OFIELD_Q6_FAR">      0.00000000</i>
   <i name="OFIELD_A">      0.00000000</i>
  </separator>
 </parameters>
 <atominfo>
  <atoms>     325 </atoms>
  <types>       5 </types>
  <array name="atoms" >
   <dimension dim="1">ion</dimension>
   <field type="string">element</field>
   <field type="int">atomtype</field>
   <set>
    <rc><c>H </c><c>   1</c></rc>
    <rc><c>H </c><c>   1</c></rc>
    <rc><c>H </c><c>   1</c></rc>
    <rc><c>H </c><c>   1</c></rc>
    <rc><c>H </c><c>   1</c></rc>
    <rc><c>H </c><c>   1</c></rc>
    <rc><c>H </c><c>   1</c></rc>
    <rc><c>H </c><c>   1</c></rc>
    <rc><c>H </c><c>   1</c></rc>
    <rc><c>H </c><c>   1</c></rc>
    <rc><c>H </c><c>   1</c></rc>
    <rc><c>H </c><c>   1</c></rc>
    <rc><c>H </c><c>   1</c></rc>
    <rc><c>H </c><c>   1</c></rc>
    <rc><c>H </c><c>   1</c></rc>
    <rc><c>H </c><c>   1</c></rc>
    <rc><c>H </c><c>   1</c></rc>
    <rc><c>H </c><c>   1</c></rc>
    <rc><c>H </c><c>   1</c></rc>
    <rc><c>H </c><c>   1</c></rc>
    <rc><c>H </c><c>   1</c></rc>
    <rc><c>H </c><c>   1</c></rc>
    <rc><c>H </c><c>   1</c></rc>
    <rc><c>H </c><c>   1</c></rc>
    <rc><c>H </c><c>   1</c></rc>
    <rc><c>H </c><c>   1</c></rc>
    <rc><c>H </c><c>   1</c></rc>
    <rc><c>H </c><c>   1</c></rc>
    <rc><c>H </c><c>   1</c></rc>
    <rc><c>H </c><c>   1</c></rc>
    <rc><c>H </c><c>   1</c></rc>
    <rc><c>H </c><c>   1</c></rc>
    <rc><c>H </c><c>   1</c></rc>
    <rc><c>H </c><c>   1</c></rc>
    <rc><c>H </c><c>   1</c></rc>
    <rc><c>H </c><c>   1</c></rc>
    <rc><c>H </c><c>   1</c></rc>
    <rc><c>H </c><c>   1</c></rc>
    <rc><c>H </c><c>   1</c></rc>
    <rc><c>H </c><c>   1</c></rc>
    <rc><c>H </c><c>   1</c></rc>
    <rc><c>H </c><c>   1</c></rc>
    <rc><c>H </c><c>   1</c></rc>
    <rc><c>H </c><c>   1</c></rc>
    <rc><c>H </c><c>   1</c></rc>
    <rc><c>H </c><c>   1</c></rc>
    <rc><c>H </c><c>   1</c></rc>
    <rc><c>H </c><c>   1</c></rc>
    <rc><c>H </c><c>   1</c></rc>
    <rc><c>H </c><c>   1</c></rc>
    <rc><c>H </c><c>   1</c></rc>
    <rc><c>H </c><c>   1</c></rc>
    <rc><c>H </c><c>   1</c></rc>
    <rc><c>H </c><c>   1</c></rc>
    <rc><c>H </c><c>   1</c></rc>
    <rc><c>H </c><c>   1</c></rc>
    <rc><c>H </c><c>   1</c></rc>
    <rc><c>H </c><c>   1</c></rc>
    <rc><c>H </c><c>   1</c></rc>
    <rc><c>H </c><c>   1</c></rc>
    <rc><c>H </c><c>   1</c></rc>
    <rc><c>H </c><c>   1</c></rc>
    <rc><c>H </c><c>   1</c></rc>
    <rc><c>H </c><c>   1</c></rc>
    <rc><c>H </c><c>   1</c></rc>
    <rc><c>H </c><c>   1</c></rc>
    <rc><c>H </c><c>   1</c></rc>
    <rc><c>H </c><c>   1</c></rc>
    <rc><c>H </c><c>   1</c></rc>
    <rc><c>H </c><c>   1</c></rc>
    <rc><c>H </c><c>   1</c></rc>
    <rc><c>H </c><c>   1</c></rc>
    <rc><c>H </c><c>   1</c></rc>
    <rc><c>H </c><c>   1</c></rc>
    <rc><c>H </c><c>   1</c></rc>
    <rc><c>H </c><c>   1</c></rc>
    <rc><c>H </c><c>   1</c></rc>
    <rc><c>H </c><c>   1</c></rc>
    <rc><c>H </c><c>   1</c></rc>
    <rc><c>H </c><c>   1</c></rc>
    <rc><c>H </c><c>   1</c></rc>
    <rc><c>H </c><c>   1</c></rc>
    <rc><c>H </c><c>   1</c></rc>
    <rc><c>H </c><c>   1</c></rc>
    <rc><c>H </c><c>   1</c></rc>
    <rc><c>H </c><c>   1</c></rc>
    <rc><c>H </c><c>   1</c></rc>
    <rc><c>H </c><c>   1</c></rc>
    <rc><c>H </c><c>   1</c></rc>
    <rc><c>H </c><c>   1</c></rc>
    <rc><c>H </c><c>   1</c></rc>
    <rc><c>H </c><c>   1</c></rc>
    <rc><c>H </c><c>   1</c></rc>
    <rc><c>H </c><c>   1</c></rc>
    <rc><c>H </c><c>   1</c></rc>
    <rc><c>H </c><c>   1</c></rc>
    <rc><c>H </c><c>   1</c></rc>
    <rc><c>H </c><c>   1</c></rc>
    <rc><c>H </c><c>   1</c></rc>
    <rc><c>H </c><c>   1</c></rc>
    <rc><c>H </c><c>   1</c></rc>
    <rc><c>H </c><c>   1</c></rc>
    <rc><c>H </c><c>   1</c></rc>
    <rc><c>H </c><c>   1</c></rc>
    <rc><c>H </c><c>   1</c></rc>
    <rc><c>H </c><c>   1</c></rc>
    <rc><c>H </c><c>   1</c></rc>
    <rc><c>H </c><c>   1</c></rc>
    <rc><c>H </c><c>   1</c></rc>
    <rc><c>H </c><c>   1</c></rc>
    <rc><c>H </c><c>   1</c></rc>
    <rc><c>H </c><c>   1</c></rc>
    <rc><c>H </c><c>   1</c></rc>
    <rc><c>H </c><c>   1</c></rc>
    <rc><c>H </c><c>   1</c></rc>
    <rc><c>H </c><c>   1</c></rc>
    <rc><c>H </c><c>   1</c></rc>
    <rc><c>H </c><c>   1</c></rc>
    <rc><c>H </c><c>   1</c></rc>
    <rc><c>H </c><c>   1</c></rc>
    <rc><c>H </c><c>   1</c></rc>
    <rc><c>H </c><c>   1</c></rc>
    <rc><c>H </c><c>   1</c></rc>
    <rc><c>H </c><c>   1</c></rc>
    <rc><c>H </c><c>   1</c></rc>
    <rc><c>H </c><c>   1</c></rc>
    <rc><c>H </c><c>   1</c></rc>
    <rc><c>H </c><c>   1</c></rc>
    <rc><c>H </c><c>   1</c></rc>
    <rc><c>H </c><c>   1</c></rc>
    <rc><c>H </c><c>   1</c></rc>
    <rc><c>H </c><c>   1</c></rc>
    <rc><c>H </c><c>   1</c></rc>
    <rc><c>H </c><c>   1</c></rc>
    <rc><c>H </c><c>   1</c></rc>
    <rc><c>H </c><c>   1</c></rc>
    <rc><c>H </c><c>   1</c></rc>
    <rc><c>H </c><c>   1</c></rc>
    <rc><c>H </c><c>   1</c></rc>
    <rc><c>H </c><c>   1</c></rc>
    <rc><c>H </c><c>   1</c></rc>
    <rc><c>H </c><c>   1</c></rc>
    <rc><c>H </c><c>   1</c></rc>
    <rc><c>C </c><c>   2</c></rc>
    <rc><c>C </c><c>   2</c></rc>
    <rc><c>C </c><c>   2</c></rc>
    <rc><c>C </c><c>   2</c></rc>
    <rc><c>C </c><c>   2</c></rc>
    <rc><c>C </c><c>   2</c></rc>
    <rc><c>C </c><c>   2</c></rc>
    <rc><c>C </c><c>   2</c></rc>
    <rc><c>C </c><c>   2</c></rc>
    <rc><c>C </c><c>   2</c></rc>
    <rc><c>C </c><c>   2</c></rc>
    <rc><c>C </c><c>   2</c></rc>
    <rc><c>C </c><c>   2</c></rc>
    <rc><c>C </c><c>   2</c></rc>
    <rc><c>C </c><c>   2</c></rc>
    <rc><c>C </c><c>   2</c></rc>
    <rc><c>C </c><c>   2</c></rc>
    <rc><c>C </c><c>   2</c></rc>
    <rc><c>C </c><c>   2</c></rc>
    <rc><c>C </c><c>   2</c></rc>
    <rc><c>C </c><c>   2</c></rc>
    <rc><c>C </c><c>   2</c></rc>
    <rc><c>C </c><c>   2</c></rc>
    <rc><c>C </c><c>   2</c></rc>
    <rc><c>C </c><c>   2</c></rc>
    <rc><c>C </c><c>   2</c></rc>
    <rc><c>C </c><c>   2</c></rc>
    <rc><c>C </c><c>   2</c></rc>
    <rc><c>C </c><c>   2</c></rc>
    <rc><c>C </c><c>   2</c></rc>
    <rc><c>C </c><c>   2</c></rc>
    <rc><c>C </c><c>   2</c></rc>
    <rc><c>C </c><c>   2</c></rc>
    <rc><c>C </c><c>   2</c></rc>
    <rc><c>C </c><c>   2</c></rc>
    <rc><c>C </c><c>   2</c></rc>
    <rc><c>C </c><c>   2</c></rc>
    <rc><c>C </c><c>   2</c></rc>
    <rc><c>C </c><c>   2</c></rc>
    <rc><c>N </c><c>   3</c></rc>
    <rc><c>N </c><c>   3</c></rc>
    <rc><c>N </c><c>   3</c></rc>
    <rc><c>N </c><c>   3</c></rc>
    <rc><c>N </c><c>   3</c></rc>
    <rc><c>N </c><c>   3</c></rc>
    <rc><c>N </c><c>   3</c></rc>
    <rc><c>N </c><c>   3</c></rc>
    <rc><c>N </c><c>   3</c></rc>
    <rc><c>N </c><c>   3</c></rc>
    <rc><c>N </c><c>   3</c></rc>
    <rc><c>N </c><c>   3</c></rc>
    <rc><c>N </c><c>   3</c></rc>
    <rc><c>N </c><c>   3</c></rc>
    <rc><c>N </c><c>   3</c></rc>
    <rc><c>N </c><c>   3</c></rc>
    <rc><c>N </c><c>   3</c></rc>
    <rc><c>N </c><c>   3</c></rc>
    <rc><c>N </c><c>   3</c></rc>
    <rc><c>N </c><c>   3</c></rc>
    <rc><c>N </c><c>   3</c></rc>
    <rc><c>N </c><c>   3</c></rc>
    <rc><c>N </c><c>   3</c></rc>
    <rc><c>N </c><c>   3</c></rc>
    <rc><c>N </c><c>   3</c></rc>
    <rc><c>N </c><c>   3</c></rc>
    <rc><c>N </c><c>   3</c></rc>
    <rc><c>N </c><c>   3</c></rc>
    <rc><c>N </c><c>   3</c></rc>
    <rc><c>N </c><c>   3</c></rc>
    <rc><c>N </c><c>   3</c></rc>
    <rc><c>N </c><c>   3</c></rc>
    <rc><c>N </c><c>   3</c></rc>
    <rc><c>N </c><c>   3</c></rc>
    <rc><c>N </c><c>   3</c></rc>
    <rc><c>N </c><c>   3</c></rc>
    <rc><c>N </c><c>   3</c></rc>
    <rc><c>N </c><c>   3</c></rc>
    <rc><c>N </c><c>   3</c></rc>
    <rc><c>N </c><c>   3</c></rc>
    <rc><c>N </c><c>   3</c></rc>
    <rc><c>N </c><c>   3</c></rc>
    <rc><c>N </c><c>   3</c></rc>
    <rc><c>N </c><c>   3</c></rc>
    <rc><c>N </c><c>   3</c></rc>
    <rc><c>N </c><c>   3</c></rc>
    <rc><c>N </c><c>   3</c></rc>
    <rc><c>I </c><c>   4</c></rc>
    <rc><c>I </c><c>   4</c></rc>
    <rc><c>I </c><c>   4</c></rc>
    <rc><c>I </c><c>   4</c></rc>
    <rc><c>I </c><c>   4</c></rc>
    <rc><c>I </c><c>   4</c></rc>
    <rc><c>I </c><c>   4</c></rc>
    <rc><c>I </c><c>   4</c></rc>
    <rc><c>I </c><c>   4</c></rc>
    <rc><c>I </c><c>   4</c></rc>
    <rc><c>I </c><c>   4</c></rc>
    <rc><c>I </c><c>   4</c></rc>
    <rc><c>I </c><c>   4</c></rc>
    <rc><c>I </c><c>   4</c></rc>
    <rc><c>I </c><c>   4</c></rc>
    <rc><c>I </c><c>   4</c></rc>
    <rc><c>I </c><c>   4</c></rc>
    <rc><c>I </c><c>   4</c></rc>
    <rc><c>I </c><c>   4</c></rc>
    <rc><c>I </c><c>   4</c></rc>
    <rc><c>I </c><c>   4</c></rc>
    <rc><c>I </c><c>   4</c></rc>
    <rc><c>I </c><c>   4</c></rc>
    <rc><c>I </c><c>   4</c></rc>
    <rc><c>I </c><c>   4</c></rc>
    <rc><c>I </c><c>   4</c></rc>
    <rc><c>I </c><c>   4</c></rc>
    <rc><c>I </c><c>   4</c></rc>
    <rc><c>I </c><c>   4</c></rc>
    <rc><c>I </c><c>   4</c></rc>
    <rc><c>I </c><c>   4</c></rc>
    <rc><c>I </c><c>   4</c></rc>
    <rc><c>I </c><c>   4</c></rc>
    <rc><c>I </c><c>   4</c></rc>
    <rc><c>I </c><c>   4</c></rc>
    <rc><c>I </c><c>   4</c></rc>
    <rc><c>I </c><c>   4</c></rc>
    <rc><c>I </c><c>   4</c></rc>
    <rc><c>I </c><c>   4</c></rc>
    <rc><c>I </c><c>   4</c></rc>
    <rc><c>I </c><c>   4</c></rc>
    <rc><c>I </c><c>   4</c></rc>
    <rc><c>I </c><c>   4</c></rc>
    <rc><c>I </c><c>   4</c></rc>
    <rc><c>I </c><c>   4</c></rc>
    <rc><c>I </c><c>   4</c></rc>
    <rc><c>I </c><c>   4</c></rc>
    <rc><c>I </c><c>   4</c></rc>
    <rc><c>I </c><c>   4</c></rc>
    <rc><c>I </c><c>   4</c></rc>
    <rc><c>I </c><c>   4</c></rc>
    <rc><c>I </c><c>   4</c></rc>
    <rc><c>I </c><c>   4</c></rc>
    <rc><c>I </c><c>   4</c></rc>
    <rc><c>I </c><c>   4</c></rc>
    <rc><c>I </c><c>   4</c></rc>
    <rc><c>I </c><c>   4</c></rc>
    <rc><c>I </c><c>   4</c></rc>
    <rc><c>I </c><c>   4</c></rc>
    <rc><c>I </c><c>   4</c></rc>
    <rc><c>I </c><c>   4</c></rc>
    <rc><c>I </c><c>   4</c></rc>
    <rc><c>I </c><c>   4</c></rc>
    <rc><c>I </c><c>   4</c></rc>
    <rc><c>I </c><c>   4</c></rc>
    <rc><c>I </c><c>   4</c></rc>
    <rc><c>I </c><c>   4</c></rc>
    <rc><c>I </c><c>   4</c></rc>
    <rc><c>I </c><c>   4</c></rc>
    <rc><c>I </c><c>   4</c></rc>
    <rc><c>I </c><c>   4</c></rc>
    <rc><c>I </c><c>   4</c></rc>
    <rc><c>Pb</c><c>   5</c></rc>
    <rc><c>Pb</c><c>   5</c></rc>
    <rc><c>Pb</c><c>   5</c></rc>
    <rc><c>Pb</c><c>   5</c></rc>
    <rc><c>Pb</c><c>   5</c></rc>
    <rc><c>Pb</c><c>   5</c></rc>
    <rc><c>Pb</c><c>   5</c></rc>
    <rc><c>Pb</c><c>   5</c></rc>
    <rc><c>Pb</c><c>   5</c></rc>
    <rc><c>Pb</c><c>   5</c></rc>
    <rc><c>Pb</c><c>   5</c></rc>
    <rc><c>Pb</c><c>   5</c></rc>
    <rc><c>Pb</c><c>   5</c></rc>
    <rc><c>Pb</c><c>   5</c></rc>
    <rc><c>Pb</c><c>   5</c></rc>
    <rc><c>Pb</c><c>   5</c></rc>
    <rc><c>Pb</c><c>   5</c></rc>
    <rc><c>Pb</c><c>   5</c></rc>
    <rc><c>Pb</c><c>   5</c></rc>
    <rc><c>Pb</c><c>   5</c></rc>
    <rc><c>Pb</c><c>   5</c></rc>
    <rc><c>Pb</c><c>   5</c></rc>
    <rc><c>Pb</c><c>   5</c></rc>
    <rc><c>Pb</c><c>   5</c></rc>
   </set>
  </array>
  <array name="atomtypes" >
   <dimension dim="1">type</dimension>
   <field type="int">atomspertype</field>
   <field type="string">element</field>
   <field>mass</field>
   <field>valence</field>
   <field type="string">pseudopotential</field>
   <set>
    <rc><c> 143</c><c>H </c><c>      1.00000000</c><c>      1.00000000</c><c>  PAW_PBE H 15Jun2001                   </c></rc>
    <rc><c>  39</c><c>C </c><c>     12.01100000</c><c>      4.00000000</c><c>  PAW_PBE C 08Apr2002                   </c></rc>
    <rc><c>  47</c><c>N </c><c>     14.00100000</c><c>      5.00000000</c><c>  PAW_PBE N 08Apr2002                   </c></rc>
    <rc><c>  72</c><c>I </c><c>    126.90400000</c><c>      7.00000000</c><c>  PAW_PBE I 08Apr2002                   </c></rc>
    <rc><c>  24</c><c>Pb</c><c>    207.20000000</c><c>      4.00000000</c><c>  PAW_PBE Pb 08Apr2002                  </c></rc>
   </set>
  </array>
 </atominfo>
 <structure name="initialpos" >
  <crystal>
   <varray name="basis" >
    <v>      18.06080055       0.00000000       0.00000000 </v>
    <v>      -0.00491865      18.06279945       0.00000000 </v>
    <v>       0.00000000       0.00000000      62.48749924 </v>
   </varray>
   <i name="volume">  20385.21054034 </i>
   <varray name="rec_basis" >
    <v>       0.05536853       0.00001508      -0.00000000 </v>
    <v>       0.00000000       0.05536240       0.00000000 </v>
    <v>       0.00000000      -0.00000000       0.01600320 </v>
   </varray>
  </crystal>
  <varray name="positions" >
   <v>       0.45037318       0.29825090       0.58111538 </v>
   <v>       0.44501482       0.81394575       0.58000089 </v>
   <v>       0.95509750       0.27979427       0.58683722 </v>
   <v>       0.96859684       0.80445911       0.58499750 </v>
   <v>       0.30081966       0.04575390       0.58257941 </v>
   <v>       0.29895776       0.54968343       0.58269577 </v>
   <v>       0.79042061       0.05814855       0.58110292 </v>
   <v>       0.08990439       0.17611435       0.55437602 </v>
   <v>       0.07579819       0.67229902       0.55516017 </v>
   <v>       0.58813342       0.18099549       0.55501842 </v>
   <v>       0.56176636       0.66617860       0.56365064 </v>
   <v>       0.33361528       0.06969165       0.55781317 </v>
   <v>       0.32605812       0.58203073       0.55810699 </v>
   <v>       0.82570383       0.07927639       0.55638606 </v>
   <v>       0.06516343       0.19447718       0.58050344 </v>
   <v>       0.05221738       0.69899660       0.58055362 </v>
   <v>       0.56061165       0.21207253       0.58044025 </v>
   <v>       0.52942930       0.71034811       0.58651953 </v>
   <v>       0.19809108       0.44582465       0.58099005 </v>
   <v>       0.18990654       0.95205558       0.58131805 </v>
   <v>       0.70040630       0.94532962       0.58104316 </v>
   <v>       0.40793196       0.31491150       0.55626580 </v>
   <v>       0.42677294       0.84003722       0.55431082 </v>
   <v>       0.91257627       0.31619047       0.56427277 </v>
   <v>       0.93671342       0.84904334       0.56185957 </v>
   <v>       0.17194975       0.42337828       0.55546516 </v>
   <v>       0.16424444       0.92720492       0.55591283 </v>
   <v>       0.68754762       0.90609820       0.55622899 </v>
   <v>       0.49269864       0.24449336       0.53741651 </v>
   <v>       0.50364508       0.74395780       0.54055728 </v>
   <v>       0.99321480       0.25382269       0.54048732 </v>
   <v>       0.00121120       0.76699307       0.54004680 </v>
   <v>       0.24781937       0.50584555       0.53845828 </v>
   <v>       0.25051879       0.99715248       0.53852885 </v>
   <v>       0.76667427       0.98757015       0.53825060 </v>
   <v>       0.45056346       0.30416289       0.67474635 </v>
   <v>       0.45044218       0.79318153       0.67613804 </v>
   <v>       0.94385644       0.30699367       0.67153336 </v>
   <v>       0.94533357       0.80429396       0.67443769 </v>
   <v>       0.30041601       0.04839905       0.67486881 </v>
   <v>       0.29739418       0.55107470       0.67487870 </v>
   <v>       0.80237182       0.05765593       0.67412293 </v>
   <v>       0.81361925       0.54339359       0.67490495 </v>
   <v>       0.07625494       0.16740882       0.65128645 </v>
   <v>       0.08017599       0.67204221       0.65042520 </v>
   <v>       0.57601905       0.16986367       0.64924698 </v>
   <v>       0.57534064       0.67496277       0.64726655 </v>
   <v>       0.17176468       0.41952862       0.64948360 </v>
   <v>       0.16951543       0.92262192       0.64787073 </v>
   <v>       0.66412801       0.43997704       0.65064845 </v>
   <v>       0.67193122       0.92233069       0.65103555 </v>
   <v>       0.04055778       0.20502484       0.67499963 </v>
   <v>       0.04938386       0.70205797       0.67598890 </v>
   <v>       0.55016537       0.20046081       0.67480910 </v>
   <v>       0.55188937       0.69628449       0.67327956 </v>
   <v>       0.20212039       0.44898945       0.67475233 </v>
   <v>       0.19790932       0.95056587       0.67361825 </v>
   <v>       0.69886518       0.45236517       0.67539662 </v>
   <v>       0.70341956       0.95625627       0.67584770 </v>
   <v>       0.42034111       0.33451817       0.64939508 </v>
   <v>       0.41545233       0.82903755       0.65195706 </v>
   <v>       0.92345354       0.32916915       0.64527427 </v>
   <v>       0.91811129       0.82699576       0.64838927 </v>
   <v>       0.33380808       0.07893692       0.64987534 </v>
   <v>       0.32515888       0.58399724       0.64977517 </v>
   <v>       0.82792714       0.08497532       0.64809264 </v>
   <v>       0.83545020       0.57638703       0.65022972 </v>
   <v>       0.00447104       0.24373801       0.63022688 </v>
   <v>       0.99680352       0.74768807       0.63126676 </v>
   <v>       0.49833021       0.25172680       0.63155002 </v>
   <v>       0.49248234       0.75571353       0.63143770 </v>
   <v>       0.25336549       0.00283028       0.63111421 </v>
   <v>       0.24779847       0.50183303       0.63166217 </v>
   <v>       0.74945993       0.00225631       0.63186124 </v>
   <v>       0.74231991       0.51708914       0.63315765 </v>
   <v>       0.44874502       0.30128397       0.76888902 </v>
   <v>       0.44874501       0.80128391       0.76888902 </v>
   <v>       0.94874497       0.30128397       0.76888902 </v>
   <v>       0.94874501       0.80128391       0.76888902 </v>
   <v>       0.30127600       0.05129450       0.76887296 </v>
   <v>       0.30127601       0.55129450       0.76887296 </v>
   <v>       0.80127594       0.05129450       0.76887296 </v>
   <v>       0.80127598       0.55129450       0.76887296 </v>
   <v>       0.07877100       0.17118050       0.74344197 </v>
   <v>       0.07877101       0.67118045       0.74344197 </v>
   <v>       0.57877100       0.17118050       0.74344197 </v>
   <v>       0.57877099       0.67118045       0.74344197 </v>
   <v>       0.17119950       0.42117448       0.74342103 </v>
   <v>       0.17119950       0.92117451       0.74342103 </v>
   <v>       0.67119951       0.42117448       0.74342103 </v>
   <v>       0.67119950       0.92117451       0.74342103 </v>
   <v>       0.05125600       0.19871499       0.76888902 </v>
   <v>       0.05125600       0.69871493       0.76888902 </v>
   <v>       0.55125603       0.19871499       0.76888902 </v>
   <v>       0.55125602       0.69871493       0.76888902 </v>
   <v>       0.19872349       0.44870397       0.76887205 </v>
   <v>       0.19872349       0.94870397       0.76887205 </v>
   <v>       0.69872352       0.44870397       0.76887205 </v>
   <v>       0.69872351       0.94870397       0.76887205 </v>
   <v>       0.42123152       0.32881747       0.74344197 </v>
   <v>       0.42123151       0.82881744       0.74344197 </v>
   <v>       0.92123147       0.32881747       0.74344197 </v>
   <v>       0.92123151       0.82881744       0.74344197 </v>
   <v>       0.32880050       0.07882500       0.74342103 </v>
   <v>       0.32880049       0.57882496       0.74342103 </v>
   <v>       0.82880048       0.07882500       0.74342103 </v>
   <v>       0.82880052       0.57882496       0.74342103 </v>
   <v>       0.00000350       0.25000148       0.72582199 </v>
   <v>       0.00000350       0.75000145       0.72582199 </v>
   <v>       0.50000351       0.25000148       0.72582199 </v>
   <v>       0.50000350       0.75000145       0.72582199 </v>
   <v>       0.25000050       0.00000000       0.72580398 </v>
   <v>       0.25000052       0.50000000       0.72580398 </v>
   <v>       0.75000050       0.00000000       0.72580398 </v>
   <v>       0.75000049       0.50000000       0.72580398 </v>
   <v>       0.72085994       0.46349762       0.54964741 </v>
   <v>       0.74456075       0.51813532       0.52787353 </v>
   <v>       0.65780562       0.55997830       0.56481988 </v>
   <v>       0.69541828       0.64822533       0.56594468 </v>
   <v>       0.83841914       0.52467099       0.58135474 </v>
   <v>       0.77478711       0.59289223       0.59003586 </v>
   <v>       0.87825236       0.56389193       0.54740337 </v>
   <v>       0.82113413       0.62669775       0.53376515 </v>
   <v>       0.87919525       0.49091061       0.53198482 </v>
   <v>       0.86256239       0.45520616       0.55812732 </v>
   <v>       0.88784910       0.35414046       0.53488243 </v>
   <v>       0.79694489       0.34813678       0.54413752 </v>
   <v>       0.62670218       0.56778285       0.52713748 </v>
   <v>       0.70916630       0.62002470       0.52185633 </v>
   <v>       0.63730539       0.66701064       0.53348634 </v>
   <v>       0.73035034       0.48198226       0.60416601 </v>
   <v>       0.74549760       0.42548964       0.58099066 </v>
   <v>       0.67283500       0.49312537       0.58156224 </v>
   <v>       0.83826290       0.68133287       0.57585132 </v>
   <v>       0.87456845       0.71719544       0.55312998 </v>
   <v>       0.92671636       0.64827913       0.56845415 </v>
   <v>       0.84417172       0.40075824       0.49982122 </v>
   <v>       0.80611701       0.31493199       0.50610538 </v>
   <v>       0.67629651       0.32804308       0.52932944 </v>
   <v>       0.76362055       0.47914332       0.48311549 </v>
   <v>       0.55360409       0.38074807       0.52447191 </v>
   <v>       0.63937639       0.53145545       0.47820627 </v>
   <v>       0.53515591       0.48546448       0.49903093 </v>
   <v>       0.00200394       0.24602373       0.55705093 </v>
   <v>       0.00643866       0.76162481       0.55672128 </v>
   <v>       0.49935778       0.24653027       0.55478327 </v>
   <v>       0.49757615       0.75130371       0.55708408 </v>
   <v>       0.25010336       0.50412012       0.55589781 </v>
   <v>       0.24766744       0.99732097       0.55598053 </v>
   <v>       0.75794926       0.99389791       0.55544404 </v>
   <v>       0.99967914       0.24848640       0.64829391 </v>
   <v>       0.99943225       0.74936640       0.64950766 </v>
   <v>       0.49942597       0.25087475       0.64971223 </v>
   <v>       0.49796320       0.74972210       0.64942188 </v>
   <v>       0.24948100       0.50269564       0.64960820 </v>
   <v>       0.25041371       0.99967387       0.64919497 </v>
   <v>       0.74761898       0.50671492       0.65000855 </v>
   <v>       0.74997625       0.00228796       0.64998401 </v>
   <v>       0.49998898       0.24999498       0.74327702 </v>
   <v>       0.49998903       0.74999496       0.74327702 </v>
   <v>       0.99998898       0.24999498       0.74327702 </v>
   <v>       0.99998903       0.74999496       0.74327702 </v>
   <v>       0.25000050       0.00000100       0.74325596 </v>
   <v>       0.25000052       0.50000100       0.74325596 </v>
   <v>       0.75000050       0.00000100       0.74325596 </v>
   <v>       0.75000049       0.50000100       0.74325596 </v>
   <v>       0.73052415       0.39874053       0.50613834 </v>
   <v>       0.67006265       0.37232462       0.51714317 </v>
   <v>       0.71882009       0.45712341       0.49167332 </v>
   <v>       0.59783872       0.40223154       0.51466782 </v>
   <v>       0.64842365       0.48786154       0.48858500 </v>
   <v>       0.58624526       0.45957913       0.50098946 </v>
   <v>       0.76349390       0.50056171       0.54382612 </v>
   <v>       0.69426653       0.59915863       0.55587595 </v>
   <v>       0.78148192       0.54347680       0.57998563 </v>
   <v>       0.83622549       0.60656709       0.54876900 </v>
   <v>       0.84050670       0.45941879       0.54164789 </v>
   <v>       0.83280905       0.37759415       0.53343335 </v>
   <v>       0.66491036       0.61123077       0.53320308 </v>
   <v>       0.72943441       0.48062583       0.58672679 </v>
   <v>       0.87193461       0.66562154       0.56218526 </v>
   <v>       0.80447564       0.37416842       0.50958706 </v>
   <v>       0.05362541       0.20447105       0.56449755 </v>
   <v>       0.04718107       0.70516279       0.56507628 </v>
   <v>       0.55142024       0.20955992       0.56437368 </v>
   <v>       0.53196676       0.70798451       0.57032721 </v>
   <v>       0.44852487       0.29038763       0.56526302 </v>
   <v>       0.45252190       0.80755581       0.56466696 </v>
   <v>       0.95388100       0.28400774       0.57034821 </v>
   <v>       0.97039038       0.80958039       0.56913220 </v>
   <v>       0.20287647       0.45381347       0.56423541 </v>
   <v>       0.19723394       0.95597992       0.56447606 </v>
   <v>       0.71145030       0.94429009       0.56442765 </v>
   <v>       0.29819472       0.04119457       0.56567149 </v>
   <v>       0.29474129       0.54852853       0.56572369 </v>
   <v>       0.79429404       0.04721582       0.56442820 </v>
   <v>       0.03964836       0.20605733       0.65911926 </v>
   <v>       0.04369771       0.70813768       0.65898147 </v>
   <v>       0.54203894       0.20642182       0.65882232 </v>
   <v>       0.54690739       0.70457214       0.65706856 </v>
   <v>       0.20601230       0.45182944       0.65927591 </v>
   <v>       0.20506917       0.95700630       0.65820868 </v>
   <v>       0.70205446       0.46416013       0.65986923 </v>
   <v>       0.70782830       0.95979166       0.66029094 </v>
   <v>       0.45270701       0.30082452       0.65921095 </v>
   <v>       0.45044422       0.79448267       0.66059892 </v>
   <v>       0.95121663       0.29965648       0.65560201 </v>
   <v>       0.95239292       0.79795829       0.65791351 </v>
   <v>       0.29910305       0.04634629       0.65933219 </v>
   <v>       0.29067012       0.54903914       0.65946106 </v>
   <v>       0.79814842       0.05219590       0.65870951 </v>
   <v>       0.80455202       0.54585195       0.65952895 </v>
   <v>       0.04586250       0.20411950       0.75272599 </v>
   <v>       0.04586250       0.70411946       0.75272599 </v>
   <v>       0.54586251       0.20411950       0.75272599 </v>
   <v>       0.54586250       0.70411946       0.75272599 </v>
   <v>       0.20411900       0.45410100       0.75270499 </v>
   <v>       0.20411899       0.95410095       0.75270499 </v>
   <v>       0.70411898       0.45410100       0.75270499 </v>
   <v>       0.70411896       0.95410095       0.75270499 </v>
   <v>       0.45414002       0.29588849       0.75272697 </v>
   <v>       0.45414001       0.79588852       0.75272697 </v>
   <v>       0.95414002       0.29588849       0.75272697 </v>
[...]
   <v>       0.58813342       0.18099549       0.55501842 </v>
   <v>       0.56176636       0.66617860       0.56365064 </v>
   <v>       0.33361528       0.06969165       0.55781317 </v>
   <v>       0.32605812       0.58203073       0.55810699 </v>
   <v>       0.82570383       0.07927639       0.55638606 </v>
   <v>       0.06516343       0.19447718       0.58050344 </v>
   <v>       0.05221738       0.69899660       0.58055362 </v>
   <v>       0.56061165       0.21207253       0.58044025 </v>
   <v>       0.52942930       0.71034811       0.58651953 </v>
   <v>       0.19809108       0.44582465       0.58099005 </v>
   <v>       0.18990654       0.95205558       0.58131805 </v>
   <v>       0.70040630       0.94532962       0.58104316 </v>
   <v>       0.40793196       0.31491150       0.55626580 </v>
   <v>       0.42677294       0.84003722       0.55431082 </v>
   <v>       0.91257627       0.31619047       0.56427277 </v>
   <v>       0.93671342       0.84904334       0.56185957 </v>
   <v>       0.17194975       0.42337828       0.55546516 </v>
   <v>       0.16424444       0.92720492       0.55591283 </v>
   <v>       0.68754762       0.90609820       0.55622899 </v>
   <v>       0.49269864       0.24449336       0.53741651 </v>
   <v>       0.50364508       0.74395780       0.54055728 </v>
   <v>       0.99321480       0.25382269       0.54048732 </v>
   <v>       0.00121120       0.76699307       0.54004680 </v>
   <v>       0.24781937       0.50584555       0.53845828 </v>
   <v>       0.25051879       0.99715248       0.53852885 </v>
   <v>       0.76667427       0.98757015       0.53825060 </v>
   <v>       0.45056346       0.30416289       0.67474635 </v>
   <v>       0.45044218       0.79318153       0.67613804 </v>
   <v>       0.94385644       0.30699367       0.67153336 </v>
   <v>       0.94533357       0.80429396       0.67443769 </v>
   <v>       0.30041601       0.04839905       0.67486881 </v>
   <v>       0.29739418       0.55107470       0.67487870 </v>
   <v>       0.80237182       0.05765593       0.67412293 </v>
   <v>       0.81361925       0.54339359       0.67490495 </v>
   <v>       0.07625494       0.16740882       0.65128645 </v>
   <v>       0.08017599       0.67204221       0.65042520 </v>
   <v>       0.57601905       0.16986367       0.64924698 </v>
   <v>       0.57534064       0.67496277       0.64726655 </v>
   <v>       0.17176468       0.41952862       0.64948360 </v>
   <v>       0.16951543       0.92262192       0.64787073 </v>
   <v>       0.66412801       0.43997704       0.65064845 </v>
   <v>       0.67193122       0.92233069       0.65103555 </v>
   <v>       0.04055778       0.20502484       0.67499963 </v>
   <v>       0.04938386       0.70205797       0.67598890 </v>
   <v>       0.55016537       0.20046081       0.67480910 </v>
   <v>       0.55188937       0.69628449       0.67327956 </v>
   <v>       0.20212039       0.44898945       0.67475233 </v>
   <v>       0.19790932       0.95056587       0.67361825 </v>
   <v>       0.69886518       0.45236517       0.67539662 </v>
   <v>       0.70341956       0.95625627       0.67584770 </v>
   <v>       0.42034111       0.33451817       0.64939508 </v>
   <v>       0.41545233       0.82903755       0.65195706 </v>
   <v>       0.92345354       0.32916915       0.64527427 </v>
   <v>       0.91811129       0.82699576       0.64838927 </v>
   <v>       0.33380808       0.07893692       0.64987534 </v>
   <v>       0.32515888       0.58399724       0.64977517 </v>
   <v>       0.82792714       0.08497532       0.64809264 </v>
   <v>       0.83545020       0.57638703       0.65022972 </v>
   <v>       0.00447104       0.24373801       0.63022688 </v>
   <v>       0.99680352       0.74768807       0.63126676 </v>
   <v>       0.49833021       0.25172680       0.63155002 </v>
   <v>       0.49248234       0.75571353       0.63143770 </v>
   <v>       0.25336549       0.00283028       0.63111421 </v>
   <v>       0.24779847       0.50183303       0.63166217 </v>
   <v>       0.74945993       0.00225631       0.63186124 </v>
   <v>       0.74231991       0.51708914       0.63315765 </v>
   <v>       0.44874502       0.30128397       0.76888902 </v>
   <v>       0.44874501       0.80128391       0.76888902 </v>
   <v>       0.94874497       0.30128397       0.76888902 </v>
   <v>       0.94874501       0.80128391       0.76888902 </v>
   <v>       0.30127600       0.05129450       0.76887296 </v>
   <v>       0.30127601       0.55129450       0.76887296 </v>
   <v>       0.80127594       0.05129450       0.76887296 </v>
   <v>       0.80127598       0.55129450       0.76887296 </v>
   <v>       0.07877100       0.17118050       0.74344197 </v>
   <v>       0.07877101       0.67118045       0.74344197 </v>
   <v>       0.57877100       0.17118050       0.74344197 </v>
   <v>       0.57877099       0.67118045       0.74344197 </v>
   <v>       0.17119950       0.42117448       0.74342103 </v>
   <v>       0.17119950       0.92117451       0.74342103 </v>
   <v>       0.67119951       0.42117448       0.74342103 </v>
   <v>       0.67119950       0.92117451       0.74342103 </v>
   <v>       0.05125600       0.19871499       0.76888902 </v>
   <v>       0.05125600       0.69871493       0.76888902 </v>
   <v>       0.55125603       0.19871499       0.76888902 </v>
   <v>       0.55125602       0.69871493       0.76888902 </v>
   <v>       0.19872349       0.44870397       0.76887205 </v>
   <v>       0.19872349       0.94870397       0.76887205 </v>
   <v>       0.69872352       0.44870397       0.76887205 </v>
   <v>       0.69872351       0.94870397       0.76887205 </v>
   <v>       0.42123152       0.32881747       0.74344197 </v>
   <v>       0.42123151       0.82881744       0.74344197 </v>
   <v>       0.92123147       0.32881747       0.74344197 </v>
   <v>       0.92123151       0.82881744       0.74344197 </v>
   <v>       0.32880050       0.07882500       0.74342103 </v>
   <v>       0.32880049       0.57882496       0.74342103 </v>
   <v>       0.82880048       0.07882500       0.74342103 </v>
   <v>       0.82880052       0.57882496       0.74342103 </v>
   <v>       0.00000350       0.25000148       0.72582199 </v>
   <v>       0.00000350       0.75000145       0.72582199 </v>
   <v>       0.50000351       0.25000148       0.72582199 </v>
   <v>       0.50000350       0.75000145       0.72582199 </v>
   <v>       0.25000050       0.00000000       0.72580398 </v>
   <v>       0.25000052       0.50000000       0.72580398 </v>
   <v>       0.75000050       0.00000000       0.72580398 </v>
   <v>       0.75000049       0.50000000       0.72580398 </v>
   <v>       0.72085994       0.46349762       0.54964741 </v>
   <v>       0.74456075       0.51813532       0.52787353 </v>
   <v>       0.65780562       0.55997830       0.56481988 </v>
   <v>       0.69541828       0.64822533       0.56594468 </v>
   <v>       0.83841914       0.52467099       0.58135474 </v>
   <v>       0.77478711       0.59289223       0.59003586 </v>
   <v>       0.87825236       0.56389193       0.54740337 </v>
   <v>       0.82113413       0.62669775       0.53376515 </v>
   <v>       0.87919525       0.49091061       0.53198482 </v>
   <v>       0.86256239       0.45520616       0.55812732 </v>
   <v>       0.88784910       0.35414046       0.53488243 </v>
   <v>       0.79694489       0.34813678       0.54413752 </v>
   <v>       0.62670218       0.56778285       0.52713748 </v>
   <v>       0.70916630       0.62002470       0.52185633 </v>
   <v>       0.63730539       0.66701064       0.53348634 </v>
   <v>       0.73035034       0.48198226       0.60416601 </v>
   <v>       0.74549760       0.42548964       0.58099066 </v>
   <v>       0.67283500       0.49312537       0.58156224 </v>
   <v>       0.83826290       0.68133287       0.57585132 </v>
   <v>       0.87456845       0.71719544       0.55312998 </v>
   <v>       0.92671636       0.64827913       0.56845415 </v>
   <v>       0.84417172       0.40075824       0.49982122 </v>
   <v>       0.80611701       0.31493199       0.50610538 </v>
   <v>       0.67629651       0.32804308       0.52932944 </v>
   <v>       0.76362055       0.47914332       0.48311549 </v>
   <v>       0.55360409       0.38074807       0.52447191 </v>
   <v>       0.63937639       0.53145545       0.47820627 </v>
   <v>       0.53515591       0.48546448       0.49903093 </v>
   <v>       0.00200394       0.24602373       0.55705093 </v>
   <v>       0.00643866       0.76162481       0.55672128 </v>
   <v>       0.49935778       0.24653027       0.55478327 </v>
   <v>       0.49757615       0.75130371       0.55708408 </v>
   <v>       0.25010336       0.50412012       0.55589781 </v>
   <v>       0.24766744       0.99732097       0.55598053 </v>
   <v>       0.75794926       0.99389791       0.55544404 </v>
   <v>       0.99967914       0.24848640       0.64829391 </v>
   <v>       0.99943225       0.74936640       0.64950766 </v>
   <v>       0.49942597       0.25087475       0.64971223 </v>
   <v>       0.49796320       0.74972210       0.64942188 </v>
   <v>       0.24948100       0.50269564       0.64960820 </v>
   <v>       0.25041371       0.99967387       0.64919497 </v>
   <v>       0.74761898       0.50671492       0.65000855 </v>
   <v>       0.74997625       0.00228796       0.64998401 </v>
   <v>       0.49998898       0.24999498       0.74327702 </v>
   <v>       0.49998903       0.74999496       0.74327702 </v>
   <v>       0.99998898       0.24999498       0.74327702 </v>
   <v>       0.99998903       0.74999496       0.74327702 </v>
   <v>       0.25000050       0.00000100       0.74325596 </v>
   <v>       0.25000052       0.50000100       0.74325596 </v>
   <v>       0.75000050       0.00000100       0.74325596 </v>
   <v>       0.75000049       0.50000100       0.74325596 </v>
   <v>       0.73052415       0.39874053       0.50613834 </v>
   <v>       0.67006265       0.37232462       0.51714317 </v>
   <v>       0.71882009       0.45712341       0.49167332 </v>
   <v>       0.59783872       0.40223154       0.51466782 </v>
   <v>       0.64842365       0.48786154       0.48858500 </v>
   <v>       0.58624526       0.45957913       0.50098946 </v>
   <v>       0.76349390       0.50056171       0.54382612 </v>
   <v>       0.69426653       0.59915863       0.55587595 </v>
   <v>       0.78148192       0.54347680       0.57998563 </v>
   <v>       0.83622549       0.60656709       0.54876900 </v>
   <v>       0.84050670       0.45941879       0.54164789 </v>
   <v>       0.83280905       0.37759415       0.53343335 </v>
   <v>       0.66491036       0.61123077       0.53320308 </v>
   <v>       0.72943441       0.48062583       0.58672679 </v>
   <v>       0.87193461       0.66562154       0.56218526 </v>
   <v>       0.80447564       0.37416842       0.50958706 </v>
   <v>       0.05362541       0.20447105       0.56449755 </v>
   <v>       0.04718107       0.70516279       0.56507628 </v>
   <v>       0.55142024       0.20955992       0.56437368 </v>
   <v>       0.53196676       0.70798451       0.57032721 </v>
   <v>       0.44852487       0.29038763       0.56526302 </v>
   <v>       0.45252190       0.80755581       0.56466696 </v>
   <v>       0.95388100       0.28400774       0.57034821 </v>
   <v>       0.97039038       0.80958039       0.56913220 </v>
   <v>       0.20287647       0.45381347       0.56423541 </v>
   <v>       0.19723394       0.95597992       0.56447606 </v>
   <v>       0.71145030       0.94429009       0.56442765 </v>
   <v>       0.29819472       0.04119457       0.56567149 </v>
   <v>       0.29474129       0.54852853       0.56572369 </v>
   <v>       0.79429404       0.04721582       0.56442820 </v>
   <v>       0.03964836       0.20605733       0.65911926 </v>
   <v>       0.04369771       0.70813768       0.65898147 </v>
   <v>       0.54203894       0.20642182       0.65882232 </v>
   <v>       0.54690739       0.70457214       0.65706856 </v>
   <v>       0.20601230       0.45182944       0.65927591 </v>
   <v>       0.20506917       0.95700630       0.65820868 </v>
   <v>       0.70205446       0.46416013       0.65986923 </v>
   <v>       0.70782830       0.95979166       0.66029094 </v>
   <v>       0.45270701       0.30082452       0.65921095 </v>
   <v>       0.45044422       0.79448267       0.66059892 </v>
   <v>       0.95121663       0.29965648       0.65560201 </v>
   <v>       0.95239292       0.79795829       0.65791351 </v>
   <v>       0.29910305       0.04634629       0.65933219 </v>
   <v>       0.29067012       0.54903914       0.65946106 </v>
   <v>       0.79814842       0.05219590       0.65870951 </v>
   <v>       0.80455202       0.54585195       0.65952895 </v>
   <v>       0.04586250       0.20411950       0.75272599 </v>
   <v>       0.04586250       0.70411946       0.75272599 </v>
   <v>       0.54586251       0.20411950       0.75272599 </v>
   <v>       0.54586250       0.70411946       0.75272599 </v>
   <v>       0.20411900       0.45410100       0.75270499 </v>
   <v>       0.20411899       0.95410095       0.75270499 </v>
   <v>       0.70411898       0.45410100       0.75270499 </v>
   <v>       0.70411896       0.95410095       0.75270499 </v>
   <v>       0.45414002       0.29588849       0.75272697 </v>
   <v>       0.45414001       0.79588852       0.75272697 </v>
   <v>       0.95414002       0.29588849       0.75272697 </v>
   <v>       0.95414006       0.79588852       0.75272697 </v>
   <v>       0.29588249       0.04590050       0.75270499 </v>
   <v>       0.29588248       0.54590053       0.75270499 </v>
   <v>       0.79588244       0.04590050       0.75270499 </v>
   <v>       0.79588248       0.54590053       0.75270499 </v>
   <v>       0.77287358       0.56288222       0.55733407 </v>
   <v>       0.49555298       0.00421256       0.55222733 </v>
   <v>       0.48962037       0.51017491       0.55446161 </v>
   <v>       0.00185661       0.00233262       0.55184909 </v>
   <v>       0.01257094       0.50978373       0.55550143 </v>
   <v>       0.25300691       0.25181925       0.55265088 </v>
   <v>       0.25235691       0.74792397       0.55285472 </v>
   <v>       0.73897783       0.23757306       0.55558799 </v>
   <v>       0.73720881       0.76263737       0.54838642 </v>
   <v>       0.99808894       0.00293790       0.65345431 </v>
   <v>       0.00533741       0.49672607       0.65521626 </v>
   <v>       0.49769159       0.99885047       0.65397651 </v>
   <v>       0.49638301       0.49792690       0.65446635 </v>
   <v>       0.25221940       0.24815055       0.65445402 </v>
   <v>       0.24566345       0.74790707       0.65404006 </v>
   <v>       0.75193947       0.24844872       0.65473777 </v>
   <v>       0.75233450       0.75025266       0.65429462 </v>
   <v>       0.14504812       0.10827858       0.60792347 </v>
   <v>       0.14437371       0.60570602       0.60823024 </v>
   <v>       0.64500654       0.10711490       0.60821070 </v>
   <v>       0.63051485       0.61929820       0.61107278 </v>
   <v>       0.35406190       0.39076802       0.60811406 </v>
   <v>       0.35811636       0.89117063       0.60844482 </v>
   <v>       0.86851137       0.38163101       0.61083830 </v>
   <v>       0.85743029       0.89449857       0.60822816 </v>
   <v>       0.11018361       0.35521621       0.60830032 </v>
   <v>       0.10909615       0.85955758       0.60807481 </v>
   <v>       0.59654066       0.34663096       0.60658055 </v>
   <v>       0.60424710       0.85919391       0.60786120 </v>
   <v>       0.39223913       0.14359189       0.60814977 </v>
   <v>       0.39504285       0.64064622       0.60844537 </v>
   <v>       0.89041645       0.14373983       0.60764735 </v>
   <v>       0.90519760       0.64613739       0.61115037 </v>
   <v>       0.00000000       0.00000000       0.75492797 </v>
   <v>       0.00000000       0.50000000       0.75492797 </v>
   <v>       0.50000000       0.00000000       0.75492797 </v>
   <v>       0.49999999       0.50000000       0.75492797 </v>
   <v>       0.25000050       0.25000000       0.75493902 </v>
   <v>       0.25000051       0.74999997       0.75493902 </v>
   <v>       0.75000047       0.25000000       0.75493902 </v>
   <v>       0.75000046       0.74999997       0.75493902 </v>
   <v>       0.13579050       0.11421000       0.70478299 </v>
   <v>       0.13579050       0.61420998       0.70478299 </v>
   <v>       0.63579045       0.11421000       0.70478299 </v>
   <v>       0.63579049       0.61420998       0.70478299 </v>
   <v>       0.36420952       0.38578999       0.70478299 </v>
   <v>       0.36420950       0.88578996       0.70478299 </v>
   <v>       0.86420954       0.38578999       0.70478299 </v>
   <v>       0.86420953       0.88578996       0.70478299 </v>
   <v>       0.11421799       0.36421899       0.70478098 </v>
   <v>       0.11421799       0.86421899       0.70478098 </v>
   <v>       0.61421800       0.36421899       0.70478098 </v>
   <v>       0.61421799       0.86421899       0.70478098 </v>
   <v>       0.38578201       0.13578149       0.70478202 </v>
   <v>       0.38578200       0.63578149       0.70478202 </v>
   <v>       0.88578199       0.13578149       0.70478202 </v>
   <v>       0.88578203       0.63578149       0.70478202 </v>
   <v>       0.13466700       0.11533200       0.80125603 </v>
   <v>       0.13466699       0.61533199       0.80125603 </v>
   <v>       0.63466699       0.11533200       0.80125603 </v>
   <v>       0.63466698       0.61533199       0.80125603 </v>
   <v>       0.36533300       0.38466799       0.80125603 </v>
   <v>       0.36533299       0.88466796       0.80125603 </v>
   <v>       0.86533295       0.38466799       0.80125603 </v>
   <v>       0.86533294       0.88466796       0.80125603 </v>
   <v>       0.11532850       0.36533700       0.80126500 </v>
   <v>       0.11532850       0.86533698       0.80126500 </v>
   <v>       0.61532850       0.36533700       0.80126500 </v>
   <v>       0.61532849       0.86533698       0.80126500 </v>
   <v>       0.38467151       0.13466300       0.80126500 </v>
   <v>       0.38467150       0.63466297       0.80126500 </v>
   <v>       0.88467149       0.13466300       0.80126500 </v>
   <v>       0.88467153       0.63466297       0.80126500 </v>
   <v>       0.99772958       0.99801362       0.60282223 </v>
   <v>       0.00004481       0.50348882       0.60500956 </v>
   <v>       0.50055181       0.00024253       0.60257847 </v>
   <v>       0.50109673       0.50100083       0.60357537 </v>
   <v>       0.25389526       0.24864891       0.60290849 </v>
   <v>       0.24684829       0.74995525       0.60163993 </v>
   <v>       0.74800784       0.24833363       0.60423511 </v>
   <v>       0.74262733       0.76024072       0.60500290 </v>
   <v>       0.00000050       0.00000050       0.70482896 </v>
   <v>       0.00000050       0.50000048       0.70482896 </v>
   <v>       0.50000048       0.00000050       0.70482896 </v>
   <v>       0.50000046       0.50000048       0.70482896 </v>
   <v>       0.24999999       0.24999947       0.70482499 </v>
   <v>       0.25000001       0.74999950       0.70482499 </v>
   <v>       0.74999999       0.24999947       0.70482499 </v>
   <v>       0.74999998       0.74999950       0.70482499 </v>
   <v>       0.00000000       0.00000000       0.80731797 </v>
   <v>       0.00000000       0.50000000       0.80731797 </v>
   <v>       0.50000000       0.00000000       0.80731797 </v>
   <v>       0.49999999       0.50000000       0.80731797 </v>
   <v>       0.24999999       0.25000000       0.80731797 </v>
   <v>       0.25000001       0.74999997       0.80731797 </v>
   <v>       0.74999999       0.25000000       0.80731797 </v>
   <v>       0.74999998       0.74999997       0.80731797 </v>
  </varray>
 </structure>
</modeling>
