 vasp.6.2.1 16May21 (build Nov 15 2021 14:57:28) complex                         
 executed on             LinuxPGI date 2023.07.30  16:41:17
 running on    4 total cores
 distrk:  each k-point on    4 cores,    1 groups
 distr:  one band on NCORE=   1 cores,    4 groups


--------------------------------------------------------------------------------------------------------


 INCAR:
   SYSTEM = PSC
   ISTART = 1
   ICHARG = 1
   PREC = Normal
   ENCUT = 500
   GGA_COMPAT = F
   NELM = 600
   ISYM = 0
   LREAL = Auto
   ISMEAR = 0
   SIGMA = 0.05
   AMIN = 0.01
   BMIX = 0.01
   LVTOT = T
   LWAVE = F
   LDIPOL = T
   IDIPOL = 3
   LVDW = T
   IVDW = 12

 POTCAR:    PAW_PBE H 15Jun2001                   
 POTCAR:    PAW_PBE C 08Apr2002                   
 POTCAR:    PAW_PBE N 08Apr2002                   
 POTCAR:    PAW_PBE I 08Apr2002                   
 POTCAR:    PAW_PBE Pb 08Apr2002                  
 WARNING: For LVTOT=.TRUE., VASP.5.x writes the TOTAL local potential to the
     file LOCPOT. If you want only the Hartree contributions, use LVHAR=.TRUE.
     instead. 

 POTCAR:    PAW_PBE H 15Jun2001                   
   SHA256 =  030f79b5d3ab3cf0e668861823c8fb652ff669f3e15e46930bd03bfd63a607b6 H/POTCAR              
   COPYR  = (c) Copyright 15Jun2001 Georg Kresse                                                    
   COPYR  = This file is part of the software VASP. Any use, copying, and all other rights are regul
   COPYR  = If you do not have a valid VASP license, you may not use, copy or distribute this file. 
   VRHFIN =H: ultrasoft test                                                                        
   LEXCH  = PE                                                                                      
   EATOM  =    12.4884 eV,    0.9179 Ry                                                             
                                                                                                    
   TITEL  = PAW_PBE H 15Jun2001                                                                     
   LULTRA =        F    use ultrasoft PP ?                                                          
   IUNSCR =        0    unscreen: 0-lin 1-nonlin 2-no                                               
   RPACOR =    0.000    partial core radius                                                         
   POMASS =    1.000; ZVAL   =    1.000    mass and valenz                                          
   RCORE  =    1.100    outmost cutoff radius                                                       
   RWIGS  =    0.700; RWIGS  =    0.370    wigner-seitz radius (au A)                               
   ENMAX  =  250.000; ENMIN  =  200.000 eV                                                          
   RCLOC  =    0.701    cutoff for local pot                                                        
   LCOR   =        T    correct aug charges                                                         
   LPAW   =        T    paw PP                                                                      
   EAUG   =  400.000                                                                                
   RMAX   =    1.123    core radius for proj-oper                                                   
   RAUG   =    1.200    factor for augmentation sphere                                              
   RDEP   =    1.112    radius for radial grids                                                     
   RDEPT  =    0.926    core radius for aug-charge                                                  
                                                                                                    
   Atomic configuration                                                                             
    2 entries                                                                                       
     n  l   j            E        occ.                                                              
     1  0  0.50        -6.4927   1.0000                                                             
     2  1  0.50        -3.4015   0.0000                                                             
   Description                                                                                      
     l       E           TYP  RCUT    TYP  RCUT                                                     
     0     -6.4927494     23  1.100                                                                 
     0      6.8029130     23  1.100                                                                 
     1     -4.0817478     23  1.100                                                                 
  local pseudopotential read in
  atomic valenz-charges read in
  non local Contribution for L=            0  read in
    real space projection operators read in
  non local Contribution for L=            0  read in
    real space projection operators read in
  non local Contribution for L=            1  read in
    real space projection operators read in
    PAW grid and wavefunctions read in
 
   number of l-projection  operators is LMAX  =            3
   number of lm-projection operators is LMMAX =            5
 
 POTCAR:    PAW_PBE C 08Apr2002                   
   SHA256 =  253f7b50bb8d59471dbedb8285d89021f4a42ed1a2c5d38a03a736e69125dd95 C/POTCAR              
   COPYR  = (c) Copyright 08Apr2002 Georg Kresse                                                    
   COPYR  = This file is part of the software VASP. Any use, copying, and all other rights are regul
   COPYR  = If you do not have a valid VASP license, you may not use, copy or distribute this file. 
   VRHFIN =C: s2p2                                                                                  
   LEXCH  = PE                                                                                      
   EATOM  =   147.1560 eV,   10.8157 Ry                                                             
                                                                                                    
   TITEL  = PAW_PBE C 08Apr2002                                                                     
   LULTRA =        F    use ultrasoft PP ?                                                          
   IUNSCR =        1    unscreen: 0-lin 1-nonlin 2-no                                               
   RPACOR =    1.200    partial core radius                                                         
   POMASS =   12.011; ZVAL   =    4.000    mass and valenz                                          
   RCORE  =    1.500    outmost cutoff radius                                                       
   RWIGS  =    1.630; RWIGS  =    0.863    wigner-seitz radius (au A)                               
   ENMAX  =  400.000; ENMIN  =  300.000 eV                                                          
   ICORE  =        2    local potential                                                             
   LCOR   =        T    correct aug charges                                                         
   LPAW   =        T    paw PP                                                                      
   EAUG   =  644.873                                                                                
   DEXC   =    0.000                                                                                
   RMAX   =    1.529    core radius for proj-oper                                                   
   RAUG   =    1.300    factor for augmentation sphere                                              
   RDEP   =    1.501    radius for radial grids                                                     
   RDEPT  =    1.300    core radius for aug-charge                                                  
                                                                                                    
   Atomic configuration                                                                             
    4 entries                                                                                       
     n  l   j            E        occ.                                                              
     1  0  0.50      -273.3789   2.0000                                                             
     2  0  0.50       -13.7508   2.0000                                                             
     2  1  0.50        -5.2854   2.0000                                                             
     3  2  1.50        -5.4423   0.0000                                                             
   Description                                                                                      
     l       E           TYP  RCUT    TYP  RCUT                                                     
     0    -13.7508458     23  1.200                                                                 
     0     -8.2022199     23  1.200                                                                 
     1     -5.2854383     23  1.500                                                                 
     1     34.0145650     23  1.500                                                                 
     2     -5.4423304      7  1.500                                                                 
  local pseudopotential read in
  partial core-charges read in
  partial kinetic energy density read in
  atomic valenz-charges read in
  non local Contribution for L=            0  read in
    real space projection operators read in
  non local Contribution for L=            0  read in
    real space projection operators read in
  non local Contribution for L=            1  read in
    real space projection operators read in
  non local Contribution for L=            1  read in
    real space projection operators read in
    PAW grid and wavefunctions read in
 
   number of l-projection  operators is LMAX  =            4
   number of lm-projection operators is LMMAX =            8
 
 POTCAR:    PAW_PBE N 08Apr2002                   
   SHA256 =  e053789ff3a61a86a1b75d8a110fcc91f86041011e7b0817c7c99e4e8a6349d7 N/POTCAR              
   COPYR  = (c) Copyright 08Apr2002 Georg Kresse                                                    
   COPYR  = This file is part of the software VASP. Any use, copying, and all other rights are regul
   COPYR  = If you do not have a valid VASP license, you may not use, copy or distribute this file. 
   VRHFIN =N: s2p3                                                                                  
   LEXCH  = PE                                                                                      
   EATOM  =   264.5486 eV,   19.4438 Ry                                                             
                                                                                                    
   TITEL  = PAW_PBE N 08Apr2002                                                                     
   LULTRA =        F    use ultrasoft PP ?                                                          
   IUNSCR =        1    unscreen: 0-lin 1-nonlin 2-no                                               
   RPACOR =    1.200    partial core radius                                                         
   POMASS =   14.001; ZVAL   =    5.000    mass and valenz                                          
   RCORE  =    1.500    outmost cutoff radius                                                       
   RWIGS  =    1.400; RWIGS  =    0.741    wigner-seitz radius (au A)                               
   ENMAX  =  400.000; ENMIN  =  300.000 eV                                                          
   ICORE  =        2    local potential                                                             
   LCOR   =        T    correct aug charges                                                         
   LPAW   =        T    paw PP                                                                      
   EAUG   =  627.112                                                                                
   DEXC   =    0.000                                                                                
   RMAX   =    1.529    core radius for proj-oper                                                   
   RAUG   =    1.300    factor for augmentation sphere                                              
   RDEP   =    1.514    radius for radial grids                                                     
   RDEPT  =    1.338    core radius for aug-charge                                                  
                                                                                                    
   Atomic configuration                                                                             
    4 entries                                                                                       
     n  l   j            E        occ.                                                              
     1  0  0.50      -384.7179   2.0000                                                             
     2  0  0.50       -18.5828   2.0000                                                             
     2  1  0.50        -7.0898   3.0000                                                             
     3  2  1.50        -6.8029   0.0000                                                             
   Description                                                                                      
     l       E           TYP  RCUT    TYP  RCUT                                                     
     0    -18.5828119     23  1.200                                                                 
     0    -13.5018863     23  1.200                                                                 
     1     -7.0897853     23  1.500                                                                 
     1      9.5240782     23  1.500                                                                 
     2     -6.8029130      7  1.500                                                                 
  local pseudopotential read in
  partial core-charges read in
  partial kinetic energy density read in
  atomic valenz-charges read in
  non local Contribution for L=            0  read in
    real space projection operators read in
  non local Contribution for L=            0  read in
    real space projection operators read in
  non local Contribution for L=            1  read in
    real space projection operators read in
  non local Contribution for L=            1  read in
    real space projection operators read in
    PAW grid and wavefunctions read in
 
   number of l-projection  operators is LMAX  =            4
   number of lm-projection operators is LMMAX =            8
 
 POTCAR:    PAW_PBE I 08Apr2002                   
   SHA256 =  e40f3f59b681c1fc3e3091736183c4589116986673d2b852a5012aec72758799 I/POTCAR              
   COPYR  = (c) Copyright 08Apr2002 Georg Kresse                                                    
   COPYR  = This file is part of the software VASP. Any use, copying, and all other rights are regul
   COPYR  = If you do not have a valid VASP license, you may not use, copy or distribute this file. 
   VRHFIN =I : s2p5                                                                                 
   LEXCH  = PE                                                                                      
   EATOM  =   315.8678 eV,   23.2156 Ry                                                             
                                                                                                    
   TITEL  = PAW_PBE I 08Apr2002                                                                     
   LULTRA =        F    use ultrasoft PP ?                                                          
   IUNSCR =        1    unscreen: 0-lin 1-nonlin 2-no                                               
   RPACOR =    2.200    partial core radius                                                         
   POMASS =  126.904; ZVAL   =    7.000    mass and valenz                                          
   RCORE  =    2.300    outmost cutoff radius                                                       
   RWIGS  =    2.810; RWIGS  =    1.487    wigner-seitz radius (au A)                               
   ENMAX  =  175.647; ENMIN  =  131.735 eV                                                          
   ICORE  =        3    local potential                                                             
   LCOR   =        T    correct aug charges                                                         
   LPAW   =        T    paw PP                                                                      
   EAUG   =  370.139                                                                                
   DEXC   =    0.000                                                                                
   RMAX   =    2.359    core radius for proj-oper                                                   
   RAUG   =    1.300    factor for augmentation sphere                                              
   RDEP   =    2.392    radius for radial grids                                                     
   RDEPT  =    2.170    core radius for aug-charge                                                  
                                                                                                    
   Atomic configuration                                                                             
   13 entries                                                                                       
     n  l   j            E        occ.                                                              
     1  0  0.50    -32976.3739   2.0000                                                             
     2  0  0.50     -5094.5933   2.0000                                                             
     2  1  1.50     -4572.0131   6.0000                                                             
     3  0  0.50     -1028.2813   2.0000                                                             
     3  1  1.50      -859.0250   6.0000                                                             
     3  2  2.50      -605.7620  10.0000                                                             
     4  0  0.50      -180.5540   2.0000                                                             
     4  1  1.50      -127.5306   6.0000                                                             
     4  2  2.50       -50.2720  10.0000                                                             
     5  0  0.50       -17.4058   2.0000                                                             
     5  1  0.50        -7.0851   5.0000                                                             
     5  2  1.50        -7.0750   0.0000                                                             
     4  3  2.50        -7.0750   0.0000                                                             
   Description                                                                                      
     l       E           TYP  RCUT    TYP  RCUT                                                     
     0    -17.4058016     23  2.300                                                                 
     0    -18.7663842     23  2.300                                                                 
     1     -7.0850686     23  2.300                                                                 
     1     -4.2150896     23  2.300                                                                 
     2     -7.0750295     23  2.300                                                                 
     3     -1.3605826     23  2.300                                                                 
  local pseudopotential read in
  partial core-charges read in
  partial kinetic energy density read in
  atomic valenz-charges read in
  non local Contribution for L=            0  read in
    real space projection operators read in
  non local Contribution for L=            0  read in
    real space projection operators read in
  non local Contribution for L=            1  read in
    real space projection operators read in
  non local Contribution for L=            1  read in
    real space projection operators read in
  non local Contribution for L=            2  read in
    real space projection operators read in
    PAW grid and wavefunctions read in
 
   number of l-projection  operators is LMAX  =            5
   number of lm-projection operators is LMMAX =           13
 
 POTCAR:    PAW_PBE Pb 08Apr2002                  
   SHA256 =  797118a27cf1bcd06b9881c67a26cdde129e3cd1a551dd4a281f9681ce847303 Pb/POTCAR             
   COPYR  = (c) Copyright 08Apr2002 Georg Kresse                                                    
   COPYR  = This file is part of the software VASP. Any use, copying, and all other rights are regul
   COPYR  = If you do not have a valid VASP license, you may not use, copy or distribute this file. 
   VRHFIN =Pb:                                                                                      
   LEXCH  = PE                                                                                      
   EATOM  =    96.9868 eV,    7.1283 Ry                                                             
                                                                                                    
   TITEL  = PAW_PBE Pb 08Apr2002                                                                    
   LULTRA =        F    use ultrasoft PP ?                                                          
   IUNSCR =        1    unscreen: 0-lin 1-nonlin 2-no                                               
   RPACOR =    2.200    partial core radius                                                         
   POMASS =  207.200; ZVAL   =    4.000    mass and valenz                                          
   RCORE  =    3.100    outmost cutoff radius                                                       
   RWIGS  =    3.260; RWIGS  =    1.725    wigner-seitz radius (au A)                               
   ENMAX  =   97.973; ENMIN  =   73.480 eV                                                          
   ICORE  =        3    local potential                                                             
   LCOR   =        T    correct aug charges                                                         
   LPAW   =        T    paw PP                                                                      
   EAUG   =  234.873                                                                                
   DEXC   =    0.000                                                                                
   RMAX   =    3.158    core radius for proj-oper                                                   
   RAUG   =    1.300    factor for augmentation sphere                                              
   RDEP   =    3.202    radius for radial grids                                                     
   RDEPT  =    2.659    core radius for aug-charge                                                  
                                                                                                    
   Atomic configuration                                                                             
   17 entries                                                                                       
     n  l   j            E        occ.                                                              
     1  0  0.50    -88091.8466   2.0000                                                             
     2  0  0.50    -15753.4197   2.0000                                                             
     2  1  1.50    -13508.1797   6.0000                                                             
     3  0  0.50     -3781.7194   2.0000                                                             
     3  1  1.50     -3138.2529   6.0000                                                             
     3  2  2.50     -2483.2977  10.0000                                                             
     4  0  0.50      -856.2895   2.0000                                                             
     4  1  1.50      -645.4943   6.0000                                                             
     4  2  2.50      -401.8768  10.0000                                                             
     4  3  3.50      -132.9059  14.0000                                                             
     5  0  0.50      -144.0950   2.0000                                                             
     5  1  1.50       -85.7879   6.0000                                                             
     5  2  2.50       -21.1769  10.0000                                                             
     6  0  0.50       -12.0372   2.0000                                                             
     6  1  1.50        -3.4971   2.0000                                                             
     6  2  2.50        -1.3606   0.0000                                                             
     5  3  2.50        -2.7212   0.0000                                                             
   Description                                                                                      
     l       E           TYP  RCUT    TYP  RCUT                                                     
     0    -12.0371566     23  3.100                                                                 
     0    -13.3977392     23  3.100                                                                 
     1     -3.4971341     23  3.100                                                                 
     1     -5.4423304     23  3.100                                                                 
     2     -1.3605826     23  3.100                                                                 
     3     -1.3605826     23  3.100                                                                 
  local pseudopotential read in
  partial core-charges read in
  partial kinetic energy density read in
  atomic valenz-charges read in
  non local Contribution for L=            0  read in
    real space projection operators read in
  non local Contribution for L=            0  read in
    real space projection operators read in
  non local Contribution for L=            1  read in
    real space projection operators read in
  non local Contribution for L=            1  read in
    real space projection operators read in
  non local Contribution for L=            2  read in
    real space projection operators read in
    PAW grid and wavefunctions read in
 
   number of l-projection  operators is LMAX  =            5
   number of lm-projection operators is LMMAX =           13
 
 Optimization of the real space projectors (new method)

 maximal supplied QI-value         = 34.20
 optimisation between [QCUT,QGAM] = [ 11.29, 22.57] = [ 35.68,142.71] Ry 
 Optimized for a Real-space Cutoff    1.16 Angstroem

   l    n(q)    QCUT    max X(q) W(low)/X(q) W(high)/X(q)  e(spline) 
   0      8    11.287    19.460    0.40E-03    0.73E-03    0.16E-06
   0      8    11.287    12.209    0.38E-03    0.70E-03    0.15E-06
   1      7    11.287     4.655    0.22E-03    0.25E-04    0.22E-06
 Optimization of the real space projectors (new method)

 maximal supplied QI-value         = 25.13
 optimisation between [QCUT,QGAM] = [ 11.31, 22.87] = [ 35.82,146.48] Ry 
 Optimized for a Real-space Cutoff    1.00 Angstroem

   l    n(q)    QCUT    max X(q) W(low)/X(q) W(high)/X(q)  e(spline) 
   0      7    11.310   115.676    0.43E-03    0.13E-02    0.19E-06
   0      7    11.310    87.132    0.43E-03    0.13E-02    0.18E-06
   1      6    11.310     4.429    0.42E-03    0.74E-03    0.11E-06
   1      6    11.310     2.733    0.34E-03    0.55E-03    0.92E-07
 Optimization of the real space projectors (new method)

 maximal supplied QI-value         = 25.13
 optimisation between [QCUT,QGAM] = [ 11.31, 22.87] = [ 35.82,146.48] Ry 
 Optimized for a Real-space Cutoff    1.27 Angstroem

   l    n(q)    QCUT    max X(q) W(low)/X(q) W(high)/X(q)  e(spline) 
   0      9    11.310    79.467    0.75E-04    0.16E-03    0.36E-06
   0      9    11.310    66.151    0.74E-04    0.16E-03    0.36E-06
   1      8    11.310    17.416    0.35E-03    0.12E-03    0.95E-06
   1      8    11.310    12.382    0.37E-03    0.13E-03    0.98E-06
 Optimization of the real space projectors (new method)

 maximal supplied QI-value         = 16.25
 optimisation between [QCUT,QGAM] = [ 11.38, 22.75] = [ 36.24,144.96] Ry 
 Optimized for a Real-space Cutoff    1.31 Angstroem

   l    n(q)    QCUT    max X(q) W(low)/X(q) W(high)/X(q)  e(spline) 
   0      9    11.376   194.483    0.24E-03    0.23E-03    0.67E-07
   0      9    11.376   190.334    0.23E-03    0.22E-03    0.65E-07
   1      8    11.376   116.687    0.25E-03    0.63E-04    0.16E-06
   1      8    11.376    88.696    0.25E-03    0.61E-04    0.16E-06
   2      8    11.376     4.877    0.17E-03    0.14E-03    0.29E-07
 Optimization of the real space projectors (new method)

 maximal supplied QI-value         = 12.09
 optimisation between [QCUT,QGAM] = [ 11.37, 22.86] = [ 36.19,146.31] Ry 
 Optimized for a Real-space Cutoff    1.66 Angstroem

   l    n(q)    QCUT    max X(q) W(low)/X(q) W(high)/X(q)  e(spline) 
   0     11    11.369   135.111    0.12E-03    0.69E-04    0.19E-05
   0     11    11.369   146.850    0.11E-03    0.65E-04    0.18E-05
   1     11    11.369   148.016    0.17E-03    0.32E-03    0.89E-06
   1     11    11.369   122.989    0.17E-03    0.32E-03    0.91E-06
   2     10    11.369     8.916    0.12E-03    0.45E-04    0.33E-06
  PAW_PBE H 15Jun2001                   :
 energy of atom  1       EATOM=  -12.4884
 kinetic energy error for atom=    0.0020 (will be added to EATOM!!)
  PAW_PBE C 08Apr2002                   :
 energy of atom  2       EATOM= -147.1560
 kinetic energy error for atom=    0.0076 (will be added to EATOM!!)
  PAW_PBE N 08Apr2002                   :
 energy of atom  3       EATOM= -264.5486
 kinetic energy error for atom=    0.0138 (will be added to EATOM!!)
  PAW_PBE I 08Apr2002                   :
 energy of atom  4       EATOM= -315.8678
 kinetic energy error for atom=    0.0009 (will be added to EATOM!!)
  PAW_PBE Pb 08Apr2002                  :
 energy of atom  5       EATOM=  -96.9868
 kinetic energy error for atom=    0.0000 (will be added to EATOM!!)
 
 
 POSCAR:  H  C  N  I Pb
  positions in cartesian coordinates
  No initial velocities read in
 exchange correlation table for  LEXCH =        8
   RHO(1)=    0.500       N(1)  =     2000
   RHO(2)=  100.500       N(2)  =     4000
 


--------------------------------------------------------------------------------------------------------


 ion  position               nearest neighbor table
   1  0.446  0.298  0.582- 187 1.06
   2  0.444  0.821  0.580- 188 1.01
   3  0.958  0.273  0.587- 189 1.02
   4  0.970  0.805  0.586- 190 1.03
   5  0.299  0.046  0.583- 194 1.04
   6  0.299  0.549  0.583- 195 1.05
   7  0.786  0.063  0.581- 196 1.05
   8  0.093  0.181  0.554- 183 0.98
   9  0.077  0.673  0.555- 184 1.04
  10  0.589  0.181  0.555- 185 1.02
  11  0.555  0.663  0.565- 186 1.02
  12  0.339  0.065  0.559- 194 1.02
  13  0.322  0.588  0.558- 195 1.01
  14  0.827  0.082  0.557- 196 1.01
  15  0.070  0.196  0.580- 183 1.01
  16  0.051  0.696  0.581- 184 1.01
  17  0.564  0.215  0.581- 185 1.07
  18  0.522  0.711  0.587- 186 1.03
  19  0.203  0.440  0.581- 191 1.04
  20  0.184  0.957  0.581- 192 1.05
  21  0.698  0.949  0.581- 193 1.04
  22  0.400  0.307  0.557- 187 1.03
  23  0.430  0.845  0.553- 188 1.03
  24  0.911  0.309  0.565- 189 1.02
  25  0.944  0.854  0.563- 190 1.02
  26  0.174  0.420  0.555- 191 1.02
  27  0.161  0.929  0.556- 192 1.01
  28  0.692  0.903  0.557- 193 1.02
  29  0.487  0.234  0.538- 146 1.09
  30  0.504  0.741  0.541- 147 1.08
  31  0.992  0.254  0.541- 144 1.08
  32  0.008  0.775  0.540- 145 1.08
  33  0.247  0.511  0.538- 148 1.11
  34  0.255  0.994  0.539- 149 1.12
  35  0.773  0.984  0.539- 150 1.11
  36  0.451  0.305  0.675- 205 1.01
  37  0.445  0.796  0.676- 206 1.01
  38  0.943  0.302  0.673- 207 0.99
  39  0.946  0.806  0.675- 208 1.06
  40  0.298  0.046  0.675- 209 1.01
  41  0.296  0.553  0.675- 210 1.00
  42  0.807  0.057  0.673- 211 1.01
  43  0.823  0.540  0.675- 212 1.01
  44  0.082  0.169  0.651- 197 1.05
  45  0.083  0.676  0.651- 198 1.05
  46  0.574  0.167  0.649- 199 1.06
  47  0.574  0.672  0.650- 200 1.01
  48  0.179  0.415  0.649- 201 1.03
  49  0.169  0.921  0.646- 202 1.09
  50  0.661  0.445  0.651- 203 0.99
  51  0.669  0.923  0.652- 204 1.09
  52  0.049  0.201  0.675- 197 1.03
  53  0.047  0.703  0.677- 198 1.04
  54  0.550  0.202  0.675- 199 1.03
  55  0.548  0.698  0.675- 200 0.98
  56  0.205  0.446  0.674- 201 1.00
  57  0.195  0.946  0.673- 202 1.00
  58  0.702  0.450  0.676- 203 1.00
  59  0.704  0.957  0.676- 204 1.00
  60  0.419  0.331  0.649- 205 1.03
  61  0.414  0.828  0.651- 206 1.03
  62  0.920  0.324  0.647- 207 1.02
  63  0.922  0.831  0.649- 208 1.01
  64  0.332  0.078  0.651- 209 1.03
  65  0.324  0.586  0.650- 210 1.01
  66  0.830  0.081  0.647- 211 1.03
  67  0.841  0.575  0.650- 212 1.01
  68  0.003  0.245  0.631- 151 1.12
  69  0.006  0.753  0.632- 152 1.12
  70  0.494  0.244  0.632- 153 1.11
  71  0.495  0.751  0.632- 154 1.12
  72  0.253  0.001  0.631- 156 1.11
  73  0.254  0.503  0.631- 155 1.11
  74  0.745  0.997  0.632- 158 1.11
  75  0.739  0.520  0.633- 157 1.12
  76  0.449  0.301  0.769- 221 1.02
  77  0.449  0.801  0.769- 222 1.02
  78  0.949  0.301  0.769- 223 1.02
  79  0.949  0.801  0.769- 224 1.02
  80  0.301  0.051  0.769- 225 1.02
  81  0.301  0.551  0.769- 226 1.02
  82  0.801  0.051  0.769- 227 1.02
  83  0.801  0.551  0.769- 228 1.02
  84  0.079  0.171  0.743- 213 1.02
  85  0.079  0.671  0.743- 214 1.02
  86  0.579  0.171  0.743- 215 1.02
  87  0.579  0.671  0.743- 216 1.02
  88  0.171  0.421  0.743- 217 1.02
  89  0.171  0.921  0.743- 218 1.02
  90  0.671  0.421  0.743- 219 1.02
  91  0.671  0.921  0.743- 220 1.02
  92  0.051  0.199  0.769- 213 1.02
  93  0.051  0.699  0.769- 214 1.02
  94  0.551  0.199  0.769- 215 1.02
  95  0.551  0.699  0.769- 216 1.02
  96  0.199  0.449  0.769- 217 1.02
  97  0.199  0.949  0.769- 218 1.02
  98  0.699  0.449  0.769- 219 1.02
  99  0.699  0.949  0.769- 220 1.02
 100  0.421  0.329  0.743- 221 1.02
 101  0.421  0.829  0.743- 222 1.02
 102  0.921  0.329  0.743- 223 1.02
 103  0.921  0.829  0.743- 224 1.02
 104  0.329  0.079  0.743- 225 1.02
 105  0.329  0.579  0.743- 226 1.02
 106  0.829  0.079  0.743- 227 1.02
 107  0.829  0.579  0.743- 228 1.02
 108  0.000  0.250  0.726- 161 1.09
 109  0.000  0.750  0.726- 162 1.09
 110  0.500  0.250  0.726- 159 1.09
 111  0.500  0.750  0.726- 160 1.09
 112  0.250  0.000  0.726- 163 1.09
 113  0.250  0.500  0.726- 164 1.09
 114  0.750  0.000  0.726- 165 1.09
 115  0.750  0.500  0.726- 166 1.09
 116  0.718  0.457  0.548- 173 1.11
 117  0.741  0.518  0.527- 173 1.12
 118  0.657  0.554  0.563- 174 1.07
 119  0.691  0.645  0.564- 174 1.10
 120  0.839  0.519  0.581- 175 1.10
 121  0.776  0.589  0.589- 175 1.10
 122  0.877  0.560  0.546- 176 1.08
 123  0.819  0.622  0.531- 176 1.08
 124  0.876  0.485  0.530- 177 1.11
 125  0.863  0.455  0.556- 177 1.09
 126  0.886  0.353  0.532- 178 1.10
 127  0.794  0.343  0.542- 178 1.10
 128  0.622  0.563  0.527- 179 1.10
 129  0.703  0.615  0.520- 179 1.12
 130  0.632  0.661  0.533- 179 1.09
 131  0.725  0.473  0.604- 180 1.10
 132  0.743  0.420  0.580- 180 1.12
 133  0.669  0.487  0.581- 180 1.12
 134  0.841  0.679  0.575- 181 1.10
 135  0.876  0.715  0.551- 181 1.11
 136  0.927  0.640  0.566- 181 1.12
 137  0.842  0.398  0.498- 182 1.09
 138  0.803  0.312  0.505- 182 1.08
 139  0.675  0.321  0.526- 168 1.11
 140  0.757  0.486  0.482- 169 1.09
 141  0.548  0.371  0.523- 170 1.10
 142  0.629  0.537  0.478- 171 1.08
 143  0.527  0.484  0.499- 172 1.07
 144  0.003  0.245  0.558-  31 1.08 183 1.31 189 1.34
 145  0.011  0.764  0.557-  32 1.08 184 1.31 190 1.33
 146  0.495  0.243  0.555-  29 1.09 185 1.32 187 1.37
 147  0.495  0.752  0.557-  30 1.08 186 1.30 188 1.36
 148  0.248  0.505  0.556-  33 1.11 195 1.30 191 1.33
 149  0.249  0.997  0.557-  34 1.12 192 1.30 194 1.34
 150  0.760  0.993  0.556-  35 1.11 196 1.30 193 1.33
 151  0.000  0.247  0.649-  68 1.12 197 1.30 207 1.32
 152  0.002  0.754  0.650-  69 1.12 208 1.30 198 1.30
 153  0.497  0.248  0.649-  70 1.11 199 1.30 205 1.35
 154  0.496  0.749  0.650-  71 1.12 200 1.31 206 1.35
 155  0.252  0.501  0.649-  73 1.11 201 1.33 210 1.33
 156  0.251  0.999  0.648-  72 1.11 202 1.29 209 1.36
 157  0.749  0.508  0.651-  75 1.12 203 1.29 212 1.36
 158  0.750  0.002  0.649-  74 1.11 204 1.29 211 1.35
 159  0.500  0.250  0.743- 110 1.09 221 1.31 215 1.31
 160  0.500  0.750  0.743- 111 1.09 222 1.31 216 1.31
 161  1.000  0.250  0.743- 108 1.09 223 1.31 213 1.31
 162  1.000  0.750  0.743- 109 1.09 224 1.31 214 1.31
 163  0.250  0.000  0.743- 112 1.09 225 1.31 218 1.31
 164  0.250  0.500  0.743- 113 1.09 226 1.31 217 1.31
 165  0.750  0.000  0.743- 114 1.09 227 1.31 220 1.31
 166  0.750  0.500  0.743- 115 1.09 228 1.31 219 1.31
 167  0.725  0.400  0.503- 169 1.37 168 1.40 182 1.53
 168  0.666  0.368  0.515- 139 1.11 167 1.40 170 1.42
 169  0.712  0.459  0.490- 140 1.09 167 1.37 171 1.40
 170  0.593  0.397  0.513- 141 1.10 172 1.41 168 1.42
 171  0.641  0.490  0.488- 142 1.08 169 1.40 172 1.44
 172  0.580  0.459  0.500- 143 1.07 170 1.41 171 1.44
 173  0.761  0.495  0.542- 116 1.11 117 1.12 229 1.46 177 1.57
 174  0.691  0.593  0.555- 118 1.07 119 1.10 229 1.52 179 1.53
 175  0.782  0.537  0.579- 120 1.10 121 1.10 180 1.54 229 1.56
 176  0.836  0.603  0.547- 122 1.08 123 1.08 181 1.51 229 1.55
 177  0.838  0.454  0.540- 125 1.09 124 1.11 178 1.53 173 1.57
 178  0.830  0.376  0.532- 127 1.10 126 1.10 177 1.53 182 1.54
 179  0.660  0.607  0.532- 130 1.09 128 1.10 129 1.12 174 1.53
 180  0.727  0.476  0.586- 131 1.10 133 1.12 132 1.12 175 1.54
 181  0.872  0.662  0.560- 134 1.10 135 1.11 136 1.12 176 1.51
 182  0.803  0.370  0.508- 138 1.08 137 1.09 167 1.53 178 1.54
 183  0.059  0.205  0.564-   8 0.98  15 1.01 144 1.31
 184  0.047  0.707  0.565-  16 1.01   9 1.04 145 1.31
 185  0.551  0.209  0.565-  10 1.02  17 1.07 146 1.32
 186  0.527  0.707  0.571-  11 1.02  18 1.03 147 1.30
 187  0.444  0.286  0.566-  22 1.03   1 1.06 146 1.37
 188  0.453  0.810  0.564-   2 1.01  23 1.03 147 1.36
 189  0.955  0.279  0.571-  24 1.02   3 1.02 144 1.34
 190  0.975  0.813  0.569-  25 1.02   4 1.03 145 1.33
 191  0.206  0.452  0.565-  26 1.02  19 1.04 148 1.33
 192  0.196  0.959  0.565-  27 1.01  20 1.05 149 1.30
 193  0.713  0.946  0.565-  28 1.02  21 1.04 150 1.33
 194  0.299  0.038  0.567-  12 1.02   5 1.04 149 1.34
 195  0.292  0.550  0.566-  13 1.01   6 1.05 148 1.30
 196  0.793  0.049  0.565-  14 1.01   7 1.05 150 1.30
 197  0.045  0.204  0.659-  52 1.03  44 1.05 151 1.30
 198  0.047  0.709  0.660-  53 1.04  45 1.05 152 1.30
 199  0.542  0.204  0.659-  54 1.03  46 1.06 153 1.30
 200  0.543  0.704  0.659-  55 0.98  47 1.01 154 1.31
 201  0.210  0.449  0.659-  56 1.00  48 1.03 155 1.33
 202  0.204  0.955  0.657-  57 1.00  49 1.09 156 1.29
 203  0.702  0.466  0.660-  50 0.99  58 1.00 157 1.29
 204  0.707  0.960  0.660-  59 1.00  51 1.09 158 1.29
 205  0.452  0.298  0.659-  36 1.01  60 1.03 153 1.35
 206  0.448  0.795  0.660-  37 1.01  61 1.03 154 1.35
 207  0.952  0.293  0.658-  38 0.99  62 1.02 151 1.32
 208  0.954  0.800  0.658-  63 1.01  39 1.06 152 1.30
 209  0.297  0.044  0.659-  40 1.01  64 1.03 156 1.36
 210  0.292  0.552  0.659-  41 1.00  65 1.01 155 1.33
 211  0.800  0.050  0.657-  42 1.01  66 1.03 158 1.35
 212  0.808  0.543  0.660-  43 1.01  67 1.01 157 1.36
 213  0.046  0.204  0.753-  92 1.02  84 1.02 161 1.31
 214  0.046  0.704  0.753-  93 1.02  85 1.02 162 1.31
 215  0.546  0.204  0.753-  94 1.02  86 1.02 159 1.31
 216  0.546  0.704  0.753-  95 1.02  87 1.02 160 1.31
 217  0.204  0.454  0.753-  96 1.02  88 1.02 164 1.31
 218  0.204  0.954  0.753-  97 1.02  89 1.02 163 1.31
 219  0.704  0.454  0.753-  98 1.02  90 1.02 166 1.31
 220  0.704  0.954  0.753-  99 1.02  91 1.02 165 1.31
 221  0.454  0.296  0.753-  76 1.02 100 1.02 159 1.31
 222  0.454  0.796  0.753-  77 1.02 101 1.02 160 1.31
 223  0.954  0.296  0.753-  78 1.02 102 1.02 161 1.31
 224  0.954  0.796  0.753-  79 1.02 103 1.02 162 1.31
 225  0.296  0.046  0.753-  80 1.02 104 1.02 163 1.31
 226  0.296  0.546  0.753-  81 1.02 105 1.02 164 1.31
 227  0.796  0.046  0.753-  82 1.02 106 1.02 165 1.31
 228  0.796  0.546  0.753-  83 1.02 107 1.02 166 1.31
 229  0.768  0.560  0.556- 173 1.46 174 1.52 176 1.55 175 1.56
 230  0.498  0.010  0.552- 304 3.11
 231  0.487  0.514  0.555- 305 3.13
 232  0.999  0.003  0.552- 302 3.22
 233  0.018  0.512  0.556- 303 3.10
 234  0.253  0.247  0.551- 306 3.23
 235  0.252  0.752  0.553- 307 3.11
 236  0.734  0.232  0.557- 308 3.05
 237  0.732  0.768  0.547- 309 3.64
 238  0.003  0.003  0.654- 302 3.16 310 3.19
 239  0.010  0.501  0.656- 311 3.04 303 3.16
 240  0.499  0.002  0.655- 312 3.14 304 3.29
 241  0.500  0.498  0.655- 313 3.09 305 3.16
 242  0.251  0.245  0.655- 314 3.12 306 3.25
 243  0.245  0.750  0.654- 315 3.15 307 3.26
 244  0.746  0.251  0.656- 316 3.06 308 3.15
 245  0.752  0.754  0.654- 309 3.07 317 3.16
 246  0.144  0.107  0.608- 306 3.26 302 3.29
 247  0.149  0.608  0.609- 307 3.14 303 3.26
 248  0.644  0.105  0.609- 308 3.20 304 3.25
 249  0.626  0.625  0.613- 305 3.26 309 3.30
 250  0.354  0.392  0.609- 306 3.16 305 3.27
 251  0.358  0.894  0.609- 304 3.23 307 3.34
 252  0.872  0.378  0.612- 303 3.28 308 3.29
 253  0.855  0.896  0.609- 309 3.15 302 3.21
 254  0.109  0.355  0.609- 306 3.24 303 3.33
 255  0.112  0.864  0.610- 302 3.23 307 3.23
 256  0.595  0.345  0.607- 308 3.21 305 3.28
 257  0.603  0.861  0.609- 309 3.13 304 3.22
 258  0.394  0.142  0.609- 304 3.15 306 3.23
 259  0.393  0.640  0.610- 305 3.21 307 3.33
 260  0.890  0.141  0.608- 302 3.24 308 3.28
 261  0.909  0.646  0.613- 303 3.09 309 3.67
 262  0.000  0.000  0.755- 310 3.13 318 3.27
 263  0.000  0.500  0.755- 311 3.13 319 3.27
 264  0.500  0.000  0.755- 312 3.13 320 3.27
 265  0.500  0.500  0.755- 313 3.13 321 3.27
 266  0.250  0.250  0.755- 314 3.13 322 3.27
 267  0.250  0.750  0.755- 315 3.13 323 3.27
 268  0.750  0.250  0.755- 316 3.13 324 3.27
 269  0.750  0.750  0.755- 317 3.13 325 3.27
 270  0.136  0.114  0.705- 310 3.20 314 3.20
 271  0.136  0.614  0.705- 311 3.20 315 3.20
 272  0.636  0.114  0.705- 312 3.20 316 3.20
 273  0.636  0.614  0.705- 313 3.20 317 3.20
 274  0.364  0.386  0.705- 313 3.20 314 3.20
 275  0.364  0.886  0.705- 312 3.20 315 3.20
 276  0.864  0.386  0.705- 311 3.20 316 3.20
 277  0.864  0.886  0.705- 310 3.20 317 3.20
 278  0.114  0.364  0.705- 314 3.21 311 3.21
 279  0.114  0.864  0.705- 315 3.21 310 3.21
 280  0.614  0.364  0.705- 316 3.21 313 3.21
 281  0.614  0.864  0.705- 317 3.21 312 3.21
 282  0.386  0.136  0.705- 314 3.21 312 3.21
 283  0.386  0.636  0.705- 315 3.21 313 3.21
 284  0.886  0.136  0.705- 316 3.21 310 3.21
 285  0.886  0.636  0.705- 317 3.21 311 3.21
 286  0.135  0.115  0.801- 318 3.22 322 3.22
 287  0.135  0.615  0.801- 319 3.22 323 3.22
 288  0.635  0.115  0.801- 320 3.22 324 3.22
 289  0.635  0.615  0.801- 321 3.22 325 3.22
 290  0.365  0.385  0.801- 321 3.22 322 3.22
 291  0.365  0.885  0.801- 320 3.22 323 3.22
 292  0.865  0.385  0.801- 319 3.22 324 3.22
 293  0.865  0.885  0.801- 318 3.22 325 3.22
 294  0.115  0.365  0.801- 319 3.23 322 3.23
 295  0.115  0.865  0.801- 318 3.23 323 3.23
 296  0.615  0.365  0.801- 321 3.23 324 3.23
 297  0.615  0.865  0.801- 320 3.23 325 3.23
 298  0.385  0.135  0.801- 320 3.23 322 3.23
 299  0.385  0.635  0.801- 321 3.23 323 3.23
 300  0.885  0.135  0.801- 318 3.23 324 3.23
 301  0.885  0.635  0.801- 319 3.23 325 3.23
 302  0.998  0.999  0.603- 238 3.16 253 3.21 232 3.22 255 3.23 260 3.24 246 3.29
 303  0.001  0.504  0.606- 261 3.09 233 3.10 239 3.16 247 3.26 252 3.28 254 3.33
 304  0.498  0.003  0.602- 230 3.11 258 3.15 257 3.22 251 3.23 248 3.25 240 3.29
 305  0.500  0.499  0.605- 231 3.13 241 3.16 259 3.21 249 3.26 250 3.27 256 3.28
 306  0.253  0.250  0.603- 250 3.16 258 3.23 234 3.23 254 3.24 242 3.25 246 3.26
 307  0.247  0.749  0.602- 235 3.11 247 3.14 255 3.23 243 3.26 259 3.33 251 3.34
 308  0.745  0.250  0.605- 236 3.05 244 3.15 248 3.20 256 3.21 260 3.28 252 3.29
 309  0.744  0.762  0.605- 245 3.07 257 3.13 253 3.15 249 3.30 237 3.64 261 3.67
 310  0.000  0.000  0.705- 262 3.13 238 3.19 270 3.20 277 3.20 279 3.21 284 3.21
 311  0.000  0.500  0.705- 239 3.04 263 3.13 271 3.20 276 3.20 278 3.21 285 3.21
 312  0.500  0.000  0.705- 264 3.13 240 3.14 272 3.20 275 3.20 281 3.21 282 3.21
 313  0.500  0.500  0.705- 241 3.09 265 3.13 273 3.20 274 3.20 280 3.21 283 3.21
 314  0.250  0.250  0.705- 242 3.12 266 3.13 270 3.20 274 3.20 282 3.21 278 3.21
 315  0.250  0.750  0.705- 267 3.13 243 3.15 271 3.20 275 3.20 283 3.21 279 3.21
 316  0.750  0.250  0.705- 244 3.06 268 3.13 272 3.20 276 3.20 284 3.21 280 3.21
 317  0.750  0.750  0.705- 269 3.13 245 3.16 273 3.20 277 3.20 285 3.21 281 3.21
 318  0.000  0.000  0.807- 286 3.22 293 3.22 300 3.23 295 3.23 262 3.27
 319  0.000  0.500  0.807- 287 3.22 292 3.22 301 3.23 294 3.23 263 3.27
 320  0.500  0.000  0.807- 288 3.22 291 3.22 298 3.23 297 3.23 264 3.27
 321  0.500  0.500  0.807- 289 3.22 290 3.22 299 3.23 296 3.23 265 3.27
 322  0.250  0.250  0.807- 290 3.22 286 3.22 294 3.23 298 3.23 266 3.27
 323  0.250  0.750  0.807- 291 3.22 287 3.22 299 3.23 295 3.23 267 3.27
 324  0.750  0.250  0.807- 292 3.22 288 3.22 296 3.23 300 3.23 268 3.27
 325  0.750  0.750  0.807- 293 3.22 289 3.22 297 3.23 301 3.23 269 3.27
 

IMPORTANT INFORMATION: All symmetrisations will be switched off!
NOSYMM: (Re-)initialisation of all symmetry stuff for point group C_1.


----------------------------------------------------------------------------------------

                                     Primitive cell                                     

  volume of cell :   20385.2105

  direct lattice vectors                    reciprocal lattice vectors
    18.060800552  0.000000000  0.000000000     0.055368531  0.000015077 -0.000000000
    -0.004918649 18.062799454  0.000000000     0.000000000  0.055362404  0.000000000
     0.000000000  0.000000000 62.487499237     0.000000000 -0.000000000  0.016003201

  length of vectors
    18.060800552 18.062800123 62.487499237     0.055368533  0.055362404  0.016003201

  position of ions in fractional coordinates (direct lattice)
     0.446115185  0.298162698  0.582283151
     0.443642672  0.821131415  0.579543162
     0.958209396  0.273468948  0.586946010
     0.970122823  0.805488828  0.585560662
     0.299493983  0.045579610  0.583393541
     0.299199557  0.548941253  0.582906200
     0.785622208  0.063444881  0.581292291
     0.093063882  0.181316511  0.554382734
     0.077207364  0.673277309  0.554912564
     0.589030918  0.181169430  0.555486348
     0.554634097  0.662559005  0.565034584
     0.339128590  0.065364018  0.558669724
     0.322284903  0.587737691  0.558298861
     0.827415189  0.081782170  0.556843431
     0.070080956  0.195769394  0.580037279
     0.051081002  0.696112209  0.580998714
     0.563638749  0.215487224  0.581300715
     0.521846929  0.710762146  0.587365466
     0.202895147  0.440233555  0.580948289
     0.184290859  0.956571233  0.581460599
     0.698007204  0.948537944  0.581137658
     0.399917221  0.306852355  0.557141037
     0.429887181  0.844945818  0.552664495
     0.910539823  0.308720839  0.565449034
     0.943642615  0.854077392  0.562694516
     0.173838235  0.419713992  0.555158585
     0.160902654  0.929054625  0.555702883
     0.691714156  0.902683373  0.556505961
     0.487385876  0.234447777  0.538186257
     0.504396900  0.740855992  0.540656111
     0.992199114  0.253581902  0.540744264
     0.007601276  0.774761674  0.540302037
     0.246767702  0.510867668  0.538315555
     0.255271234  0.993849765  0.538768466
     0.773188925  0.983943833  0.538760469
     0.450997498  0.305112460  0.674595682
     0.445013946  0.796187351  0.676272836
     0.942898432  0.301941720  0.672991479
     0.946362568  0.805686872  0.675109945
     0.297908281  0.045829914  0.675334477
     0.295539723  0.553329428  0.674909282
     0.806873272  0.056898606  0.673112170
     0.822918525  0.539871928  0.675368786
     0.081633485  0.169368114  0.650532763
     0.083169379  0.675554315  0.651260875
     0.574296174  0.167133926  0.649488365
     0.574306676  0.672193794  0.649617541
     0.179207548  0.414807844  0.648889796
     0.169443342  0.921314778  0.646132591
     0.661371299  0.445044138  0.651491085
     0.669371085  0.923273006  0.651746507
     0.048730415  0.200925750  0.675381056
     0.046973282  0.703477489  0.676631428
     0.549511703  0.201774314  0.675373730
     0.548025331  0.697919528  0.674819420
     0.205434133  0.446172425  0.674488605
     0.194649873  0.945865096  0.672542720
     0.702146164  0.450349304  0.675695694
     0.703778650  0.956748937  0.676338462
     0.419149002  0.330763590  0.649030082
     0.414243356  0.828335608  0.651212160
     0.920087810  0.324390353  0.647385222
     0.921720363  0.831144182  0.649081729
     0.332287278  0.077945031  0.650664259
     0.323578987  0.585998588  0.649799585
     0.829715344  0.080931480  0.646597833
     0.840502689  0.574777914  0.650291443
     0.003234610  0.245328908  0.630920137
     0.005706061  0.752938905  0.632181925
     0.493511758  0.244082407  0.631515715
     0.494514904  0.750657516  0.632271482
     0.252662879  0.000953553  0.630606720
     0.253686289  0.502541153  0.631218414
     0.745229638  0.997248356  0.631512846
     0.739223834  0.520236990  0.633334866
     0.448745018  0.301283966  0.768889017
     0.448745007  0.801283913  0.768889017
     0.948744965  0.301283966  0.768889017
     0.948745007  0.801283913  0.768889017
     0.301275995  0.051294496  0.768872961
     0.301276011  0.551294499  0.768872961
     0.801275943  0.051294496  0.768872961
     0.801275984  0.551294499  0.768872961
     0.078771004  0.171180501  0.743441971
     0.078771006  0.671180448  0.743441971
     0.578771004  0.171180501  0.743441971
     0.578770992  0.671180448  0.743441971
     0.171199499  0.421174482  0.743421032
     0.171199501  0.921174508  0.743421032
     0.671199512  0.421174482  0.743421032
     0.671199501  0.921174508  0.743421032
     0.051256000  0.198714991  0.768889017
     0.051256002  0.698714925  0.768889017
     0.551256027  0.198714991  0.768889017
     0.551256016  0.698714925  0.768889017
     0.198723491  0.448703970  0.768872046
     0.198723493  0.948703970  0.768872046
     0.698723518  0.448703970  0.768872046
     0.698723507  0.948703970  0.768872046
     0.421231519  0.328817467  0.743441971
     0.421231508  0.828817440  0.743441971
     0.921231466  0.328817467  0.743441971
     0.921231508  0.828817440  0.743441971
     0.328800503  0.078824997  0.743421032
     0.328800492  0.578824964  0.743421032
     0.828800477  0.078824997  0.743421032
     0.828800519  0.578824964  0.743421032
     0.000003500  0.250001478  0.725821992
     0.000003500  0.750001452  0.725821992
     0.500003506  0.250001478  0.725821992
     0.500003495  0.750001452  0.725821992
     0.250000502  0.000000000  0.725803983
     0.250000517  0.500000000  0.725803983
     0.750000502  0.000000000  0.725803983
     0.750000490  0.500000000  0.725803983
     0.718349931  0.456538779  0.548367859
     0.741326232  0.517999793  0.526796833
     0.657280871  0.554198162  0.563190709
     0.690646493  0.644786718  0.564269660
     0.839232921  0.518738908  0.581264453
     0.776316285  0.588555528  0.588942869
     0.877220448  0.559733367  0.545554064
     0.818977172  0.621725790  0.531217151
     0.875807013  0.484735603  0.529581631
     0.863018971  0.454778028  0.556318241
     0.886089440  0.353252507  0.532384804
     0.794050036  0.342689693  0.542267029
     0.622002978  0.562914851  0.526925399
     0.703355472  0.615161082  0.519782246
     0.631947953  0.660664096  0.532618249
     0.724850524  0.473412766  0.603565056
     0.743309649  0.420315885  0.579643279
     0.669174173  0.487268573  0.580791825
     0.841066003  0.679307387  0.574625857
     0.876472361  0.714772343  0.551125185
     0.926615563  0.639948917  0.565591030
     0.842144339  0.398099668  0.497787002
     0.803121693  0.311698498  0.504631053
     0.675474756  0.321341629  0.525879413
     0.756955357  0.485865738  0.481743480
     0.547989115  0.371436353  0.522672473
     0.629324640  0.536843979  0.478302850
     0.526980296  0.484363010  0.498946963
     0.003139616  0.244771523  0.557599808
     0.011153408  0.764042737  0.557335412
     0.495223612  0.242977061  0.555360713
     0.495427330  0.752139812  0.557375947
     0.248360568  0.504739967  0.556037667
     0.249331564  0.996525133  0.556514264
     0.760318518  0.992990476  0.556010257
     0.000286454  0.247469881  0.648820751
     0.001934055  0.754145596  0.650129118
     0.497293793  0.248279112  0.649273234
     0.495981519  0.749095760  0.650151645
     0.251790143  0.500513880  0.649013539
     0.250549456  0.999451131  0.648303924
     0.748790368  0.508443303  0.650716943
     0.750070353  0.001523018  0.649119456
     0.499988984  0.249994984  0.743277021
     0.499989025  0.749994958  0.743277021
     0.999988984  0.249994984  0.743277021
     0.999989025  0.749994958  0.743277021
     0.250000502  0.000001000  0.743255960
     0.250000517  0.500001003  0.743255960
     0.750000502  0.000001000  0.743255960
     0.750000491  0.500001003  0.743255960
     0.725433158  0.399538802  0.503295825
     0.666111136  0.368382164  0.514648346
     0.711598488  0.458933102  0.490243257
     0.593156815  0.397304007  0.513376546
     0.641102778  0.489887339  0.488314191
     0.580236702  0.459023756  0.500178350
     0.761417517  0.494580421  0.542287053
     0.691027018  0.593489895  0.554730277
     0.781593020  0.537260659  0.579481321
     0.835932978  0.602749504  0.546896068
     0.837901502  0.454257813  0.540377186
     0.829564562  0.375736119  0.531709070
     0.659769799  0.607057955  0.532273209
     0.727167154  0.475858937  0.586000752
     0.871869352  0.662356157  0.560236505
     0.803201548  0.370310072  0.508358697
     0.058834256  0.204809337  0.564397982
     0.047329905  0.707213032  0.565113579
     0.551440933  0.209337506  0.564684050
     0.526819147  0.707361710  0.570938352
     0.444066881  0.285749668  0.565676130
     0.453495081  0.810490407  0.563945377
     0.954947519  0.278546134  0.570637450
     0.975078587  0.813024750  0.569310219
     0.206121728  0.451942211  0.564667262
     0.195574810  0.958723218  0.565049540
     0.713425710  0.945541423  0.565207958
     0.298724542  0.038353654  0.566901168
     0.292042137  0.549603178  0.566310718
     0.793067446  0.048676753  0.565266014
     0.045406682  0.204098694  0.658982207
     0.046577141  0.709264276  0.660043455
     0.542455313  0.203757607  0.659008702
     0.543004547  0.704277480  0.659349468
     0.210413500  0.448957821  0.658509395
     0.203534467  0.954642691  0.656897440
     0.701948380  0.465926844  0.660259379
     0.706917593  0.959791827  0.660352477
     0.452351585  0.298494743  0.658583873
     0.447858968  0.794709121  0.660213777
     0.952224151  0.293465630  0.657521649
     0.954428957  0.799836306  0.658456773
     0.297199544  0.044442199  0.659243063
     0.292147724  0.551953679  0.658964137
     0.799809218  0.049743623  0.657245227
     0.808022818  0.542832717  0.659783637
     0.045862501  0.204119496  0.752725994
     0.045862500  0.704119456  0.752725994
     0.545862507  0.204119496  0.752725994
     0.545862496  0.704119456  0.752725994
     0.204119002  0.454101003  0.752704994
     0.204118991  0.954100951  0.752704994
     0.704118976  0.454101003  0.752704994
     0.704118964  0.954100951  0.752704994
     0.454140018  0.295888490  0.752726971
     0.454140007  0.795888516  0.752726971
     0.954140018  0.295888490  0.752726971
     0.954140060  0.795888516  0.752726971
     0.295882492  0.045900498  0.752704994
     0.295882481  0.545900528  0.752704994
     0.795882439  0.045900498  0.752704994
     0.795882481  0.545900528  0.752704994
     0.768000057  0.560101473  0.555746105
     0.498138304  0.009687784  0.552251021
     0.486626825  0.513647625  0.555025502
     0.999326293  0.003080978  0.551782727
     0.017915379  0.511753508  0.556394489
     0.252786089  0.247167298  0.551279574
     0.251968890  0.752499100  0.552531045
     0.733760951  0.231778510  0.557077670
     0.732119791  0.768174685  0.547221695
     0.003421205  0.003378521  0.653751791
     0.009873859  0.501185625  0.656314376
     0.499055803  0.002266627  0.654524223
     0.500420602  0.497986929  0.655341159
     0.250874687  0.245063573  0.654985131
     0.245146922  0.749831232  0.654416353
     0.746423839  0.250838401  0.655866044
     0.751936826  0.753523217  0.654302316
     0.144118742  0.107187296  0.607626843
     0.148613726  0.607528171  0.609073177
     0.644176098  0.104609633  0.609481096
     0.625976829  0.624819260  0.612527664
     0.354304226  0.391882765  0.608529917
     0.358224598  0.894437963  0.609467665
     0.872376538  0.378145568  0.611880135
     0.855116240  0.896094966  0.609231656
     0.109418398  0.355175030  0.608686259
     0.112487039  0.864119199  0.609700500
     0.594597242  0.344562006  0.607213613
     0.602695467  0.861312684  0.609480973
     0.394109405  0.141538036  0.608711166
     0.393191318  0.640445004  0.610122093
     0.889729734  0.141198956  0.608189822
     0.909345358  0.646297260  0.612696643
     0.000000000  0.000000000  0.754927972
     0.000000000  0.500000000  0.754927972
     0.500000000  0.000000000  0.754927972
     0.499999989  0.500000000  0.754927972
     0.250000496  0.250000000  0.754939022
     0.250000511  0.749999974  0.754939022
     0.750000470  0.250000000  0.754939022
     0.750000458  0.749999974  0.754939022
     0.135790500  0.114209997  0.704782994
     0.135790502  0.614209984  0.704782994
     0.635790447  0.114209997  0.704782994
     0.635790488  0.614209984  0.704782994
     0.364209516  0.385789989  0.704782994
     0.364209505  0.885789963  0.704782994
     0.864209542  0.385789989  0.704782994
     0.864209531  0.885789963  0.704782994
     0.114217990  0.364218986  0.704780979
     0.114217992  0.864218986  0.704780979
     0.614218004  0.364218986  0.704780979
     0.614217992  0.864218986  0.704780979
     0.385782012  0.135781489  0.704782017
     0.385782001  0.635781489  0.704782017
     0.885781985  0.135781489  0.704782017
     0.885782027  0.635781489  0.704782017
     0.134667000  0.115332001  0.801256025
     0.134666989  0.615331988  0.801256025
     0.634666987  0.115332001  0.801256025
     0.634666976  0.615331988  0.801256025
     0.365333002  0.384667985  0.801256025
     0.365332990  0.884667959  0.801256025
     0.865332949  0.384667985  0.801256025
     0.865332938  0.884667959  0.801256025
     0.115328503  0.365337004  0.801264999
     0.115328505  0.865336978  0.801264999
     0.615328503  0.365337004  0.801264999
     0.615328492  0.865336978  0.801264999
     0.384671513  0.134662996  0.801264999
     0.384671501  0.634662970  0.801264999
     0.884671486  0.134662996  0.801264999
     0.884671528  0.634662970  0.801264999
     0.998077284  0.999450742  0.603252677
     0.001295478  0.504321228  0.605740540
     0.497917379  0.003310502  0.601910734
     0.499528246  0.499044731  0.604781242
     0.253355609  0.250008342  0.603040843
     0.246966214  0.748856851  0.602190209
     0.744858842  0.249850371  0.605428955
     0.743967333  0.762009339  0.605362657
     0.000000500  0.000000500  0.704828963
     0.000000500  0.500000475  0.704828963
     0.500000475  0.000000500  0.704828963
     0.500000464  0.500000475  0.704828963
     0.249999994  0.249999472  0.704824995
     0.250000010  0.749999498  0.704824995
     0.749999994  0.249999472  0.704824995
     0.749999983  0.749999498  0.704824995
     0.000000000  0.000000000  0.807317968
     0.000000000  0.500000000  0.807317968
     0.500000000  0.000000000  0.807317968
     0.499999989  0.500000000  0.807317968
     0.249999994  0.250000000  0.807317968
     0.250000010  0.749999974  0.807317968
     0.749999994  0.250000000  0.807317968
     0.749999983  0.749999974  0.807317968

  ion indices of the primitive-cell ions
   primitive index   ion index
                 1           1
                 2           2
                 3           3
                 4           4
                 5           5
                 6           6
                 7           7
                 8           8
                 9           9
                10          10
                11          11
                12          12
                13          13
                14          14
                15          15
                16          16
                17          17
                18          18
                19          19
                20          20
                21          21
                22          22
                23          23
                24          24
                25          25
                26          26
                27          27
                28          28
                29          29
                30          30
                31          31
                32          32
                33          33
                34          34
                35          35
                36          36
                37          37
                38          38
                39          39
                40          40
                41          41
                42          42
                43          43
                44          44
                45          45
                46          46
                47          47
                48          48
                49          49
                50          50
                51          51
                52          52
                53          53
                54          54
                55          55
                56          56
                57          57
                58          58
                59          59
                60          60
                61          61
                62          62
                63          63
                64          64
                65          65
                66          66
                67          67
                68          68
                69          69
                70          70
                71          71
                72          72
                73          73
                74          74
                75          75
                76          76
                77          77
                78          78
                79          79
                80          80
                81          81
                82          82
                83          83
                84          84
                85          85
                86          86
                87          87
                88          88
                89          89
                90          90
                91          91
                92          92
                93          93
                94          94
                95          95
                96          96
                97          97
                98          98
                99          99
               100         100
               101         101
               102         102
               103         103
               104         104
               105         105
               106         106
               107         107
               108         108
               109         109
               110         110
               111         111
               112         112
               113         113
               114         114
               115         115
               116         116
               117         117
               118         118
               119         119
               120         120
               121         121
               122         122
               123         123
               124         124
               125         125
               126         126
               127         127
               128         128
               129         129
               130         130
               131         131
               132         132
               133         133
               134         134
               135         135
               136         136
               137         137
               138         138
               139         139
               140         140
               141         141
               142         142
               143         143
               144         144
               145         145
               146         146
               147         147
               148         148
               149         149
               150         150
               151         151
               152         152
               153         153
               154         154
               155         155
               156         156
               157         157
               158         158
               159         159
               160         160
               161         161
               162         162
               163         163
               164         164
               165         165
               166         166
               167         167
               168         168
               169         169
               170         170
               171         171
               172         172
               173         173
               174         174
               175         175
               176         176
               177         177
               178         178
               179         179
               180         180
               181         181
               182         182
               183         183
               184         184
               185         185
               186         186
               187         187
               188         188
               189         189
               190         190
               191         191
               192         192
               193         193
               194         194
               195         195
               196         196
               197         197
               198         198
               199         199
               200         200
               201         201
               202         202
               203         203
               204         204
               205         205
               206         206
               207         207
               208         208
               209         209
               210         210
               211         211
               212         212
               213         213
               214         214
               215         215
               216         216
               217         217
               218         218
               219         219
               220         220
               221         221
               222         222
               223         223
               224         224
               225         225
               226         226
               227         227
               228         228
               229         229
               230         230
               231         231
               232         232
               233         233
               234         234
               235         235
               236         236
               237         237
               238         238
               239         239
               240         240
               241         241
               242         242
               243         243
               244         244
               245         245
               246         246
               247         247
               248         248
               249         249
               250         250
               251         251
               252         252
               253         253
               254         254
               255         255
               256         256
               257         257
               258         258
               259         259
               260         260
               261         261
               262         262
               263         263
               264         264
               265         265
               266         266
               267         267
               268         268
               269         269
               270         270
               271         271
               272         272
               273         273
               274         274
               275         275
               276         276
               277         277
               278         278
               279         279
               280         280
               281         281
               282         282
               283         283
               284         284
               285         285
               286         286
               287         287
               288         288
               289         289
               290         290
               291         291
               292         292
               293         293
               294         294
               295         295
               296         296
               297         297
               298         298
               299         299
               300         300
               301         301
               302         302
               303         303
               304         304
               305         305
               306         306
               307         307
               308         308
               309         309
               310         310
               311         311
               312         312
               313         313
               314         314
               315         315
               316         316
               317         317
               318         318
               319         319
               320         320
               321         321
               322         322
               323         323
               324         324
               325         325

----------------------------------------------------------------------------------------

 
 
 KPOINTS: Automatic Mesh                          

Automatic generation of k-mesh.
 Grid dimensions read from file:
 generate k-points for:    3    3    1

 Generating k-lattice:

  Cartesian coordinates                     Fractional coordinates (reciprocal lattice)
     0.018456177  0.000005026 -0.000000000     0.333333333  0.000000000  0.000000000
     0.000000000  0.018454135  0.000000000     0.000000000  0.333333333  0.000000000
     0.000000000 -0.000000000  0.016003201     0.000000000  0.000000000  1.000000000

  Length of vectors
     0.018456178  0.018454135  0.016003201

  Shift w.r.t. Gamma in fractional coordinates (k-lattice)
     0.000000000  0.000000000  0.000000000

 
 Subroutine IBZKPT returns following result:
 ===========================================
 
 Found      5 irreducible k-points:
 
 Following reciprocal coordinates:
            Coordinates               Weight
  0.000000  0.000000  0.000000      1.000000
  0.333333  0.000000  0.000000      2.000000
  0.000000  0.333333  0.000000      2.000000
  0.333333  0.333333  0.000000      2.000000
 -0.333333  0.333333  0.000000      2.000000
 
 Following cartesian coordinates:
            Coordinates               Weight
  0.000000  0.000000  0.000000      1.000000
  0.018456  0.000005  0.000000      2.000000
  0.000000  0.018454  0.000000      2.000000
  0.018456  0.018459  0.000000      2.000000
 -0.018456  0.018449  0.000000      2.000000
 


--------------------------------------------------------------------------------------------------------




 Dimension of arrays:
   k-points           NKPTS =      5   k-points in BZ     NKDIM =      5   number of bands    NBANDS=    732
   number of dos      NEDOS =    301   number of ions     NIONS =    325
   non local maximal  LDIM  =      5   non local SUM 2l+1 LMDIM =     13
   total plane-waves  NPLWV = ******
   max r-space proj   IRMAX =   3336   max aug-charges    IRDMAX=  19845
   dimension x,y,z NGX =   100 NGY =  100 NGZ =  350
   dimension x,y,z NGXF=   200 NGYF=  200 NGZF=  700
   support grid    NGXF=   200 NGYF=  200 NGZF=  700
   ions per type =             143  39  47  72  24
   NGX,Y,Z   is equivalent  to a cutoff of   9.20,  9.20,  9.31 a.u.
   NGXF,Y,Z  is equivalent  to a cutoff of  18.41, 18.41, 18.62 a.u.

 SYSTEM =  PSC                                     
 POSCAR =   H  C  N  I Pb                          

 Startparameter for this run:
   NWRITE =      2    write-flag & timer
   PREC   = normal    normal or accurate (medium, high low for compatibility)
   ISTART =      0    job   : 0-new  1-cont  2-samecut
   ICHARG =      1    charge: 1-file 2-atom 10-const
   ISPIN  =      1    spin polarized calculation?
   LNONCOLLINEAR =      F non collinear calculations
   LSORBIT =      F    spin-orbit coupling
   INIWAV =      1    electr: 0-lowe 1-rand  2-diag
   LASPH  =      F    aspherical Exc in radial PAW
 Electronic Relaxation 1
   ENCUT  =  500.0 eV  36.75 Ry    6.06 a.u.  32.93 32.93113.93*2*pi/ulx,y,z
   ENINI  =  500.0     initial cutoff
   ENAUG  =  644.9 eV  augmentation charge cutoff
   NELM   =    600;   NELMIN=  2; NELMDL=  0     # of ELM steps 
   EDIFF  = 0.1E-03   stopping-criterion for ELM
   LREAL  =      T    real-space projection
   NLSPLINE    = F    spline interpolate recip. space projectors
   LCOMPAT=      F    compatible to vasp.4.4
   GGA_COMPAT  = F    GGA compatible to vasp.4.4-vasp.4.6
   LMAXPAW     = -100 max onsite density
   LMAXMIX     =    2 max onsite mixed and CHGCAR
   VOSKOWN=      0    Vosko Wilk Nusair interpolation
   ROPT   =   -0.00050  -0.00050  -0.00050  -0.00050
   ROPT   =   -0.00050
 Ionic relaxation
   EDIFFG = 0.1E-02   stopping-criterion for IOM
   NSW    =      0    number of steps for IOM
   NBLOCK =      1;   KBLOCK =      1    inner block; outer block 
   IBRION =     -1    ionic relax: 0-MD 1-quasi-New 2-CG
   NFREE  =      0    steps in history (QN), initial steepest desc. (CG)
   ISIF   =      2    stress and relaxation
   IWAVPR =     10    prediction:  0-non 1-charg 2-wave 3-comb
   ISYM   =      0    0-nonsym 1-usesym 2-fastsym
   LCORR  =      T    Harris-Foulkes like correction to forces

   POTIM  = 0.5000    time-step for ionic-motion
   TEIN   =    0.0    initial temperature
   TEBEG  =    0.0;   TEEND  =   0.0 temperature during run
   SMASS  =  -3.00    Nose mass-parameter (am)
   estimated Nose-frequenzy (Omega)   =  0.10E-29 period in steps = 0.13E+47 mass=  -0.745E-26a.u.
   SCALEE = 1.0000    scale energy and forces
   NPACO  =    256;   APACO  = 16.0  distance and # of slots for P.C.
   PSTRESS=    0.0 pullay stress

  Mass of Ions in am
   POMASS =   1.00 12.01 14.00126.90207.20
  Ionic Valenz
   ZVAL   =   1.00  4.00  5.00  7.00  4.00
  Atomic Wigner-Seitz radii
   RWIGS  =  -1.00 -1.00 -1.00 -1.00 -1.00
  virtual crystal weights 
   VCA    =   1.00  1.00  1.00  1.00  1.00
   NELECT =    1134.0000    total number of electrons
   NUPDOWN=      -1.0000    fix difference up-down

 DOS related values:
   EMIN   =  10.00;   EMAX   =-10.00  energy-range for DOS
   EFERMI =   0.00
   ISMEAR =     0;   SIGMA  =   0.05  broadening in eV -4-tet -1-fermi 0-gaus

 Electronic relaxation 2 (details)
   IALGO  =     38    algorithm
   LDIAG  =      T    sub-space diagonalisation (order eigenvalues)
   LSUBROT=      F    optimize rotation matrix (better conditioning)
   TURBO    =      0    0=normal 1=particle mesh
   IRESTART =      0    0=no restart 2=restart with 2 vectors
   NREBOOT  =      0    no. of reboots
   NMIN     =      0    reboot dimension
   EREF     =   0.00    reference energy to select bands
   IMIX   =      4    mixing-type and parameters
     AMIX     =   0.40;   BMIX     =  0.01
     AMIX_MAG =   1.60;   BMIX_MAG =  0.01
     AMIN     =   0.01
     WC   =   100.;   INIMIX=   1;  MIXPRE=   1;  MAXMIX= -45

 Intra band minimization:
   WEIMIN = 0.0000     energy-eigenvalue tresh-hold
   EBREAK =  0.34E-07  absolut break condition
   DEPER  =   0.30     relativ break condition  

   TIME   =   0.40     timestep for ELM

  volume/ion in A,a.u.               =      62.72       423.28
  Fermi-wavevector in a.u.,A,eV,Ry     =   0.624944  1.180972  5.313816  0.390554
  Thomas-Fermi vector in A             =   1.685677
 
 Write flags
   LWAVE        =      F    write WAVECAR
   LDOWNSAMPLE  =      F    k-point downsampling of WAVECAR
   LCHARG       =      T    write CHGCAR
   LVTOT        =      T    write LOCPOT, total local potential
   LVHAR        =      F    write LOCPOT, Hartree potential only
   LELF         =      F    write electronic localiz. function (ELF)
   LORBIT       =      0    0 simple, 1 ext, 2 COOP (PROOUT), +10 PAW based schemes


 Dipole corrections
   LMONO  =      F    monopole corrections only (constant potential shift)
   LDIPOL =      T    correct potential (dipole corrections)
   IDIPOL =      3    1-x, 2-y, 3-z, 4-all directions 
   EPSILON=  1.0000000 bulk dielectric constant

 Exchange correlation treatment:
   GGA     =    --    GGA type
   LEXCH   =     8    internal setting for exchange type
   VOSKOWN=      0    Vosko Wilk Nusair interpolation
   LHFCALC =     F    Hartree Fock is set to
   LHFONE  =     F    Hartree Fock one center treatment
   AEXX    =    0.0000 exact exchange contribution

 Linear response parameters
   LEPSILON=     F    determine dielectric tensor
   LRPA    =     F    only Hartree local field effects (RPA)
   LNABLA  =     F    use nabla operator in PAW spheres
   LVEL    =     F    velocity operator in full k-point grid
   LINTERFAST=   F  fast interpolation
   KINTER  =     0    interpolate to denser k-point grid
   CSHIFT  =0.1000    complex shift for real part using Kramers Kronig
   OMEGAMAX=  -1.0    maximum frequency
   DEG_THRESHOLD= 0.2000000E-02 threshold for treating states as degnerate
   RTIME   =   -0.100 relaxation time in fs
  (WPLASMAI=    0.000 imaginary part of plasma frequency in eV, 0.658/RTIME)
   DFIELD  = 0.0000000 0.0000000 0.0000000 field for delta impulse in time
 
 Orbital magnetization related:
   ORBITALMAG=     F  switch on orbital magnetization
   LCHIMAG   =     F  perturbation theory with respect to B field
   DQ        =  0.001000  dq finite difference perturbation B field
   LLRAUG    =     F  two centre corrections for induced B field



--------------------------------------------------------------------------------------------------------


 Static calculation
 charge density and potential will be updated during run
 non-spin polarized calculation
 Variant of blocked Davidson
 Davidson routine will perform the subspace rotation
 perform sub-space diagonalisation
    after iterative eigenvector-optimisation
 modified Broyden-mixing scheme, WC =      100.0
 initial mixing is a Kerker type mixing with AMIX =  0.4000 and BMIX =      0.0100
 Hartree-type preconditioning will be used
 using additional bands           165
 real space projection scheme for non local part
[...]
     13.54561      0.00000     45.35368        -0.002133      0.005719      0.012243
     13.54315      9.03140     45.35368        -0.001080      0.000803      0.012967
     12.97173      8.24637     34.26614         0.214705      0.354212     -0.084506
     13.38640      9.35653     32.91822         0.420028     -0.824541      0.432649
     11.86829     10.01037     35.19238        -0.498083     -0.342722      0.051654
     12.47046     11.64665     35.25980         0.229469     -0.203519     -0.198333
     15.15467      9.36988     36.32176        -0.107031      0.054797     -0.186290
     14.01800     10.63096     36.80157        -0.179673     -0.313538     -0.122139
     15.84055     10.11035     34.09031         0.137990      0.023329     -0.193055
     14.78833     11.23011     33.19443        -0.127728      0.159449     -0.424877
     15.81539      8.75568     33.09223        -0.244734     -0.305173      0.177805
     15.58458      8.21456     34.76294         0.199097     -0.292705     -0.016384
     16.00175      6.38073     33.26740         0.042153     -0.395117     -0.078649
     14.33949      6.18994     33.88491         0.096375      0.063116     -0.127998
     11.23110     10.16782     32.92625         0.169377      0.161511      0.149326
     12.70014     11.11153     32.47989        -0.376887     -0.081886      0.451137
     11.41024     11.93344     33.28198        -0.300136      0.093379     -0.032074
     13.08905      8.55116     37.71527         0.108511     -0.180271     -0.211818
     13.42270      7.59208     36.22046        -0.099115      0.618380      0.372396
     12.08342      8.80143     36.29223         0.629319     -0.227388      0.285691
     15.18698     12.27019     35.90693         0.076210     -0.247808     -0.289740
     15.82628     12.91079     34.43843         0.137590     -0.512785      0.057144
     16.73227     11.55927     35.34237        -0.653029      0.494546     -0.191093
     15.20784      7.19079     31.10546         0.396222      0.108583     -0.240107
     14.50349      5.63015     31.53313         0.131631     -0.547815     -0.332540
     12.19803      5.80433     32.86089         0.020915      0.507838     -0.524846
     13.66883      8.77610     30.10295         0.155011     -0.056558     -0.091064
      9.89530      6.70918     32.66050         0.347694      0.309876     -0.201996
     11.36347      9.69691     29.88795         0.155706      0.434164     -0.354663
      9.51530      8.74895     31.17795        -0.743502      0.246544     -0.002276
      0.05550      4.42126     34.84302        -1.294259      0.902002      1.199435
      0.19768     13.80075     34.82650        -0.624943      0.941237      0.904520
      8.94294      4.38885     34.70310        -1.249741      0.904444      1.572832
      8.94411     13.58575     34.82903        -1.370606      1.921087      1.586130
      4.48311      9.11702     34.74540        -0.859500     -1.030246     -0.485883
      4.49823     18.00003     34.77518         1.330429      0.914443     -0.390321
     13.72708     17.93619     34.74369        -0.813193     -1.246251     -0.393972
      0.00396      4.47000     40.54319        -0.507308      0.530054     -0.968651
      0.03122     13.62198     40.62494         0.326726     -0.101455     -2.055173
      8.98030      4.48462     40.57146        -1.646212      1.451703     -0.482311
      8.95414     13.53077     40.62635        -1.501189      1.487741     -0.191531
      4.54507      9.04068     40.55523         0.130375      0.204732      0.129714
      4.52021     18.05289     40.51089         1.795297      1.740404      0.231889
     13.52125      9.18391     40.66167         2.534989      1.983545     -0.197637
     13.54686      0.02751     40.56185         1.654064      1.657002     -0.095197
      9.02897      4.51561     46.44552         0.014281     -0.002077      0.041519
      9.02651     13.54701     46.44552         0.000050      0.014495      0.045864
     18.05937      4.51561     46.44552         0.012600      0.004635      0.037458
     18.05691     13.54701     46.44552         0.036087     -0.020298      0.048811
      4.51521      0.00002     46.44421         0.012829      0.011831      0.047512
      4.51275      9.03142     46.44421        -0.010880     -0.008755      0.052215
     13.54561      0.00002     46.44421         0.002320      0.006270      0.056813
     13.54315      9.03142     46.44421        -0.010430     -0.010425      0.055459
     13.09994      7.21679     31.44970         0.368238     -1.147859      1.633181
     12.02869      6.65401     32.15909        -1.119340     -0.322705      0.497386
     12.84978      8.28962     30.63408        -0.068820      1.264171     -0.929584
     10.71093      7.17642     32.07962         0.621744     -0.030987     -0.345692
     11.57642      8.84874     30.51353        -1.374488     -1.215613      1.078091
     10.47728      8.29125     31.25489         1.850414     -0.221443     -0.441885
     13.74938      8.93351     33.88616         1.052532     -1.092462     -1.568542
     12.47758     10.72009     34.66371         0.202997      1.070882     -0.285952
     14.11355      9.70443     36.21034        -0.599763     -0.122838     -0.509638
     15.09465     10.88734     34.17417        -0.803806      0.305511      0.647451
     15.13094      8.20517     33.76682        -1.377291     -0.058409     -0.788663
     14.98075      6.78685     33.22517         0.204002      0.749135      0.011196
     11.91298     10.96517     33.26042         0.545097     -0.035679     -0.250908
     13.13088      8.59534     36.61772        -0.036229      0.064169     -0.067875
     15.74340     11.96401     35.00778         0.209530      0.276133      0.301423
     14.50464      6.68884     31.76606        -0.650302      0.295282     -0.080654
      1.06159      3.69943     35.26782        -1.345341      0.899957      0.372495
      0.85134     12.77425     35.31253         0.589292     -0.133524     -1.202634
      9.95844      3.78122     35.28569        -0.340011      0.412023      0.866592
      9.51130     12.77693     35.67651         0.381542     -0.455599      0.196203
      8.01880      5.16144     35.34769         1.377980     -0.723979     -0.173623
      8.18650     14.63973     35.23954         1.044625     -1.406477     -2.267587
     17.24575      5.03132     35.65771         0.682125     -0.495421     -0.340626
     17.60670     14.68550     35.57477         0.103857     -0.832641      0.138048
      3.72050      8.16334     35.28465         0.670301      0.567926      0.174659
      3.52752     17.31723     35.30853        -0.271036     -0.109914      1.168495
     12.88039     17.07913     35.31843         0.465355      1.185406      0.087816
      5.39502      0.69277     35.42424        -0.925185     -0.592884      0.108652
      5.27181      9.92737     35.38734         0.186218      0.081967      1.312334
     14.32319      0.87924     35.32206        -0.073195      0.347384      1.203262
      0.81908      3.68659     41.17815         1.252032     -1.187831      0.248787
      0.83773     12.81130     41.24446         0.909360     -1.049810      0.679177
      9.79618      3.68043     41.17981         1.132134     -1.145766     -0.256364
      9.80363     12.72122     41.20110        -0.482087      0.470408     -1.788807
      3.79803      8.10944     41.14861         0.674145      0.928615     -1.649114
      3.67130     17.24352     41.04788        -1.967024     -1.932352     -1.946161
     12.67546      8.41594     41.25796         0.090765     -0.151691      0.193339
     12.76278     17.33653     41.26377        -2.189610     -2.194352     -1.644716
      8.16836      5.39165     41.15326         1.061335     -1.204319     -1.356931
      8.08478     14.35467     41.25511         1.401333     -1.284678     -1.630154
     17.19649      5.30081     41.08688         0.188427     -0.180882     -1.558862
     17.23382     14.44728     41.14532        -0.262838      0.154280      2.064390
      5.36744      0.80275     41.19445        -1.095532     -1.058586     -1.930873
      5.27371      9.96983     41.17702        -0.987301     -1.430999     -1.298998
     14.44495      0.89851     41.06961        -1.231543     -1.192015     -1.599350
     14.59087      9.80508     41.22823        -1.891098     -1.048839     -1.381522
      0.82731      3.68697     47.03596         0.016556     -0.026822     -0.085705
      0.82485     12.71837     47.03596         0.003929     -0.005203     -0.097640
      9.85771      3.68697     47.03596         0.018467     -0.019205     -0.089145
      9.85525     12.71837     47.03596         0.029800     -0.025717     -0.087871
      3.68432      8.20234     47.03465        -0.004808     -0.005187     -0.074425
      3.68186     17.23373     47.03465        -0.022573     -0.018774     -0.068534
     12.71472      8.20234     47.03465        -0.006078     -0.003851     -0.084594
     12.71226     17.23373     47.03465        -0.008935     -0.019805     -0.077355
      8.20068      5.34457     47.03603        -0.020445      0.022929     -0.089883
      8.19822     14.37597     47.03603        -0.012142      0.009953     -0.097644
     17.23108      5.34457     47.03603        -0.023026      0.018241     -0.094246
     17.22862     14.37597     47.03603        -0.037072      0.030736     -0.092113
      5.34365      0.82909     47.03465         0.001563      0.001017     -0.072119
      5.34119      9.86049     47.03465         0.017672      0.016629     -0.072983
     14.37405      0.82909     47.03465         0.010698      0.002400     -0.076932
     14.37159      9.86049     47.03465         0.011792      0.021203     -0.078157
     13.86794     10.11700     34.72718         0.230482      0.236895      1.291081
      8.99673      0.17499     34.50879        -0.064197     -0.008834     -0.040698
      8.78634      9.27791     34.68216         0.045314      0.009915      0.065722
     18.04862      0.05565     34.47952        -0.066847     -0.019056      0.037597
      0.32105      9.24370     34.76770         0.279462     -0.083483     -0.198526
      4.56430      4.46453     34.44808        -0.025346      0.019913      0.110094
      4.54706     13.59224     34.52628        -0.038644     -0.023403     -0.073332
     13.25117      4.18657     34.81039         0.095720     -0.458381     -0.071005
     13.21889     13.87539     34.19452        -0.200297      1.175345      0.133653
      0.06177      0.06103     40.85131        -0.016953     -0.022220      0.076188
      0.17586      9.05282     41.01144         0.024769     -0.028247     -0.199769
      9.01334      0.04094     40.89958         0.045988     -0.030963     -0.012791
      9.03555      8.99504     40.95063        -0.006960     -0.018514     -0.050032
      4.52979      4.42653     40.92838        -0.024153      0.017219     -0.195273
      4.42386     13.54405     40.89284         0.055325      0.051566     -0.023281
     13.47978      4.53084     40.98343        -0.025879      0.044803     -0.084158
     13.57687     13.61074     40.88572        -0.006440      0.011915     -0.132597
      2.60237      1.93610     37.96908        -0.091227     -0.044216     -0.026389
      2.68109     10.97366     38.05946        -0.151014     -0.038055     -0.043418
     11.63382      1.88954     38.08495        -0.029196      0.010462     -0.032959
     11.30257     11.28598     38.27532         0.093007      0.013383      0.039610
      6.39709      7.07850     38.02551         0.128228      0.126524     -0.032296
      6.46542     16.15605     38.08411         0.016433     -0.144137     -0.094800
     15.75396      6.83037     38.23486         0.009972      0.127983     -0.070171
     15.43968     16.18598     38.06936         0.035729     -0.048011     -0.044780
      1.97444      6.41546     38.03528         0.166080     -0.006384     -0.066969
      2.02736     15.60841     38.09866         0.022524     -0.063283     -0.016351
     10.73721      6.22375     37.94326        -0.040010      0.029305     -0.000994
     10.88093     15.55772     38.08494         0.256041     -0.119334      0.009339
      7.11724      2.55657     38.03684        -0.073896      0.017309     -0.030103
      7.09820     11.56823     38.12500        -0.243762      0.040055     -0.007449
     16.06854      2.55045     38.00426         0.022533     -0.107552      0.021173
     16.42033     11.67394     38.28588        -0.179627      0.220880      0.504770
      0.00000      0.00000     47.17356        -0.003949     -0.004057      0.358276
     -0.00246      9.03140     47.17356        -0.003098      0.003240      0.533875
      9.03040      0.00000     47.17356         0.002614     -0.005304      0.473128
      9.02794      9.03140     47.17356         0.002184      0.003116      0.460062
      4.51398      4.51570     47.17425        -0.000135     -0.002061      0.468183
      4.51152     13.54710     47.17425        -0.000762      0.001218      0.443880
     13.54438      4.51570     47.17425         0.000741     -0.000275      0.513384
     13.54192     13.54710     47.17425         0.002071      0.001474      0.280412
      2.45192      2.06295     44.04013        -0.026510     -0.041219     -0.011831
      2.44946     11.09435     44.04013         0.029084      0.006306      0.022680
     11.48232      2.06295     44.04013         0.006883     -0.003735     -0.017090
     11.47986     11.09435     44.04013         0.033817      0.034881     -0.024409
      6.57602      6.96845     44.04013        -0.010861      0.041113     -0.005189
      6.57356     15.99985     44.04013        -0.050080      0.027060      0.031190
     15.60642      6.96845     44.04013        -0.012569      0.022435     -0.065868
     15.60396     15.99985     44.04013        -0.011020     -0.008761     -0.035114
      2.06108      6.57881     44.04000         0.003663     -0.012711     -0.010882
      2.05862     15.61021     44.04000        -0.014244      0.030566     -0.058136
     11.09148      6.57881     44.04000        -0.004598      0.010530     -0.031202
     11.08902     15.61021     44.04000         0.034592     -0.047456     -0.034186
      6.96686      2.45259     44.04007         0.030518      0.005306      0.016211
      6.96440     11.48399     44.04007         0.025448      0.026350     -0.020327
     15.99726      2.45259     44.04007         0.022920     -0.016738     -0.029354
     15.99481     11.48399     44.04007         0.022104      0.074939      0.011681
      2.43163      2.08322     50.06849        -0.003318     -0.024596      0.023049
      2.42917     11.11462     50.06849         0.013722     -0.003430      0.022243
     11.46203      2.08322     50.06849         0.007930     -0.015112      0.022797
     11.45957     11.11462     50.06849         0.026943      0.006664      0.020730
      6.59631      6.94818     50.06849        -0.006563      0.014182      0.024057
      6.59385     15.97958     50.06849        -0.011342      0.007453      0.022234
     15.62671      6.94818     50.06849        -0.011413      0.010161      0.023195
     15.62425     15.97958     50.06849        -0.018122      0.002649      0.019344
      2.08113      6.59901     50.06905        -0.010069     -0.010856      0.024840
      2.07867     15.63041     50.06905        -0.020067     -0.002736      0.021853
     11.11153      6.59901     50.06905        -0.013329     -0.004989      0.022828
     11.10907     15.63041     50.06905         0.007858     -0.028093      0.020514
      6.94681      2.43239     50.06905         0.012828      0.005769      0.024368
      6.94435     11.46379     50.06905         0.009789      0.011854      0.022723
     15.97721      2.43239     50.06905         0.021866     -0.004980      0.022115
     15.97475     11.46379     50.06905        -0.011294      0.031540      0.021121
     18.02116     18.05288     37.69575         0.030699      0.283575     -0.028514
      0.02092      9.10945     37.85121         0.153510     -0.234651      0.088664
      8.99277      0.05980     37.61190        -0.028689      0.088857      0.105016
      9.01943      9.01414     37.79127        -0.079548     -0.062035     -0.150921
      4.57458      4.51585     37.68251        -0.162705     -0.033771      0.000936
      4.45672     13.52645     37.62936         0.260530      0.101227      0.165320
     13.45152      4.51300     37.83174         0.004565      0.043163      0.245417
     13.43290     13.76402     37.82760        -0.068146     -0.101129     -0.208592
      0.00001      0.00001     44.04300         0.045103      0.040036      0.033984
     -0.00245      9.03141     44.04300         0.077962     -0.040437      0.262864
      9.03041      0.00001     44.04300        -0.041750      0.042672     -0.048109
      9.02795      9.03141     44.04300        -0.031331     -0.015609      0.199053
      4.51397      4.51569     44.04275         0.014894     -0.005659      0.068942
      4.51151     13.54709     44.04275        -0.005946     -0.000339     -0.003168
     13.54437      4.51569     44.04275        -0.020193     -0.028808      0.191536
     13.54191     13.54709     44.04275        -0.051422     -0.015740      0.253289
      0.00000      0.00000     50.44728         0.010969      0.014717     -0.610993
     -0.00246      9.03140     50.44728         0.008823     -0.016544     -0.657839
      9.03040      0.00000     50.44728        -0.009588      0.015887     -0.645385
      9.02794      9.03140     50.44728        -0.011291     -0.015037     -0.638903
      4.51397      4.51570     50.44728         0.002942      0.007152     -0.644360
      4.51151     13.54710     50.44728         0.004075     -0.007335     -0.636833
     13.54437      4.51570     50.44728        -0.004718      0.006949     -0.652420
     13.54191     13.54710     50.44728        -0.003657     -0.008012     -0.587205
 -----------------------------------------------------------------------------------
    total drift:                                0.102816      0.094209      0.095117


--------------------------------------------------------------------------------------------------------



  FREE ENERGIE OF THE ION-ELECTRON SYSTEM (eV)
  ---------------------------------------------------
  free  energy   TOTEN  =     -1570.17029646 eV

  energy  without entropy=    -1570.17029646  energy(sigma->0) =    -1570.17029646
 


--------------------------------------------------------------------------------------------------------


    POTLOK:  cpu time    0.5000: real time    0.5000


--------------------------------------------------------------------------------------------------------


     LOOP+:  cpu time  306.7633: real time  307.1082
 vacuum level on the upper side and lower side of the slab         2.438         1.436
    4ORBIT:  cpu time    0.0000: real time    0.0000

 total amount of memory used by VASP MPI-rank0  8653600. kBytes
=======================================================================

   base      :      30000. kBytes
   nonlr-proj:      53638. kBytes
   fftplans  :     249280. kBytes
   grid      :     701440. kBytes
   one-center:       2636. kBytes
   wavefun   :    7616606. kBytes
 
  
  
 General timing and accounting informations for this job:
 ========================================================
  
                  Total CPU time used (sec):      518.466
                            User time (sec):      419.798
                          System time (sec):       98.668
                         Elapsed time (sec):      520.941
  
                   Maximum memory used (kb):    10307564.
                   Average memory used (kb):          N/A
  
                          Minor page faults:      3685640
                          Major page faults:           13
                 Voluntary context switches:        11253
