 vasp.6.2.1 16May21 (build Nov 15 2021 14:57:28) complex                         
 executed on             LinuxPGI date 2023.07.30  11:39:33
 running on    4 total cores
 distrk:  each k-point on    4 cores,    1 groups
 distr:  one band on NCORE=   1 cores,    4 groups


--------------------------------------------------------------------------------------------------------


 INCAR:
   SYSTEM = PSC
   ISTART = 1
   ICHARG = 1
   PREC = Normal
   ENCUT = 500
   GGA_COMPAT = F
   NELM = 600
   ISYM = 0
   LREAL = Auto
   ISMEAR = 0
   SIGMA = 0.05
   AMIN = 0.01
   BMIX = 0.01
   LVTOT = T
   LWAVE = F
   LDIPOL = T
   IDIPOL = 3
   LVDW = T
   IVDW = 12

 POTCAR:    PAW_PBE H 15Jun2001                   
 POTCAR:    PAW_PBE C 08Apr2002                   
 POTCAR:    PAW_PBE N 08Apr2002                   
 POTCAR:    PAW_PBE I 08Apr2002                   
 POTCAR:    PAW_PBE Pb 08Apr2002                  
 WARNING: For LVTOT=.TRUE., VASP.5.x writes the TOTAL local potential to the
     file LOCPOT. If you want only the Hartree contributions, use LVHAR=.TRUE.
     instead. 

 POTCAR:    PAW_PBE H 15Jun2001                   
   SHA256 =  030f79b5d3ab3cf0e668861823c8fb652ff669f3e15e46930bd03bfd63a607b6 H/POTCAR              
   COPYR  = (c) Copyright 15Jun2001 Georg Kresse                                                    
   COPYR  = This file is part of the software VASP. Any use, copying, and all other rights are regul
   COPYR  = If you do not have a valid VASP license, you may not use, copy or distribute this file. 
   VRHFIN =H: ultrasoft test                                                                        
   LEXCH  = PE                                                                                      
   EATOM  =    12.4884 eV,    0.9179 Ry                                                             
                                                                                                    
   TITEL  = PAW_PBE H 15Jun2001                                                                     
   LULTRA =        F    use ultrasoft PP ?                                                          
   IUNSCR =        0    unscreen: 0-lin 1-nonlin 2-no                                               
   RPACOR =    0.000    partial core radius                                                         
   POMASS =    1.000; ZVAL   =    1.000    mass and valenz                                          
   RCORE  =    1.100    outmost cutoff radius                                                       
   RWIGS  =    0.700; RWIGS  =    0.370    wigner-seitz radius (au A)                               
   ENMAX  =  250.000; ENMIN  =  200.000 eV                                                          
   RCLOC  =    0.701    cutoff for local pot                                                        
   LCOR   =        T    correct aug charges                                                         
   LPAW   =        T    paw PP                                                                      
   EAUG   =  400.000                                                                                
   RMAX   =    1.123    core radius for proj-oper                                                   
   RAUG   =    1.200    factor for augmentation sphere                                              
   RDEP   =    1.112    radius for radial grids                                                     
   RDEPT  =    0.926    core radius for aug-charge                                                  
                                                                                                    
   Atomic configuration                                                                             
    2 entries                                                                                       
     n  l   j            E        occ.                                                              
     1  0  0.50        -6.4927   1.0000                                                             
     2  1  0.50        -3.4015   0.0000                                                             
   Description                                                                                      
     l       E           TYP  RCUT    TYP  RCUT                                                     
     0     -6.4927494     23  1.100                                                                 
     0      6.8029130     23  1.100                                                                 
     1     -4.0817478     23  1.100                                                                 
  local pseudopotential read in
  atomic valenz-charges read in
  non local Contribution for L=            0  read in
    real space projection operators read in
  non local Contribution for L=            0  read in
    real space projection operators read in
  non local Contribution for L=            1  read in
    real space projection operators read in
    PAW grid and wavefunctions read in
 
   number of l-projection  operators is LMAX  =            3
   number of lm-projection operators is LMMAX =            5
 
 POTCAR:    PAW_PBE C 08Apr2002                   
   SHA256 =  253f7b50bb8d59471dbedb8285d89021f4a42ed1a2c5d38a03a736e69125dd95 C/POTCAR              
   COPYR  = (c) Copyright 08Apr2002 Georg Kresse                                                    
   COPYR  = This file is part of the software VASP. Any use, copying, and all other rights are regul
   COPYR  = If you do not have a valid VASP license, you may not use, copy or distribute this file. 
   VRHFIN =C: s2p2                                                                                  
   LEXCH  = PE                                                                                      
   EATOM  =   147.1560 eV,   10.8157 Ry                                                             
                                                                                                    
   TITEL  = PAW_PBE C 08Apr2002                                                                     
   LULTRA =        F    use ultrasoft PP ?                                                          
   IUNSCR =        1    unscreen: 0-lin 1-nonlin 2-no                                               
   RPACOR =    1.200    partial core radius                                                         
   POMASS =   12.011; ZVAL   =    4.000    mass and valenz                                          
   RCORE  =    1.500    outmost cutoff radius                                                       
   RWIGS  =    1.630; RWIGS  =    0.863    wigner-seitz radius (au A)                               
   ENMAX  =  400.000; ENMIN  =  300.000 eV                                                          
   ICORE  =        2    local potential                                                             
   LCOR   =        T    correct aug charges                                                         
   LPAW   =        T    paw PP                                                                      
   EAUG   =  644.873                                                                                
   DEXC   =    0.000                                                                                
   RMAX   =    1.529    core radius for proj-oper                                                   
   RAUG   =    1.300    factor for augmentation sphere                                              
   RDEP   =    1.501    radius for radial grids                                                     
   RDEPT  =    1.300    core radius for aug-charge                                                  
                                                                                                    
   Atomic configuration                                                                             
    4 entries                                                                                       
     n  l   j            E        occ.                                                              
     1  0  0.50      -273.3789   2.0000                                                             
     2  0  0.50       -13.7508   2.0000                                                             
     2  1  0.50        -5.2854   2.0000                                                             
     3  2  1.50        -5.4423   0.0000                                                             
   Description                                                                                      
     l       E           TYP  RCUT    TYP  RCUT                                                     
     0    -13.7508458     23  1.200                                                                 
     0     -8.2022199     23  1.200                                                                 
     1     -5.2854383     23  1.500                                                                 
     1     34.0145650     23  1.500                                                                 
     2     -5.4423304      7  1.500                                                                 
  local pseudopotential read in
  partial core-charges read in
  partial kinetic energy density read in
  atomic valenz-charges read in
  non local Contribution for L=            0  read in
    real space projection operators read in
  non local Contribution for L=            0  read in
    real space projection operators read in
  non local Contribution for L=            1  read in
    real space projection operators read in
  non local Contribution for L=            1  read in
    real space projection operators read in
    PAW grid and wavefunctions read in
 
   number of l-projection  operators is LMAX  =            4
   number of lm-projection operators is LMMAX =            8
 
 POTCAR:    PAW_PBE N 08Apr2002                   
   SHA256 =  e053789ff3a61a86a1b75d8a110fcc91f86041011e7b0817c7c99e4e8a6349d7 N/POTCAR              
   COPYR  = (c) Copyright 08Apr2002 Georg Kresse                                                    
   COPYR  = This file is part of the software VASP. Any use, copying, and all other rights are regul
   COPYR  = If you do not have a valid VASP license, you may not use, copy or distribute this file. 
   VRHFIN =N: s2p3                                                                                  
   LEXCH  = PE                                                                                      
   EATOM  =   264.5486 eV,   19.4438 Ry                                                             
                                                                                                    
   TITEL  = PAW_PBE N 08Apr2002                                                                     
   LULTRA =        F    use ultrasoft PP ?                                                          
   IUNSCR =        1    unscreen: 0-lin 1-nonlin 2-no                                               
   RPACOR =    1.200    partial core radius                                                         
   POMASS =   14.001; ZVAL   =    5.000    mass and valenz                                          
   RCORE  =    1.500    outmost cutoff radius                                                       
   RWIGS  =    1.400; RWIGS  =    0.741    wigner-seitz radius (au A)                               
   ENMAX  =  400.000; ENMIN  =  300.000 eV                                                          
   ICORE  =        2    local potential                                                             
   LCOR   =        T    correct aug charges                                                         
   LPAW   =        T    paw PP                                                                      
   EAUG   =  627.112                                                                                
   DEXC   =    0.000                                                                                
   RMAX   =    1.529    core radius for proj-oper                                                   
   RAUG   =    1.300    factor for augmentation sphere                                              
   RDEP   =    1.514    radius for radial grids                                                     
   RDEPT  =    1.338    core radius for aug-charge                                                  
                                                                                                    
   Atomic configuration                                                                             
    4 entries                                                                                       
     n  l   j            E        occ.                                                              
     1  0  0.50      -384.7179   2.0000                                                             
     2  0  0.50       -18.5828   2.0000                                                             
     2  1  0.50        -7.0898   3.0000                                                             
     3  2  1.50        -6.8029   0.0000                                                             
   Description                                                                                      
     l       E           TYP  RCUT    TYP  RCUT                                                     
     0    -18.5828119     23  1.200                                                                 
     0    -13.5018863     23  1.200                                                                 
     1     -7.0897853     23  1.500                                                                 
     1      9.5240782     23  1.500                                                                 
     2     -6.8029130      7  1.500                                                                 
  local pseudopotential read in
  partial core-charges read in
  partial kinetic energy density read in
  atomic valenz-charges read in
  non local Contribution for L=            0  read in
    real space projection operators read in
  non local Contribution for L=            0  read in
    real space projection operators read in
  non local Contribution for L=            1  read in
    real space projection operators read in
  non local Contribution for L=            1  read in
    real space projection operators read in
    PAW grid and wavefunctions read in
 
   number of l-projection  operators is LMAX  =            4
   number of lm-projection operators is LMMAX =            8
 
 POTCAR:    PAW_PBE I 08Apr2002                   
   SHA256 =  e40f3f59b681c1fc3e3091736183c4589116986673d2b852a5012aec72758799 I/POTCAR              
   COPYR  = (c) Copyright 08Apr2002 Georg Kresse                                                    
   COPYR  = This file is part of the software VASP. Any use, copying, and all other rights are regul
   COPYR  = If you do not have a valid VASP license, you may not use, copy or distribute this file. 
   VRHFIN =I : s2p5                                                                                 
   LEXCH  = PE                                                                                      
   EATOM  =   315.8678 eV,   23.2156 Ry                                                             
                                                                                                    
   TITEL  = PAW_PBE I 08Apr2002                                                                     
   LULTRA =        F    use ultrasoft PP ?                                                          
   IUNSCR =        1    unscreen: 0-lin 1-nonlin 2-no                                               
   RPACOR =    2.200    partial core radius                                                         
   POMASS =  126.904; ZVAL   =    7.000    mass and valenz                                          
   RCORE  =    2.300    outmost cutoff radius                                                       
   RWIGS  =    2.810; RWIGS  =    1.487    wigner-seitz radius (au A)                               
   ENMAX  =  175.647; ENMIN  =  131.735 eV                                                          
   ICORE  =        3    local potential                                                             
   LCOR   =        T    correct aug charges                                                         
   LPAW   =        T    paw PP                                                                      
   EAUG   =  370.139                                                                                
   DEXC   =    0.000                                                                                
   RMAX   =    2.359    core radius for proj-oper                                                   
   RAUG   =    1.300    factor for augmentation sphere                                              
   RDEP   =    2.392    radius for radial grids                                                     
   RDEPT  =    2.170    core radius for aug-charge                                                  
                                                                                                    
   Atomic configuration                                                                             
   13 entries                                                                                       
     n  l   j            E        occ.                                                              
     1  0  0.50    -32976.3739   2.0000                                                             
     2  0  0.50     -5094.5933   2.0000                                                             
     2  1  1.50     -4572.0131   6.0000                                                             
     3  0  0.50     -1028.2813   2.0000                                                             
     3  1  1.50      -859.0250   6.0000                                                             
     3  2  2.50      -605.7620  10.0000                                                             
     4  0  0.50      -180.5540   2.0000                                                             
     4  1  1.50      -127.5306   6.0000                                                             
     4  2  2.50       -50.2720  10.0000                                                             
     5  0  0.50       -17.4058   2.0000                                                             
     5  1  0.50        -7.0851   5.0000                                                             
     5  2  1.50        -7.0750   0.0000                                                             
     4  3  2.50        -7.0750   0.0000                                                             
   Description                                                                                      
     l       E           TYP  RCUT    TYP  RCUT                                                     
     0    -17.4058016     23  2.300                                                                 
     0    -18.7663842     23  2.300                                                                 
     1     -7.0850686     23  2.300                                                                 
     1     -4.2150896     23  2.300                                                                 
     2     -7.0750295     23  2.300                                                                 
     3     -1.3605826     23  2.300                                                                 
  local pseudopotential read in
  partial core-charges read in
  partial kinetic energy density read in
  atomic valenz-charges read in
  non local Contribution for L=            0  read in
    real space projection operators read in
  non local Contribution for L=            0  read in
    real space projection operators read in
  non local Contribution for L=            1  read in
    real space projection operators read in
  non local Contribution for L=            1  read in
    real space projection operators read in
  non local Contribution for L=            2  read in
    real space projection operators read in
    PAW grid and wavefunctions read in
 
   number of l-projection  operators is LMAX  =            5
   number of lm-projection operators is LMMAX =           13
 
 POTCAR:    PAW_PBE Pb 08Apr2002                  
   SHA256 =  797118a27cf1bcd06b9881c67a26cdde129e3cd1a551dd4a281f9681ce847303 Pb/POTCAR             
   COPYR  = (c) Copyright 08Apr2002 Georg Kresse                                                    
   COPYR  = This file is part of the software VASP. Any use, copying, and all other rights are regul
   COPYR  = If you do not have a valid VASP license, you may not use, copy or distribute this file. 
   VRHFIN =Pb:                                                                                      
   LEXCH  = PE                                                                                      
   EATOM  =    96.9868 eV,    7.1283 Ry                                                             
                                                                                                    
   TITEL  = PAW_PBE Pb 08Apr2002                                                                    
   LULTRA =        F    use ultrasoft PP ?                                                          
   IUNSCR =        1    unscreen: 0-lin 1-nonlin 2-no                                               
   RPACOR =    2.200    partial core radius                                                         
   POMASS =  207.200; ZVAL   =    4.000    mass and valenz                                          
   RCORE  =    3.100    outmost cutoff radius                                                       
   RWIGS  =    3.260; RWIGS  =    1.725    wigner-seitz radius (au A)                               
   ENMAX  =   97.973; ENMIN  =   73.480 eV                                                          
   ICORE  =        3    local potential                                                             
   LCOR   =        T    correct aug charges                                                         
   LPAW   =        T    paw PP                                                                      
   EAUG   =  234.873                                                                                
   DEXC   =    0.000                                                                                
   RMAX   =    3.158    core radius for proj-oper                                                   
   RAUG   =    1.300    factor for augmentation sphere                                              
   RDEP   =    3.202    radius for radial grids                                                     
   RDEPT  =    2.659    core radius for aug-charge                                                  
                                                                                                    
   Atomic configuration                                                                             
   17 entries                                                                                       
     n  l   j            E        occ.                                                              
     1  0  0.50    -88091.8466   2.0000                                                             
     2  0  0.50    -15753.4197   2.0000                                                             
     2  1  1.50    -13508.1797   6.0000                                                             
     3  0  0.50     -3781.7194   2.0000                                                             
     3  1  1.50     -3138.2529   6.0000                                                             
     3  2  2.50     -2483.2977  10.0000                                                             
     4  0  0.50      -856.2895   2.0000                                                             
     4  1  1.50      -645.4943   6.0000                                                             
     4  2  2.50      -401.8768  10.0000                                                             
     4  3  3.50      -132.9059  14.0000                                                             
     5  0  0.50      -144.0950   2.0000                                                             
     5  1  1.50       -85.7879   6.0000                                                             
     5  2  2.50       -21.1769  10.0000                                                             
     6  0  0.50       -12.0372   2.0000                                                             
     6  1  1.50        -3.4971   2.0000                                                             
     6  2  2.50        -1.3606   0.0000                                                             
     5  3  2.50        -2.7212   0.0000                                                             
   Description                                                                                      
     l       E           TYP  RCUT    TYP  RCUT                                                     
     0    -12.0371566     23  3.100                                                                 
     0    -13.3977392     23  3.100                                                                 
     1     -3.4971341     23  3.100                                                                 
     1     -5.4423304     23  3.100                                                                 
     2     -1.3605826     23  3.100                                                                 
     3     -1.3605826     23  3.100                                                                 
  local pseudopotential read in
  partial core-charges read in
  partial kinetic energy density read in
  atomic valenz-charges read in
  non local Contribution for L=            0  read in
    real space projection operators read in
  non local Contribution for L=            0  read in
    real space projection operators read in
  non local Contribution for L=            1  read in
    real space projection operators read in
  non local Contribution for L=            1  read in
    real space projection operators read in
  non local Contribution for L=            2  read in
    real space projection operators read in
    PAW grid and wavefunctions read in
 
   number of l-projection  operators is LMAX  =            5
   number of lm-projection operators is LMMAX =           13
 
 Optimization of the real space projectors (new method)

 maximal supplied QI-value         = 34.20
 optimisation between [QCUT,QGAM] = [ 11.29, 22.57] = [ 35.68,142.71] Ry 
 Optimized for a Real-space Cutoff    1.16 Angstroem

   l    n(q)    QCUT    max X(q) W(low)/X(q) W(high)/X(q)  e(spline) 
   0      8    11.287    19.460    0.40E-03    0.73E-03    0.16E-06
   0      8    11.287    12.209    0.38E-03    0.70E-03    0.15E-06
   1      7    11.287     4.655    0.22E-03    0.25E-04    0.22E-06
 Optimization of the real space projectors (new method)

 maximal supplied QI-value         = 25.13
 optimisation between [QCUT,QGAM] = [ 11.31, 22.87] = [ 35.82,146.48] Ry 
 Optimized for a Real-space Cutoff    1.00 Angstroem

   l    n(q)    QCUT    max X(q) W(low)/X(q) W(high)/X(q)  e(spline) 
   0      7    11.310   115.676    0.43E-03    0.13E-02    0.19E-06
   0      7    11.310    87.132    0.43E-03    0.13E-02    0.18E-06
   1      6    11.310     4.429    0.42E-03    0.74E-03    0.11E-06
   1      6    11.310     2.733    0.34E-03    0.55E-03    0.92E-07
 Optimization of the real space projectors (new method)

 maximal supplied QI-value         = 25.13
 optimisation between [QCUT,QGAM] = [ 11.31, 22.87] = [ 35.82,146.48] Ry 
 Optimized for a Real-space Cutoff    1.27 Angstroem

   l    n(q)    QCUT    max X(q) W(low)/X(q) W(high)/X(q)  e(spline) 
   0      9    11.310    79.467    0.75E-04    0.16E-03    0.36E-06
   0      9    11.310    66.151    0.74E-04    0.16E-03    0.36E-06
   1      8    11.310    17.416    0.35E-03    0.12E-03    0.95E-06
   1      8    11.310    12.382    0.37E-03    0.13E-03    0.98E-06
 Optimization of the real space projectors (new method)

 maximal supplied QI-value         = 16.25
 optimisation between [QCUT,QGAM] = [ 11.38, 22.75] = [ 36.24,144.96] Ry 
 Optimized for a Real-space Cutoff    1.31 Angstroem

   l    n(q)    QCUT    max X(q) W(low)/X(q) W(high)/X(q)  e(spline) 
   0      9    11.376   194.483    0.24E-03    0.23E-03    0.67E-07
   0      9    11.376   190.334    0.23E-03    0.22E-03    0.65E-07
   1      8    11.376   116.687    0.25E-03    0.63E-04    0.16E-06
   1      8    11.376    88.696    0.25E-03    0.61E-04    0.16E-06
   2      8    11.376     4.877    0.17E-03    0.14E-03    0.29E-07
 Optimization of the real space projectors (new method)

 maximal supplied QI-value         = 12.09
 optimisation between [QCUT,QGAM] = [ 11.37, 22.86] = [ 36.19,146.31] Ry 
 Optimized for a Real-space Cutoff    1.66 Angstroem

   l    n(q)    QCUT    max X(q) W(low)/X(q) W(high)/X(q)  e(spline) 
   0     11    11.369   135.111    0.12E-03    0.69E-04    0.19E-05
   0     11    11.369   146.850    0.11E-03    0.65E-04    0.18E-05
   1     11    11.369   148.016    0.17E-03    0.32E-03    0.89E-06
   1     11    11.369   122.989    0.17E-03    0.32E-03    0.91E-06
   2     10    11.369     8.916    0.12E-03    0.45E-04    0.33E-06
  PAW_PBE H 15Jun2001                   :
 energy of atom  1       EATOM=  -12.4884
 kinetic energy error for atom=    0.0020 (will be added to EATOM!!)
  PAW_PBE C 08Apr2002                   :
 energy of atom  2       EATOM= -147.1560
 kinetic energy error for atom=    0.0076 (will be added to EATOM!!)
  PAW_PBE N 08Apr2002                   :
 energy of atom  3       EATOM= -264.5486
 kinetic energy error for atom=    0.0138 (will be added to EATOM!!)
  PAW_PBE I 08Apr2002                   :
 energy of atom  4       EATOM= -315.8678
 kinetic energy error for atom=    0.0009 (will be added to EATOM!!)
  PAW_PBE Pb 08Apr2002                  :
 energy of atom  5       EATOM=  -96.9868
 kinetic energy error for atom=    0.0000 (will be added to EATOM!!)
 
 
 POSCAR:  H  C  N  I Pb
  positions in cartesian coordinates
  No initial velocities read in
 exchange correlation table for  LEXCH =        8
   RHO(1)=    0.500       N(1)  =     2000
   RHO(2)=  100.500       N(2)  =     4000
 


--------------------------------------------------------------------------------------------------------


 ion  position               nearest neighbor table
   1  0.421  0.256  0.578- 187 1.05
   2  0.410  0.724  0.575- 188 1.06
   3  0.925  0.282  0.581- 189 1.03
   4  0.940  0.816  0.577- 190 1.04
   5  0.317  0.070  0.575- 194 1.01
   6  0.307  0.582  0.573- 195 1.03
   7  0.798  0.077  0.578- 196 1.01
   8  0.108  0.220  0.565- 183 1.03
   9  0.081  0.674  0.569- 184 1.01
  10  0.610  0.201  0.565- 185 1.03
  11  0.604  0.745  0.562- 186 1.04
  12  0.374  0.011  0.560- 194 1.04
  13  0.257  0.621  0.552- 195 1.03
  14  0.871  0.037  0.564- 196 1.03
  15  0.061  0.273  0.585- 183 1.03
  16  1.000  0.690  0.583- 184 1.04
  17  0.530  0.175  0.580- 185 1.04
  18  0.543  0.691  0.578- 186 1.04
  19  0.288  0.448  0.581- 191 1.02
  20  0.182  0.046  0.573- 192 1.01
  21  0.677  0.017  0.576- 193 1.02
  22  0.431  0.337  0.562- 187 1.02
  23  0.387  0.795  0.557- 188 1.01
  24  0.883  0.234  0.560- 189 1.03
  25  0.985  0.873  0.559- 190 1.02
  26  0.220  0.403  0.565- 191 1.03
  27  0.152  0.976  0.556- 192 1.02
  28  0.674  0.933  0.561- 193 1.02
  29  0.551  0.302  0.550- 146 1.09
  30  0.513  0.812  0.547- 147 1.09
  31  0.998  0.193  0.547- 144 1.10
  32  0.078  0.787  0.551- 145 1.08
  33  0.193  0.509  0.545- 148 1.10
  34  0.275  0.945  0.546- 149 1.11
  35  0.796  0.939  0.552- 150 1.10
  36  0.440  0.282  0.676- 205 1.04
  37  0.431  0.822  0.672- 206 1.04
  38  0.974  0.274  0.682- 207 1.02
  39  0.930  0.771  0.674- 208 1.01
  40  0.293  0.046  0.676- 209 1.03
  41  0.304  0.553  0.673- 210 1.04
  42  0.794  0.059  0.676- 211 1.04
  43  0.813  0.544  0.676- 212 1.02
  44  0.085  0.165  0.645- 197 1.02
  45  0.101  0.690  0.654- 198 1.01
  46  0.581  0.174  0.648- 199 1.01
  47  0.562  0.677  0.655- 200 1.01
  48  0.181  0.407  0.653- 201 1.00
  49  0.168  0.923  0.647- 202 1.01
  50  0.664  0.435  0.650- 203 1.04
  51  0.669  0.922  0.651- 204 1.00
  52  0.074  0.175  0.672- 197 1.04
  53  0.037  0.675  0.674- 198 1.03
  54  0.539  0.177  0.673- 199 1.03
  55  0.525  0.716  0.679- 200 1.04
  56  0.216  0.439  0.677- 201 1.03
  57  0.186  0.951  0.673- 202 1.03
  58  0.708  0.444  0.675- 203 1.02
  59  0.691  0.958  0.676- 204 1.03
  60  0.430  0.336  0.653- 205 1.01
  61  0.416  0.840  0.645- 206 1.02
  62  0.933  0.317  0.660- 207 1.01
  63  0.935  0.837  0.654- 208 1.02
  64  0.336  0.067  0.652- 209 0.99
  65  0.313  0.585  0.647- 210 1.01
  66  0.829  0.076  0.650- 211 1.02
  67  0.826  0.592  0.652- 212 1.03
  68  0.999  0.252  0.635- 151 1.09
  69  0.043  0.789  0.639- 152 1.08
  70  0.516  0.273  0.634- 153 1.07
  71  0.497  0.751  0.633- 154 1.08
  72  0.260  0.992  0.632- 156 1.07
  73  0.237  0.494  0.633- 155 1.08
  74  0.752  0.991  0.633- 158 1.08
  75  0.733  0.529  0.634- 157 1.10
  76  0.449  0.301  0.769- 221 1.02
  77  0.449  0.801  0.769- 222 1.02
  78  0.949  0.301  0.769- 223 1.02
  79  0.949  0.801  0.769- 224 1.02
  80  0.301  0.051  0.769- 225 1.02
  81  0.301  0.551  0.769- 226 1.02
  82  0.801  0.051  0.769- 227 1.02
  83  0.801  0.551  0.769- 228 1.02
  84  0.079  0.171  0.743- 213 1.02
  85  0.079  0.671  0.743- 214 1.02
  86  0.579  0.171  0.743- 215 1.02
  87  0.579  0.671  0.743- 216 1.02
  88  0.171  0.421  0.743- 217 1.02
  89  0.171  0.921  0.743- 218 1.02
  90  0.671  0.421  0.743- 219 1.02
  91  0.671  0.921  0.743- 220 1.02
  92  0.051  0.199  0.769- 213 1.02
  93  0.051  0.699  0.769- 214 1.02
  94  0.551  0.199  0.769- 215 1.02
  95  0.551  0.699  0.769- 216 1.02
  96  0.199  0.449  0.769- 217 1.02
  97  0.199  0.949  0.769- 218 1.02
  98  0.699  0.449  0.769- 219 1.02
  99  0.699  0.949  0.769- 220 1.02
 100  0.421  0.329  0.743- 221 1.02
 101  0.421  0.829  0.743- 222 1.02
 102  0.921  0.329  0.743- 223 1.02
 103  0.921  0.829  0.743- 224 1.02
 104  0.329  0.079  0.743- 225 1.02
 105  0.329  0.579  0.743- 226 1.02
 106  0.829  0.079  0.743- 227 1.02
 107  0.829  0.579  0.743- 228 1.02
 108  0.000  0.250  0.726- 161 1.09
 109  0.000  0.750  0.726- 162 1.09
 110  0.500  0.250  0.726- 159 1.09
 111  0.500  0.750  0.726- 160 1.09
 112  0.250  0.000  0.726- 163 1.09
 113  0.250  0.500  0.726- 164 1.09
 114  0.750  0.000  0.726- 165 1.09
 115  0.750  0.500  0.726- 166 1.09
 116  0.791  0.509  0.517- 173 1.10
 117  0.872  0.505  0.533- 173 1.09
 118  0.754  0.627  0.537- 174 1.08
 119  0.767  0.624  0.565- 174 1.09
 120  0.682  0.454  0.555- 175 1.08
 121  0.669  0.546  0.562- 175 1.10
 122  0.798  0.430  0.570- 176 1.09
 123  0.865  0.500  0.571- 176 1.10
 124  0.861  0.379  0.540- 177 1.09
 125  0.766  0.374  0.535- 177 1.09
 126  0.779  0.379  0.499- 178 1.11
 127  0.869  0.417  0.499- 178 1.12
 128  0.895  0.613  0.532- 179 1.09
 129  0.901  0.610  0.561- 179 1.09
 130  0.869  0.690  0.548- 179 1.09
 131  0.595  0.521  0.530- 180 1.10
 132  0.674  0.485  0.516- 180 1.10
 133  0.666  0.581  0.522- 180 1.09
 134  0.716  0.487  0.595- 181 1.11
 135  0.760  0.576  0.592- 181 1.09
 136  0.807  0.503  0.605- 181 1.10
 137  0.832  0.261  0.516- 182 1.09
 138  0.848  0.278  0.489- 182 1.09
 139  0.934  0.170  0.501- 168 1.11
 140  0.974  0.399  0.516- 169 1.07
 141  0.069  0.145  0.504- 170 1.09
 142  0.108  0.374  0.518- 171 1.10
 143  0.157  0.248  0.512- 172 1.09
 144  0.996  0.227  0.561-  31 1.10 183 1.32 189 1.32
 145  0.033  0.772  0.562-  32 1.08 184 1.31 190 1.32
 146  0.520  0.268  0.561-  29 1.09 187 1.31 185 1.32
 147  0.497  0.769  0.558-  30 1.09 188 1.30 186 1.31
 148  0.235  0.512  0.558-  33 1.10 195 1.31 191 1.32
 149  0.264  0.992  0.557-  34 1.11 194 1.31 192 1.32
 150  0.772  0.984  0.562-  35 1.10 193 1.31 196 1.32
 151  0.009  0.242  0.652-  68 1.09 207 1.32 197 1.32
 152  0.018  0.764  0.653-  69 1.08 208 1.31 198 1.33
 153  0.506  0.256  0.650-  70 1.07 205 1.30 199 1.32
 154  0.489  0.759  0.650-  71 1.08 206 1.30 200 1.31
 155  0.247  0.496  0.650-  73 1.08 210 1.29 201 1.32
 156  0.252  0.995  0.649-  72 1.07 202 1.31 209 1.32
 157  0.744  0.514  0.651-  75 1.10 203 1.30 212 1.31
 158  0.750  0.999  0.650-  74 1.08 211 1.29 204 1.32
 159  0.500  0.250  0.743- 110 1.09 221 1.31 215 1.31
 160  0.500  0.750  0.743- 111 1.09 222 1.31 216 1.31
 161  1.000  0.250  0.743- 108 1.09 223 1.31 213 1.31
 162  1.000  0.750  0.743- 109 1.09 224 1.31 214 1.31
 163  0.250  0.000  0.743- 112 1.09 225 1.31 218 1.31
 164  0.250  0.500  0.743- 113 1.09 226 1.31 217 1.31
 165  0.750  0.000  0.743- 114 1.09 227 1.31 220 1.31
 166  0.750  0.500  0.743- 115 1.09 228 1.31 219 1.31
 167  0.944  0.288  0.508- 169 1.38 168 1.43 182 1.51
 168  0.973  0.215  0.505- 139 1.11 170 1.39 167 1.43
 169  0.993  0.343  0.513- 140 1.07 167 1.38 171 1.41
 170  0.049  0.201  0.506- 141 1.09 168 1.39 172 1.40
 171  0.070  0.329  0.515- 142 1.10 172 1.39 169 1.41
 172  0.097  0.259  0.511- 143 1.09 171 1.39 170 1.40
 173  0.816  0.484  0.532- 117 1.09 116 1.10 177 1.51 229 1.53
 174  0.789  0.605  0.549- 118 1.08 119 1.09 179 1.51 229 1.52
 175  0.692  0.510  0.549- 120 1.08 121 1.10 180 1.51 229 1.53
 176  0.805  0.490  0.571- 122 1.09 123 1.10 181 1.52 229 1.52
 177  0.817  0.401  0.530- 125 1.09 124 1.09 173 1.51 178 1.53
 178  0.832  0.376  0.507- 126 1.11 127 1.12 182 1.51 177 1.53
 179  0.869  0.629  0.547- 129 1.09 128 1.09 130 1.09 174 1.51
 180  0.656  0.525  0.528- 133 1.09 132 1.10 131 1.10 175 1.51
 181  0.769  0.516  0.592- 135 1.09 136 1.10 134 1.11 176 1.52
 182  0.862  0.298  0.505- 137 1.09 138 1.09 167 1.51 178 1.51
 183  0.059  0.238  0.572-   8 1.03  15 1.03 144 1.32
 184  0.037  0.707  0.572-   9 1.01  16 1.04 145 1.31
 185  0.554  0.208  0.568-  10 1.03  17 1.04 146 1.32
 186  0.550  0.728  0.566-  18 1.04  11 1.04 147 1.31
 187  0.453  0.287  0.567-  22 1.02   1 1.05 146 1.31
 188  0.428  0.764  0.564-  23 1.01   2 1.06 147 1.30
 189  0.931  0.252  0.567-   3 1.03  24 1.03 144 1.32
 190  0.980  0.821  0.565-  25 1.02   4 1.04 145 1.32
 191  0.248  0.451  0.569-  19 1.02  26 1.03 148 1.32
 192  0.195  0.006  0.562-  20 1.01  27 1.02 149 1.32
 193  0.701  0.980  0.566-  21 1.02  28 1.02 150 1.31
 194  0.321  0.029  0.564-   5 1.01  12 1.04 149 1.31
 195  0.269  0.575  0.562-   6 1.03  13 1.03 148 1.31
 196  0.816  0.037  0.568-   7 1.01  14 1.03 150 1.32
 197  0.059  0.191  0.657-  44 1.02  52 1.04 151 1.32
 198  0.054  0.705  0.661-  45 1.01  53 1.03 152 1.33
 199  0.544  0.199  0.657-  46 1.01  54 1.03 153 1.32
 200  0.528  0.716  0.662-  47 1.01  55 1.04 154 1.31
 201  0.213  0.444  0.661-  48 1.00  56 1.03 155 1.32
 202  0.198  0.954  0.657-  49 1.01  57 1.03 156 1.31
 203  0.705  0.462  0.659-  58 1.02  50 1.04 157 1.30
 204  0.700  0.956  0.660-  51 1.00  59 1.03 158 1.32
 205  0.456  0.293  0.660-  60 1.01  36 1.04 153 1.30
 206  0.443  0.810  0.656-  61 1.02  37 1.04 154 1.30
 207  0.970  0.280  0.666-  62 1.01  38 1.02 151 1.32
 208  0.956  0.791  0.661-  39 1.01  63 1.02 152 1.31
 209  0.297  0.039  0.660-  64 0.99  40 1.03 156 1.32
 210  0.290  0.547  0.657-  65 1.01  41 1.04 155 1.29
 211  0.793  0.046  0.659-  66 1.02  42 1.04 158 1.29
 212  0.797  0.551  0.660-  43 1.02  67 1.03 157 1.31
 213  0.046  0.204  0.753-  92 1.02  84 1.02 161 1.31
 214  0.046  0.704  0.753-  93 1.02  85 1.02 162 1.31
 215  0.546  0.204  0.753-  94 1.02  86 1.02 159 1.31
 216  0.546  0.704  0.753-  95 1.02  87 1.02 160 1.31
 217  0.204  0.454  0.753-  96 1.02  88 1.02 164 1.31
 218  0.204  0.954  0.753-  97 1.02  89 1.02 163 1.31
 219  0.704  0.454  0.753-  98 1.02  90 1.02 166 1.31
 220  0.704  0.954  0.753-  99 1.02  91 1.02 165 1.31
 221  0.454  0.296  0.753-  76 1.02 100 1.02 159 1.31
 222  0.454  0.796  0.753-  77 1.02 101 1.02 160 1.31
 223  0.954  0.296  0.753-  78 1.02 102 1.02 161 1.31
 224  0.954  0.796  0.753-  79 1.02 103 1.02 162 1.31
 225  0.296  0.046  0.753-  80 1.02 104 1.02 163 1.31
 226  0.296  0.546  0.753-  81 1.02 105 1.02 164 1.31
 227  0.796  0.046  0.753-  82 1.02 106 1.02 165 1.31
 228  0.796  0.546  0.753-  83 1.02 107 1.02 166 1.31
 229  0.775  0.522  0.550- 176 1.52 174 1.52 175 1.53 173 1.53
 230  0.504  0.979  0.555- 304 3.14
 231  0.455  0.481  0.554- 305 3.13
 232  0.001  0.015  0.553- 302 3.27
 233  0.037  0.493  0.557- 303 3.11
 234  0.247  0.246  0.556- 306 3.12
 235  0.233  0.769  0.552- 307 3.24
 236  0.744  0.224  0.555- 308 3.25
 237  0.715  0.794  0.547- 309 3.72
 238  0.000  0.993  0.655- 310 3.12 302 3.13
 239  0.004  0.502  0.656- 311 3.05 303 3.15
 240  0.498  0.008  0.655- 312 3.10 304 3.16
 241  0.499  0.502  0.654- 313 3.15 305 3.22
 242  0.257  0.239  0.656- 314 3.04 306 3.14
 243  0.247  0.750  0.654- 315 3.16 307 3.17
 244  0.741  0.255  0.656- 316 3.08 308 3.09
 245  0.754  0.753  0.654- 309 3.08 317 3.18
 246  0.143  0.107  0.609- 302 3.19 306 3.26
 247  0.145  0.609  0.610- 303 3.12 307 3.24
 248  0.646  0.107  0.610- 304 3.26 308 3.30
 249  0.611  0.639  0.614- 309 3.32 305 3.35
 250  0.363  0.386  0.613- 305 3.19 306 3.21
 251  0.362  0.887  0.607- 307 3.19 304 3.24
 252  0.891  0.361  0.616- 308 3.22 303 3.41
 253  0.865  0.887  0.608- 309 3.17 302 3.25
 254  0.118  0.364  0.614- 306 3.22 303 3.26
 255  0.119  0.876  0.608- 307 3.11 302 3.23
 256  0.616  0.369  0.607- 308 3.19 305 3.23
 257  0.621  0.868  0.613- 309 3.12 304 3.13
 258  0.396  0.141  0.607- 306 3.24 304 3.31
 259  0.379  0.636  0.606- 305 3.23 307 3.31
 260  0.887  0.137  0.614- 302 3.12 308 3.30
 261  0.914  0.662  0.614- 303 3.38 309 3.46
 262  0.000  0.000  0.755- 310 3.13 318 3.27
 263  0.000  0.500  0.755- 311 3.13 319 3.27
 264  0.500  0.000  0.755- 312 3.13 320 3.27
 265  0.500  0.500  0.755- 313 3.13 321 3.27
 266  0.250  0.250  0.755- 314 3.13 322 3.27
 267  0.250  0.750  0.755- 315 3.13 323 3.27
 268  0.750  0.250  0.755- 316 3.13 324 3.27
 269  0.750  0.750  0.755- 317 3.13 325 3.27
 270  0.136  0.114  0.705- 310 3.20 314 3.20
 271  0.136  0.614  0.705- 311 3.20 315 3.20
 272  0.636  0.114  0.705- 312 3.20 316 3.20
 273  0.636  0.614  0.705- 313 3.20 317 3.20
 274  0.364  0.386  0.705- 313 3.20 314 3.20
 275  0.364  0.886  0.705- 312 3.20 315 3.20
 276  0.864  0.386  0.705- 311 3.20 316 3.20
 277  0.864  0.886  0.705- 310 3.20 317 3.20
 278  0.114  0.364  0.705- 314 3.21 311 3.21
 279  0.114  0.864  0.705- 315 3.21 310 3.21
 280  0.614  0.364  0.705- 316 3.21 313 3.21
 281  0.614  0.864  0.705- 317 3.21 312 3.21
 282  0.386  0.136  0.705- 314 3.21 312 3.21
 283  0.386  0.636  0.705- 315 3.21 313 3.21
 284  0.886  0.136  0.705- 316 3.21 310 3.21
 285  0.886  0.636  0.705- 317 3.21 311 3.21
 286  0.135  0.115  0.801- 318 3.22 322 3.22
 287  0.135  0.615  0.801- 319 3.22 323 3.22
 288  0.635  0.115  0.801- 320 3.22 324 3.22
 289  0.635  0.615  0.801- 321 3.22 325 3.22
 290  0.365  0.385  0.801- 321 3.22 322 3.22
 291  0.365  0.885  0.801- 320 3.22 323 3.22
 292  0.865  0.385  0.801- 319 3.22 324 3.22
 293  0.865  0.885  0.801- 318 3.22 325 3.22
 294  0.115  0.365  0.801- 319 3.23 322 3.23
 295  0.115  0.865  0.801- 318 3.23 323 3.23
 296  0.615  0.365  0.801- 321 3.23 324 3.23
 297  0.615  0.865  0.801- 320 3.23 325 3.23
 298  0.385  0.135  0.801- 320 3.23 322 3.23
 299  0.385  0.635  0.801- 321 3.23 323 3.23
 300  0.885  0.135  0.801- 318 3.23 324 3.23
 301  0.885  0.635  0.801- 319 3.23 325 3.23
 302  0.998  0.008  0.605- 260 3.12 238 3.13 246 3.19 255 3.23 253 3.25 232 3.27
 303  0.008  0.504  0.606- 233 3.11 247 3.12 239 3.15 254 3.26 261 3.38 252 3.41
 304  0.505  0.994  0.605- 257 3.13 230 3.14 240 3.16 251 3.24 248 3.26 258 3.31
 305  0.494  0.500  0.603- 231 3.13 250 3.19 241 3.22 256 3.23 259 3.23 249 3.35
 306  0.253  0.249  0.606- 234 3.12 242 3.14 250 3.21 254 3.22 258 3.24 246 3.26
 307  0.242  0.757  0.604- 255 3.11 243 3.17 251 3.19 247 3.24 235 3.24 259 3.31
 308  0.751  0.256  0.606- 244 3.09 256 3.19 252 3.22 236 3.25 260 3.30 248 3.30
 309  0.749  0.755  0.605- 245 3.08 257 3.12 253 3.17 249 3.32 261 3.46 237 3.72
 310  0.000  0.000  0.705- 238 3.12 262 3.13 270 3.20 277 3.20 279 3.21 284 3.21
 311  0.000  0.500  0.705- 239 3.05 263 3.13 271 3.20 276 3.20 278 3.21 285 3.21
 312  0.500  0.000  0.705- 240 3.10 264 3.13 272 3.20 275 3.20 281 3.21 282 3.21
 313  0.500  0.500  0.705- 265 3.13 241 3.15 273 3.20 274 3.20 280 3.21 283 3.21
 314  0.250  0.250  0.705- 242 3.04 266 3.13 270 3.20 274 3.20 282 3.21 278 3.21
 315  0.250  0.750  0.705- 267 3.13 243 3.16 271 3.20 275 3.20 283 3.21 279 3.21
 316  0.750  0.250  0.705- 244 3.08 268 3.13 272 3.20 276 3.20 284 3.21 280 3.21
 317  0.750  0.750  0.705- 269 3.13 245 3.18 273 3.20 277 3.20 285 3.21 281 3.21
 318  0.000  0.000  0.807- 286 3.22 293 3.22 300 3.23 295 3.23 262 3.27
 319  0.000  0.500  0.807- 287 3.22 292 3.22 301 3.23 294 3.23 263 3.27
 320  0.500  0.000  0.807- 288 3.22 291 3.22 298 3.23 297 3.23 264 3.27
 321  0.500  0.500  0.807- 289 3.22 290 3.22 299 3.23 296 3.23 265 3.27
 322  0.250  0.250  0.807- 290 3.22 286 3.22 294 3.23 298 3.23 266 3.27
 323  0.250  0.750  0.807- 291 3.22 287 3.22 299 3.23 295 3.23 267 3.27
 324  0.750  0.250  0.807- 292 3.22 288 3.22 296 3.23 300 3.23 268 3.27
 325  0.750  0.750  0.807- 293 3.22 289 3.22 297 3.23 301 3.23 269 3.27
 

IMPORTANT INFORMATION: All symmetrisations will be switched off!
NOSYMM: (Re-)initialisation of all symmetry stuff for point group C_1.


----------------------------------------------------------------------------------------

                                     Primitive cell                                     

  volume of cell :   20385.2105

  direct lattice vectors                    reciprocal lattice vectors
    18.060800552  0.000000000  0.000000000     0.055368531  0.000015077 -0.000000000
    -0.004918649 18.062799454  0.000000000     0.000000000  0.055362404  0.000000000
     0.000000000  0.000000000 62.487499237     0.000000000 -0.000000000  0.016003201

  length of vectors
    18.060800552 18.062800123 62.487499237     0.055368533  0.055362404  0.016003201

  position of ions in fractional coordinates (direct lattice)
     0.421354484  0.256347181  0.577764547
     0.410341043  0.723641037  0.575025229
     0.924653395  0.282458497  0.581037113
     0.940062493  0.815534594  0.577060121
     0.316991385  0.070482405  0.574645393
     0.307136616  0.581709144  0.573490621
     0.797612620  0.077381138  0.578323619
     0.108211650  0.219761647  0.565260520
     0.080816252  0.673581371  0.568884536
     0.609870881  0.200896882  0.564928056
     0.603542673  0.745268771  0.561713851
     0.374054156  0.011487016  0.559766196
     0.256533978  0.621176747  0.552415788
     0.871098367  0.037061988  0.563955938
     0.061320718  0.273235160  0.584505153
     0.999623119  0.690361167  0.583250446
     0.529661747  0.174650669  0.579992287
     0.542748142  0.690929323  0.578246272
     0.287512875  0.447575366  0.580793778
     0.182272129  0.046450515  0.572946322
     0.677142829  0.017160224  0.575936056
     0.431102807  0.336503862  0.561606347
     0.387473620  0.794791169  0.557146409
     0.883419194  0.234308919  0.559763327
     0.985025993  0.872585997  0.558934548
     0.220376232  0.402945573  0.565492866
     0.151969456  0.976024896  0.555922043
     0.674129249  0.933100037  0.561255141
     0.551063494  0.302406102  0.550133593
     0.513030690  0.812163302  0.547022619
     0.998348634  0.193157729  0.546633137
     0.077677117  0.786554305  0.551248623
     0.193351811  0.509334000  0.545457304
     0.274879714  0.944657788  0.545962288
     0.795534614  0.939423638  0.551530784
     0.440477737  0.281745094  0.676086642
     0.431023555  0.821540966  0.672034073
     0.973675833  0.274296896  0.682235943
     0.929671639  0.771323751  0.673777220
     0.293331161  0.046109458  0.676272226
     0.303546308  0.553264487  0.673472960
     0.793731632  0.058840228  0.675554492
     0.812644600  0.544359099  0.675863330
     0.085240796  0.165163450  0.644532723
     0.101220073  0.689973632  0.653635801
     0.581383171  0.173807741  0.647744242
     0.561912079  0.676965175  0.655444818
     0.181276805  0.406829504  0.652837179
     0.168003773  0.923305958  0.646874195
     0.664381553  0.435456049  0.650261530
     0.669108105  0.921849461  0.651026270
     0.073570159  0.175111356  0.672165447
     0.036688624  0.674689172  0.673809758
     0.538612510  0.177492149  0.672543147
     0.525244377  0.715859289  0.678644954
     0.216065296  0.439196925  0.677030739
     0.185889825  0.951370283  0.673071451
     0.707994988  0.443709307  0.674833461
     0.691010468  0.957643267  0.676084444
     0.430169603  0.335508968  0.653167812
     0.416176583  0.839909710  0.644852123
     0.933196764  0.316870350  0.660463094
     0.935232548  0.837282707  0.653556928
     0.336172793  0.066769051  0.652325358
     0.312537626  0.584710429  0.647493093
     0.828571993  0.075906650  0.650092185
     0.825584061  0.591879301  0.652053942
     0.999478549  0.252441313  0.634997124
     0.042537290  0.789398359  0.639053417
     0.516456708  0.272831839  0.633638820
     0.497228764  0.750740145  0.632602175
     0.259954750  0.991907575  0.632249627
     0.237417849  0.493969024  0.632538991
     0.752477470  0.991298269  0.633000204
     0.732537762  0.528640008  0.633949735
     0.448745018  0.301283966  0.768889017
     0.448745007  0.801283913  0.768889017
     0.948744965  0.301283966  0.768889017
     0.948745007  0.801283913  0.768889017
     0.301275995  0.051294496  0.768872961
     0.301276011  0.551294499  0.768872961
     0.801275943  0.051294496  0.768872961
     0.801275984  0.551294499  0.768872961
     0.078771004  0.171180501  0.743441971
     0.078771006  0.671180448  0.743441971
     0.578771004  0.171180501  0.743441971
     0.578770992  0.671180448  0.743441971
     0.171199499  0.421174482  0.743421032
     0.171199501  0.921174508  0.743421032
     0.671199512  0.421174482  0.743421032
     0.671199501  0.921174508  0.743421032
     0.051256000  0.198714991  0.768889017
     0.051256002  0.698714925  0.768889017
     0.551256027  0.198714991  0.768889017
     0.551256016  0.698714925  0.768889017
     0.198723491  0.448703970  0.768872046
     0.198723493  0.948703970  0.768872046
     0.698723518  0.448703970  0.768872046
     0.698723507  0.948703970  0.768872046
     0.421231519  0.328817467  0.743441971
     0.421231508  0.828817440  0.743441971
     0.921231466  0.328817467  0.743441971
     0.921231508  0.828817440  0.743441971
     0.328800503  0.078824997  0.743421032
     0.328800492  0.578824964  0.743421032
     0.828800477  0.078824997  0.743421032
     0.828800519  0.578824964  0.743421032
     0.000003500  0.250001478  0.725821992
     0.000003500  0.750001452  0.725821992
     0.500003506  0.250001478  0.725821992
     0.500003495  0.750001452  0.725821992
     0.250000502  0.000000000  0.725803983
     0.250000517  0.500000000  0.725803983
     0.750000502  0.000000000  0.725803983
     0.750000490  0.500000000  0.725803983
     0.791355469  0.509041554  0.517067531
     0.872421376  0.504975761  0.532571242
     0.754160587  0.626883281  0.537006456
     0.767325752  0.624268475  0.564729835
     0.682308486  0.453576300  0.554520213
     0.669103370  0.546428452  0.561659214
     0.798337988  0.430281161  0.569574676
     0.864784777  0.500354589  0.570640930
     0.860984694  0.379280191  0.540466743
     0.766210176  0.373970854  0.535391326
     0.778553044  0.378576530  0.498617857
     0.868842454  0.416552386  0.498675181
     0.895136841  0.612826420  0.531993368
     0.901491277  0.609936591  0.560522023
     0.869037773  0.689735039  0.547543475
     0.595098873  0.520993581  0.529678025
     0.673631834  0.485472659  0.515566132
     0.665768972  0.580702925  0.522283968
     0.716344718  0.486791915  0.595214509
     0.759854111  0.575825157  0.591914227
     0.807296210  0.502972299  0.604606463
     0.831605570  0.261117111  0.515699399
     0.848262453  0.278392730  0.488892890
     0.934379468  0.169530586  0.500740810
     0.973597730  0.398750664  0.515751533
     0.069452193  0.145437674  0.503588761
     0.108473908  0.374226052  0.518451963
     0.156655305  0.248036955  0.512182338
     0.996351941  0.226968428  0.561200138
     0.032937403  0.771789638  0.561993082
     0.520044472  0.267693012  0.561276019
     0.496940074  0.769110630  0.558279631
     0.235338771  0.512226575  0.558149479
     0.263743159  0.991687036  0.556850635
     0.772430679  0.984186438  0.561525581
     0.008598638  0.241580984  0.652000281
     0.017730912  0.763812222  0.652950117
     0.505967799  0.255722664  0.649806910
     0.489283363  0.758886355  0.649556128
     0.247337774  0.496153107  0.649577983
     0.252204012  0.995027819  0.649148087
     0.744492137  0.513790338  0.650742095
     0.749677314  0.998919505  0.650146150
     0.499988984  0.249994984  0.743277021
     0.499989025  0.749994958  0.743277021
     0.999988984  0.249994984  0.743277021
     0.999989025  0.749994958  0.743277021
     0.250000502  0.000001000  0.743255960
     0.250000517  0.500001003  0.743255960
     0.750000502  0.000001000  0.743255960
     0.750000491  0.500001003  0.743255960
     0.943804018  0.287660153  0.508055353
     0.973089293  0.215167442  0.504869504
     0.993112268  0.343434273  0.513051042
     0.048589220  0.201370399  0.505906394
     0.069561293  0.329274035  0.514842538
     0.097475668  0.258667350  0.510951012
     0.816047179  0.484342736  0.531580138
     0.789414711  0.604568701  0.549448825
     0.691576906  0.509894131  0.549277098
     0.804823229  0.489861046  0.571011426
     0.817216104  0.401018431  0.530144732
     0.832171405  0.376068137  0.507223338
     0.868796561  0.629223750  0.546996125
     0.655500600  0.524535990  0.527908384
     0.768952819  0.516190680  0.591563571
     0.861597368  0.298022124  0.504980916
     0.058779398  0.237594071  0.571629836
     0.037387539  0.707264879  0.571643388
     0.554482656  0.207886586  0.568453786
     0.550386808  0.727571826  0.565622042
     0.452832712  0.287371323  0.566821867
     0.427982632  0.763884925  0.563895135
     0.931163073  0.252421910  0.567241263
     0.979951515  0.820801746  0.565264671
     0.247878615  0.451365343  0.569256620
     0.194569682  0.005550855  0.562410402
     0.701394298  0.980180148  0.565879845
     0.321294069  0.029138636  0.563794712
     0.268697932  0.575409375  0.561549634
     0.816417897  0.037176737  0.568489620
     0.058617026  0.190934326  0.656751720
     0.053794684  0.705474773  0.660906542
     0.544011729  0.198638896  0.657265494
     0.528490625  0.715826713  0.662053378
     0.212771213  0.443801016  0.660557474
     0.198467530  0.954202128  0.656968560
     0.704505014  0.462020025  0.659443115
     0.700276483  0.956464796  0.659754334
     0.456211964  0.292546026  0.660374148
     0.443472307  0.809616816  0.656081236
     0.969923814  0.279530178  0.666083603
     0.956093316  0.791007369  0.660626640
     0.297399216  0.038804734  0.659994617
     0.289910376  0.546879714  0.657421409
     0.792730107  0.046434147  0.659286284
     0.797347854  0.551213508  0.660205413
     0.045862501  0.204119496  0.752725994
     0.045862500  0.704119456  0.752725994
     0.545862507  0.204119496  0.752725994
     0.545862496  0.704119456  0.752725994
     0.204119002  0.454101003  0.752704994
     0.204118991  0.954100951  0.752704994
     0.704118976  0.454101003  0.752704994
     0.704118964  0.954100951  0.752704994
     0.454140018  0.295888490  0.752726971
     0.454140007  0.795888516  0.752726971
     0.954140018  0.295888490  0.752726971
     0.954140060  0.795888516  0.752726971
     0.295882492  0.045900498  0.752704994
     0.295882481  0.545900528  0.752704994
     0.795882439  0.045900498  0.752704994
     0.795882481  0.545900528  0.752704994
     0.775363965  0.521633911  0.550234504
     0.503647279  0.978790293  0.554728018
     0.454972038  0.481421914  0.554385725
     0.001162720  0.014715451  0.552664556
     0.037366853  0.492629546  0.556562735
     0.247052934  0.246064829  0.556318546
     0.232967077  0.768563382  0.551908301
     0.744397637  0.224189658  0.554950535
     0.715316657  0.793612513  0.546994537
     0.000310371  0.993115885  0.654974020
     0.004295250  0.502039311  0.655987712
     0.497868741  0.007746640  0.655232739
     0.499234451  0.502162911  0.654467266
     0.257352755  0.238748572  0.656267126
     0.247170966  0.750044429  0.654274234
     0.741104314  0.255140939  0.655592919
     0.753814001  0.752583735  0.653919244
     0.142977826  0.106739730  0.609294474
     0.144551246  0.608839666  0.610138881
     0.646021419  0.106532420  0.609568332
     0.610806025  0.638675701  0.613942803
     0.363174195  0.386365167  0.613281355
     0.362194016  0.886650724  0.606945310
     0.890638226  0.360515386  0.615983128
     0.865079628  0.886758959  0.607976583
     0.118354079  0.363686865  0.613713632
     0.118632869  0.876234001  0.607902289
     0.615821336  0.369280887  0.606574814
     0.620741149  0.867966778  0.612568810
     0.395841187  0.141284791  0.606519383
     0.378853898  0.636023725  0.606410962
     0.887186345  0.137124940  0.613643732
     0.913595691  0.662452882  0.613775839
     0.000000000  0.000000000  0.754927972
     0.000000000  0.500000000  0.754927972
     0.500000000  0.000000000  0.754927972
     0.499999989  0.500000000  0.754927972
     0.250000496  0.250000000  0.754939022
     0.250000511  0.749999974  0.754939022
     0.750000470  0.250000000  0.754939022
     0.750000458  0.749999974  0.754939022
     0.135790500  0.114209997  0.704782994
     0.135790502  0.614209984  0.704782994
     0.635790447  0.114209997  0.704782994
     0.635790488  0.614209984  0.704782994
     0.364209516  0.385789989  0.704782994
     0.364209505  0.885789963  0.704782994
     0.864209542  0.385789989  0.704782994
     0.864209531  0.885789963  0.704782994
     0.114217990  0.364218986  0.704780979
     0.114217992  0.864218986  0.704780979
     0.614218004  0.364218986  0.704780979
     0.614217992  0.864218986  0.704780979
     0.385782012  0.135781489  0.704782017
     0.385782001  0.635781489  0.704782017
     0.885781985  0.135781489  0.704782017
     0.885782027  0.635781489  0.704782017
     0.134667000  0.115332001  0.801256025
     0.134666989  0.615331988  0.801256025
     0.634666987  0.115332001  0.801256025
     0.634666976  0.615331988  0.801256025
     0.365333002  0.384667985  0.801256025
     0.365332990  0.884667959  0.801256025
     0.865332949  0.384667985  0.801256025
     0.865332938  0.884667959  0.801256025
     0.115328503  0.365337004  0.801264999
     0.115328505  0.865336978  0.801264999
     0.615328503  0.365337004  0.801264999
     0.615328492  0.865336978  0.801264999
     0.384671513  0.134662996  0.801264999
     0.384671501  0.634662970  0.801264999
     0.884671486  0.134662996  0.801264999
     0.884671528  0.634662970  0.801264999
     0.997718671  0.007737140  0.604991367
     0.008337765  0.503954126  0.605542564
     0.505219235  0.994475603  0.604831301
     0.494145698  0.499559350  0.602938283
     0.252914270  0.249399769  0.606188506
     0.242000955  0.757451472  0.603570428
     0.750773345  0.255584756  0.606208529
     0.749142065  0.755360683  0.604616902
     0.000000500  0.000000500  0.704828963
     0.000000500  0.500000475  0.704828963
     0.500000475  0.000000500  0.704828963
     0.500000464  0.500000475  0.704828963
     0.249999994  0.249999472  0.704824995
     0.250000010  0.749999498  0.704824995
     0.749999994  0.249999472  0.704824995
     0.749999983  0.749999498  0.704824995
     0.000000000  0.000000000  0.807317968
     0.000000000  0.500000000  0.807317968
     0.500000000  0.000000000  0.807317968
     0.499999989  0.500000000  0.807317968
     0.249999994  0.250000000  0.807317968
     0.250000010  0.749999974  0.807317968
     0.749999994  0.250000000  0.807317968
     0.749999983  0.749999974  0.807317968

  ion indices of the primitive-cell ions
   primitive index   ion index
                 1           1
                 2           2
                 3           3
                 4           4
                 5           5
                 6           6
                 7           7
                 8           8
                 9           9
                10          10
                11          11
                12          12
                13          13
                14          14
                15          15
                16          16
                17          17
                18          18
                19          19
                20          20
                21          21
                22          22
                23          23
                24          24
                25          25
                26          26
                27          27
                28          28
                29          29
                30          30
                31          31
                32          32
                33          33
                34          34
                35          35
                36          36
                37          37
                38          38
                39          39
                40          40
                41          41
                42          42
                43          43
                44          44
                45          45
                46          46
                47          47
                48          48
                49          49
                50          50
                51          51
                52          52
                53          53
                54          54
                55          55
                56          56
                57          57
                58          58
                59          59
                60          60
                61          61
                62          62
                63          63
                64          64
                65          65
                66          66
                67          67
                68          68
                69          69
                70          70
                71          71
                72          72
                73          73
                74          74
                75          75
                76          76
                77          77
                78          78
                79          79
                80          80
                81          81
                82          82
                83          83
                84          84
                85          85
                86          86
                87          87
                88          88
                89          89
                90          90
                91          91
                92          92
                93          93
                94          94
                95          95
                96          96
                97          97
                98          98
                99          99
               100         100
               101         101
               102         102
               103         103
               104         104
               105         105
               106         106
               107         107
               108         108
               109         109
               110         110
               111         111
               112         112
               113         113
               114         114
               115         115
               116         116
               117         117
               118         118
               119         119
               120         120
               121         121
               122         122
               123         123
               124         124
               125         125
               126         126
               127         127
               128         128
               129         129
               130         130
               131         131
               132         132
               133         133
               134         134
               135         135
               136         136
               137         137
               138         138
               139         139
               140         140
               141         141
               142         142
               143         143
               144         144
               145         145
               146         146
               147         147
               148         148
               149         149
               150         150
               151         151
               152         152
               153         153
               154         154
               155         155
               156         156
               157         157
               158         158
               159         159
               160         160
               161         161
               162         162
               163         163
               164         164
               165         165
               166         166
               167         167
               168         168
               169         169
               170         170
               171         171
               172         172
               173         173
               174         174
               175         175
               176         176
               177         177
               178         178
               179         179
               180         180
               181         181
               182         182
               183         183
               184         184
               185         185
               186         186
               187         187
               188         188
               189         189
               190         190
               191         191
               192         192
               193         193
               194         194
               195         195
               196         196
               197         197
               198         198
               199         199
               200         200
               201         201
               202         202
               203         203
               204         204
               205         205
               206         206
               207         207
               208         208
               209         209
               210         210
               211         211
               212         212
               213         213
               214         214
               215         215
               216         216
               217         217
               218         218
               219         219
               220         220
               221         221
               222         222
               223         223
               224         224
               225         225
               226         226
               227         227
               228         228
               229         229
               230         230
               231         231
               232         232
               233         233
               234         234
               235         235
               236         236
               237         237
               238         238
               239         239
               240         240
               241         241
               242         242
               243         243
               244         244
               245         245
               246         246
               247         247
               248         248
               249         249
               250         250
               251         251
               252         252
               253         253
               254         254
               255         255
               256         256
               257         257
               258         258
               259         259
               260         260
               261         261
               262         262
               263         263
               264         264
               265         265
               266         266
               267         267
               268         268
               269         269
               270         270
               271         271
               272         272
               273         273
               274         274
               275         275
               276         276
               277         277
               278         278
               279         279
               280         280
               281         281
               282         282
               283         283
               284         284
               285         285
               286         286
               287         287
               288         288
               289         289
               290         290
               291         291
               292         292
               293         293
               294         294
               295         295
               296         296
               297         297
               298         298
               299         299
               300         300
               301         301
               302         302
               303         303
               304         304
               305         305
               306         306
               307         307
               308         308
               309         309
               310         310
               311         311
               312         312
               313         313
               314         314
               315         315
               316         316
               317         317
               318         318
               319         319
               320         320
               321         321
               322         322
               323         323
               324         324
               325         325

----------------------------------------------------------------------------------------

 
 
 KPOINTS: Automatic Mesh                          

Automatic generation of k-mesh.
 Grid dimensions read from file:
 generate k-points for:    3    3    1

 Generating k-lattice:

  Cartesian coordinates                     Fractional coordinates (reciprocal lattice)
     0.018456177  0.000005026 -0.000000000     0.333333333  0.000000000  0.000000000
     0.000000000  0.018454135  0.000000000     0.000000000  0.333333333  0.000000000
     0.000000000 -0.000000000  0.016003201     0.000000000  0.000000000  1.000000000

  Length of vectors
     0.018456178  0.018454135  0.016003201

  Shift w.r.t. Gamma in fractional coordinates (k-lattice)
     0.000000000  0.000000000  0.000000000

 
 Subroutine IBZKPT returns following result:
 ===========================================
 
 Found      5 irreducible k-points:
 
 Following reciprocal coordinates:
            Coordinates               Weight
  0.000000  0.000000  0.000000      1.000000
  0.333333  0.000000  0.000000      2.000000
  0.000000  0.333333  0.000000      2.000000
  0.333333  0.333333  0.000000      2.000000
 -0.333333  0.333333  0.000000      2.000000
 
 Following cartesian coordinates:
            Coordinates               Weight
  0.000000  0.000000  0.000000      1.000000
  0.018456  0.000005  0.000000      2.000000
  0.000000  0.018454  0.000000      2.000000
  0.018456  0.018459  0.000000      2.000000
 -0.018456  0.018449  0.000000      2.000000
 


--------------------------------------------------------------------------------------------------------




 Dimension of arrays:
   k-points           NKPTS =      5   k-points in BZ     NKDIM =      5   number of bands    NBANDS=    732
   number of dos      NEDOS =    301   number of ions     NIONS =    325
   non local maximal  LDIM  =      5   non local SUM 2l+1 LMDIM =     13
   total plane-waves  NPLWV = ******
   max r-space proj   IRMAX =   3336   max aug-charges    IRDMAX=  19845
   dimension x,y,z NGX =   100 NGY =  100 NGZ =  350
   dimension x,y,z NGXF=   200 NGYF=  200 NGZF=  700
   support grid    NGXF=   200 NGYF=  200 NGZF=  700
   ions per type =             143  39  47  72  24
   NGX,Y,Z   is equivalent  to a cutoff of   9.20,  9.20,  9.31 a.u.
   NGXF,Y,Z  is equivalent  to a cutoff of  18.41, 18.41, 18.62 a.u.

 SYSTEM =  PSC                                     
 POSCAR =   H  C  N  I Pb                          

 Startparameter for this run:
   NWRITE =      2    write-flag & timer
   PREC   = normal    normal or accurate (medium, high low for compatibility)
   ISTART =      0    job   : 0-new  1-cont  2-samecut
   ICHARG =      1    charge: 1-file 2-atom 10-const
   ISPIN  =      1    spin polarized calculation?
   LNONCOLLINEAR =      F non collinear calculations
   LSORBIT =      F    spin-orbit coupling
   INIWAV =      1    electr: 0-lowe 1-rand  2-diag
   LASPH  =      F    aspherical Exc in radial PAW
 Electronic Relaxation 1
   ENCUT  =  500.0 eV  36.75 Ry    6.06 a.u.  32.93 32.93113.93*2*pi/ulx,y,z
   ENINI  =  500.0     initial cutoff
   ENAUG  =  644.9 eV  augmentation charge cutoff
   NELM   =    600;   NELMIN=  2; NELMDL=  0     # of ELM steps 
   EDIFF  = 0.1E-03   stopping-criterion for ELM
   LREAL  =      T    real-space projection
   NLSPLINE    = F    spline interpolate recip. space projectors
   LCOMPAT=      F    compatible to vasp.4.4
   GGA_COMPAT  = F    GGA compatible to vasp.4.4-vasp.4.6
   LMAXPAW     = -100 max onsite density
   LMAXMIX     =    2 max onsite mixed and CHGCAR
   VOSKOWN=      0    Vosko Wilk Nusair interpolation
   ROPT   =   -0.00050  -0.00050  -0.00050  -0.00050
   ROPT   =   -0.00050
 Ionic relaxation
   EDIFFG = 0.1E-02   stopping-criterion for IOM
   NSW    =      0    number of steps for IOM
   NBLOCK =      1;   KBLOCK =      1    inner block; outer block 
   IBRION =     -1    ionic relax: 0-MD 1-quasi-New 2-CG
   NFREE  =      0    steps in history (QN), initial steepest desc. (CG)
   ISIF   =      2    stress and relaxation
   IWAVPR =     10    prediction:  0-non 1-charg 2-wave 3-comb
   ISYM   =      0    0-nonsym 1-usesym 2-fastsym
   LCORR  =      T    Harris-Foulkes like correction to forces

   POTIM  = 0.5000    time-step for ionic-motion
   TEIN   =    0.0    initial temperature
   TEBEG  =    0.0;   TEEND  =   0.0 temperature during run
   SMASS  =  -3.00    Nose mass-parameter (am)
   estimated Nose-frequenzy (Omega)   =  0.10E-29 period in steps = 0.13E+47 mass=  -0.745E-26a.u.
   SCALEE = 1.0000    scale energy and forces
   NPACO  =    256;   APACO  = 16.0  distance and # of slots for P.C.
   PSTRESS=    0.0 pullay stress

  Mass of Ions in am
   POMASS =   1.00 12.01 14.00126.90207.20
  Ionic Valenz
   ZVAL   =   1.00  4.00  5.00  7.00  4.00
  Atomic Wigner-Seitz radii
   RWIGS  =  -1.00 -1.00 -1.00 -1.00 -1.00
  virtual crystal weights 
   VCA    =   1.00  1.00  1.00  1.00  1.00
   NELECT =    1134.0000    total number of electrons
   NUPDOWN=      -1.0000    fix difference up-down

 DOS related values:
   EMIN   =  10.00;   EMAX   =-10.00  energy-range for DOS
   EFERMI =   0.00
   ISMEAR =     0;   SIGMA  =   0.05  broadening in eV -4-tet -1-fermi 0-gaus

 Electronic relaxation 2 (details)
   IALGO  =     38    algorithm
   LDIAG  =      T    sub-space diagonalisation (order eigenvalues)
   LSUBROT=      F    optimize rotation matrix (better conditioning)
   TURBO    =      0    0=normal 1=particle mesh
   IRESTART =      0    0=no restart 2=restart with 2 vectors
   NREBOOT  =      0    no. of reboots
   NMIN     =      0    reboot dimension
   EREF     =   0.00    reference energy to select bands
   IMIX   =      4    mixing-type and parameters
     AMIX     =   0.40;   BMIX     =  0.01
     AMIX_MAG =   1.60;   BMIX_MAG =  0.01
     AMIN     =   0.01
     WC   =   100.;   INIMIX=   1;  MIXPRE=   1;  MAXMIX= -45

 Intra band minimization:
   WEIMIN = 0.0000     energy-eigenvalue tresh-hold
   EBREAK =  0.34E-07  absolut break condition
   DEPER  =   0.30     relativ break condition  

   TIME   =   0.40     timestep for ELM

  volume/ion in A,a.u.               =      62.72       423.28
  Fermi-wavevector in a.u.,A,eV,Ry     =   0.624944  1.180972  5.313816  0.390554
  Thomas-Fermi vector in A             =   1.685677
 
 Write flags
   LWAVE        =      F    write WAVECAR
   LDOWNSAMPLE  =      F    k-point downsampling of WAVECAR
   LCHARG       =      T    write CHGCAR
   LVTOT        =      T    write LOCPOT, total local potential
   LVHAR        =      F    write LOCPOT, Hartree potential only
   LELF         =      F    write electronic localiz. function (ELF)
   LORBIT       =      0    0 simple, 1 ext, 2 COOP (PROOUT), +10 PAW based schemes


 Dipole corrections
   LMONO  =      F    monopole corrections only (constant potential shift)
   LDIPOL =      T    correct potential (dipole corrections)
   IDIPOL =      3    1-x, 2-y, 3-z, 4-all directions 
   EPSILON=  1.0000000 bulk dielectric constant

 Exchange correlation treatment:
   GGA     =    --    GGA type
   LEXCH   =     8    internal setting for exchange type
   VOSKOWN=      0    Vosko Wilk Nusair interpolation
   LHFCALC =     F    Hartree Fock is set to
   LHFONE  =     F    Hartree Fock one center treatment
   AEXX    =    0.0000 exact exchange contribution

 Linear response parameters
   LEPSILON=     F    determine dielectric tensor
   LRPA    =     F    only Hartree local field effects (RPA)
   LNABLA  =     F    use nabla operator in PAW spheres
   LVEL    =     F    velocity operator in full k-point grid
   LINTERFAST=   F  fast interpolation
   KINTER  =     0    interpolate to denser k-point grid
   CSHIFT  =0.1000    complex shift for real part using Kramers Kronig
   OMEGAMAX=  -1.0    maximum frequency
   DEG_THRESHOLD= 0.2000000E-02 threshold for treating states as degnerate
   RTIME   =   -0.100 relaxation time in fs
  (WPLASMAI=    0.000 imaginary part of plasma frequency in eV, 0.658/RTIME)
   DFIELD  = 0.0000000 0.0000000 0.0000000 field for delta impulse in time
 
 Orbital magnetization related:
   ORBITALMAG=     F  switch on orbital magnetization
   LCHIMAG   =     F  perturbation theory with respect to B field
   DQ        =  0.001000  dq finite difference perturbation B field
   LLRAUG    =     F  two centre corrections for induced B field



--------------------------------------------------------------------------------------------------------


 Static calculation
 charge density and potential will be updated during run
 non-spin polarized calculation
 Variant of blocked Davidson
 Davidson routine will perform the subspace rotation
 perform sub-space diagonalisation
    after iterative eigenvector-optimisation
 modified Broyden-mixing scheme, WC =      100.0
 initial mixing is a Kerker type mixing with AMIX =  0.4000 and BMIX =      0.0100
 Hartree-type preconditioning will be used
 using additional bands           165
 real space projection scheme for non local part
[...]
     13.54561      0.00000     45.35368         0.002359     -0.005436      0.011944
     13.54315      9.03140     45.35368        -0.009310     -0.003385      0.013133
     14.29001      9.19472     32.31026         0.043581     -0.078413      0.152892
     15.75414      9.12128     33.27905         0.346200      0.015281      0.056402
     13.61766     11.32327     33.55619        -0.174743      0.145737     -0.324184
     13.85545     11.27604     35.28856        -0.055118      0.209996     -0.070994
     12.32081      8.19286     34.65058        -0.116035     -0.529723      0.147196
     12.08185      9.87003     35.09668        -0.069529      0.046173      0.065216
     14.41651      7.77208     35.59130        -0.046273     -0.384462     -0.022480
     15.61624      9.03780     35.65792        -0.025800      0.089763      0.043998
     15.54821      6.85086     33.77242         0.147141     -0.040250      0.235105
     13.83653      6.75496     33.45527        -0.229010      0.067631      0.159724
     14.05943      6.83815     31.15738         0.188069      0.082687     -0.004851
     15.68994      7.52410     31.16096        -0.227990     -0.404486      0.289476
     16.16387     11.06936     33.24294         0.028879     -0.052082     -0.055536
     16.27865     11.01716     35.02562         0.354759     -0.097004      0.072366
     15.69213     12.45855     34.21462        -0.111274      0.187186      0.000495
     10.74540      9.41060     33.09826         0.005869     -0.233085      0.122483
     12.16394      8.76900     32.21644        -0.103042     -0.065832     -0.042105
     12.02146     10.48912     32.63622         0.131921      0.267868     -0.157545
     12.93536      8.79282     37.19347         0.324440      0.299326     -0.240910
     13.72074     10.40101     36.98724        -0.053090      0.149849      0.100387
     14.57794      9.08509     37.78035         0.070632     -0.006124     -0.005012
     15.01818      4.71651     32.22477        -0.217805     -0.243333      0.307947
     15.31893      5.02855     30.54969        -0.050937     -0.118972     -0.285230
     16.87481      3.06220     31.29004         0.345990      0.402544      0.170446
     17.58199      7.20255     32.22802        -0.145031      0.592930      0.131753
      1.25365      2.62701     31.46800         0.015942     -0.100920     -0.099850
      1.95728      6.75957     32.39677        -0.270707     -0.085589      0.080455
      2.82810      4.48024     32.00499         0.046160      0.009976     -0.003192
     17.99380      4.09969     35.06799         0.001895     -0.145990      0.033740
      0.59108     13.94068     35.11754        -0.392063      0.001007      0.617048
      9.39110      4.83529     35.07273         0.308581     -0.468872      0.405646
      8.97135     13.89229     34.88550         0.447734      0.224615     -0.159138
      4.24789      9.25225     34.87737        -0.121033     -0.527035     -0.000598
      4.75853     17.91264     34.79620         0.071233     -0.143425      0.033002
     13.94588     17.77716     35.08833         0.170161      0.031274      0.050294
      0.15411      4.36363     40.74187         0.515387     -0.476650      0.466002
      0.31648     13.79659     40.80122         0.519691     -1.493916      0.889149
      9.13693      4.61907     40.60481         0.542300     -1.084081      0.543915
      8.83312     13.70761     40.58914         0.296882     -0.266864      0.459060
      4.46468      8.96191     40.59050        -0.998665     -1.484801      0.249866
      4.55011     17.97299     40.56364         0.057859      0.197724      0.818790
     13.44360      9.28049     40.66325         0.246599      0.524368     -0.579257
     13.53486     18.04328     40.62601        -1.219041     -1.173219     -0.029873
      9.02897      4.51561     46.44552         0.010213      0.006923      0.035566
      9.02651     13.54701     46.44552         0.020472     -0.004821      0.052881
     18.05937      4.51561     46.44552         0.002855      0.015120      0.067339
     18.05691     13.54701     46.44552         0.024146     -0.004221      0.037895
      4.51521      0.00002     46.44421        -0.005279     -0.006646      0.069944
      4.51275      9.03142     46.44421        -0.010761     -0.009134      0.046538
     13.54561      0.00002     46.44421         0.000511     -0.001089      0.044135
     13.54315      9.03142     46.44421        -0.024017     -0.022788      0.040265
     17.04444      5.19595     31.74711         0.054479     -1.306140     -0.220722
     17.57371      3.88653     31.54803        -0.789865      0.066714     -0.227583
     17.93471      6.20338     32.05928         0.769272     -0.031339      0.138788
      0.87657      3.63731     31.61283        -0.059945     -0.137184      0.209869
      1.25471      5.94761     32.17122         0.082711      0.130877     -0.208254
      1.75922      4.67226     31.92805         0.008768      0.176854      0.081842
     14.73608      8.74859     33.21711        -0.504300      0.688764     -0.279892
     14.25449     10.92020     34.33368        -0.030444     -0.082927      0.234340
     12.48792      9.21012     34.32295         0.181393      0.184733      0.114715
     14.53334      8.84826     35.68108         0.298370     -0.133666      0.004947
     14.75760      7.24352     33.12742         0.139538     -0.245978      0.302807
     15.02783      6.79284     31.69512        -0.340423      0.747446     -0.751428
     15.68807     11.36554     34.18042        -0.105601      0.031228      0.162153
     11.83629      9.47459     32.98767         0.036900      0.087142     -0.124046
     13.88536      9.32385     36.96533        -0.324002     -0.278628     -0.024785
     15.55967      5.38311     31.55499         0.378423      0.176221     -0.191935
      1.06043      4.29161     35.71972        -0.388075      0.223771     -0.171436
      0.67177     12.77518     35.72057        -0.568181      0.289883     -0.003325
     10.01338      3.75501     35.52126        -0.637584      0.058077      0.199623
      9.93685     13.14198     35.34431         0.192346     -0.347330      0.510353
      8.17711      5.19073     35.41928        -0.610233     -0.550767      0.492563
      7.72595     13.79790     35.23640        -1.045621     -1.004700      0.777154
     16.81631      4.55945     35.44549         0.177604     -0.196995     -0.314150
     17.69467     14.82598     35.32198        -0.201208     -0.441419      0.177093
      4.47467      8.15292     35.57142        -0.523493     -0.199539     -0.598207
      3.51406      0.10026     35.14362         0.565293     -0.526080     -0.717053
     12.66292     17.70480     35.36042         0.413349     -0.345585     -0.266975
      5.80268      0.52633     35.23012        -0.234729     -0.565286     -0.522362
      4.85007     10.39350     35.08983         0.032114      0.218465     -0.329016
     14.74498      0.67152     35.52349        -0.180029     -0.563840     -0.558443
      1.05773      3.44881     41.03877        -0.324901      0.298567      0.428231
      0.96811     12.74285     41.29840        -1.056041      0.862616     -0.165552
      9.82431      3.58797     41.07088        -0.662773      0.539974      0.492804
      9.54144     12.92983     41.37006         0.043106     -0.175871      1.125302
      3.84064      8.01629     41.27658         0.877677      0.995731      0.968363
      3.57979     17.23556     41.05232         0.535399      0.580039      1.066621
     12.72165      8.34538     41.20695        -1.116394     -0.991085     -0.482426
     12.64285     17.27643     41.22640         0.653558      0.837727      1.106560
      8.23811      5.28420     41.26513        -0.617488      0.128365      1.203285
      8.00548     14.62395     40.99688        -0.482779      0.475002      0.685585
     17.51623      5.04910     41.62190         0.105541     -0.131409     -0.351223
     17.26392     14.28781     41.28091         0.081791      0.315472     -0.269102
      5.37108      0.70092     41.24141        -1.579881     -1.113397      0.847499
      5.23332      9.87818     41.08062         0.704369      0.697140      1.116233
     14.31711      0.83873     41.19715         0.653022      0.888731      1.196167
     14.39803      9.95646     41.25459         0.420627      0.345417     -0.025712
      0.82731      3.68697     47.03596         0.023093     -0.031301     -0.108427
      0.82485     12.71837     47.03596         0.012153     -0.014126     -0.083941
      9.85771      3.68697     47.03596         0.021623     -0.025469     -0.089296
      9.85525     12.71837     47.03596         0.013742     -0.011578     -0.085524
      3.68432      8.20234     47.03465        -0.004409     -0.006240     -0.075116
      3.68186     17.23373     47.03465        -0.003557     -0.001999     -0.076632
     12.71472      8.20234     47.03465         0.005263      0.003331     -0.072563
     12.71226     17.23373     47.03465        -0.010904     -0.013003     -0.072354
      8.20068      5.34457     47.03603        -0.019185      0.017111     -0.093634
      8.19822     14.37597     47.03603        -0.025817      0.022704     -0.095584
     17.23108      5.34457     47.03603        -0.013169      0.007721     -0.108980
     17.22862     14.37597     47.03603        -0.026655      0.019608     -0.080964
      5.34365      0.82909     47.03465         0.011982      0.011703     -0.088550
      5.34119      9.86049     47.03465         0.016834      0.016707     -0.067923
     14.37405      0.82909     47.03465         0.011598      0.011579     -0.074171
     14.37159      9.86049     47.03465         0.026710      0.031872     -0.078660
     14.00113      9.42217     34.38278         0.084563     -0.244563     -0.263482
      9.09146     17.67969     34.66357         0.108337      0.018160     -0.030450
      8.21479      8.69583     34.64218         0.097405      0.055313     -0.002451
      0.02093      0.26580     34.53463         0.054466     -0.021524     -0.043076
      0.67245      8.89827     34.77821        -0.199826      0.033507     -0.077484
      4.46076      4.44462     34.76295         0.079820      0.000489     -0.028768
      4.20379     13.88241     34.48737         0.073165      0.030927     -0.035793
     13.44331      4.04949     34.67747        -0.101447     -0.032539      0.040293
     12.91529     14.33486     34.18032         0.195047     -0.007099      0.262333
      0.00072     17.93845     40.92769        -0.035422     -0.015705     -0.030311
      0.07511      9.06824     40.99103        -0.029231      0.010941      0.030906
      8.99187      0.13993     40.94386        -0.033318     -0.061054      0.035841
      9.01410      9.07047     40.89602        -0.037168     -0.017515      0.072707
      4.64682      4.31247     41.00849         0.004775     -0.018112     -0.080815
      4.46042     13.54790     40.88396         0.058973      0.017916     -0.014692
     13.38368      4.60856     40.96636         0.008686     -0.028547     -0.017524
     13.61078     13.59377     40.86178         0.011856     -0.003776     -0.004274
      2.58177      1.92802     38.07329         0.101357      0.109544      0.020887
      2.60772     10.99735     38.12605         0.050194      0.027870     -0.011832
     11.66714      1.92427     38.09040        -0.017809      0.035482     -0.000491
     11.02850     11.53627     38.36375         0.161737     -0.180448     -0.259234
      6.55732      6.97884     38.32242         0.051779      0.000239     -0.029149
      6.53715     16.01539     37.92649         0.058844      0.041268      0.055908
     16.08387      6.51192     38.49125        -0.109708      0.173524     -0.262845
     15.61967     16.01735     37.99094        -0.018753      0.013752     -0.005506
      2.13578      6.56920     38.34943         0.052912     -0.018076     -0.071667
      2.13829     15.82724     37.98629        -0.017091     -0.065990     -0.042991
     11.12041      6.67025     37.90334         0.010624      0.022838     -0.011837
     11.20681     15.67791     38.27789        -0.033847     -0.021813     -0.023029
      7.14851      2.55200     37.89988         0.063692      0.030915      0.006062
      6.83928     11.48837     37.89310         0.013641     -0.011221      0.037230
     16.02262      2.47686     38.34506        -0.086601      0.007752      0.020812
     16.49701     11.96575     38.35332        -0.222071     -0.234665     -0.252393
      0.00000      0.00000     47.17356         0.001225      0.004176      0.412748
     -0.00246      9.03140     47.17356        -0.004453      0.001376      0.536306
      9.03040      0.00000     47.17356        -0.002802     -0.001866      0.467762
      9.02794      9.03140     47.17356        -0.002568      0.002314      0.455944
      4.51398      4.51570     47.17425        -0.000607     -0.008277      0.520034
      4.51152     13.54710     47.17425         0.002986      0.004106      0.393740
     13.54438      4.51570     47.17425         0.002222     -0.002935      0.447597
     13.54192     13.54710     47.17425         0.001752     -0.001400      0.297434
      2.45192      2.06295     44.04013         0.021320     -0.066479      0.026224
      2.44946     11.09435     44.04013         0.072402     -0.045483      0.084921
     11.48232      2.06295     44.04013        -0.006298     -0.045462     -0.024165
     11.47986     11.09435     44.04013         0.014459      0.041742     -0.027058
      6.57602      6.96845     44.04013        -0.051899     -0.001717     -0.006682
      6.57356     15.99985     44.04013        -0.001192      0.009300     -0.009547
     15.60642      6.96845     44.04013        -0.057487      0.038959     -0.018279
     15.60396     15.99985     44.04013        -0.039603      0.009605      0.015788
      2.06108      6.57881     44.04000         0.006046     -0.060644      0.054289
      2.05862     15.61021     44.04000         0.042146      0.059081      0.004643
     11.09148      6.57881     44.04000         0.021423      0.019477      0.001911
     11.08902     15.61021     44.04000        -0.025224     -0.023633      0.009400
      6.96686      2.45259     44.04007         0.054107      0.014842      0.025828
      6.96440     11.48399     44.04007        -0.042450     -0.003392     -0.054482
     15.99726      2.45259     44.04007        -0.002388     -0.013159     -0.012219
     15.99481     11.48399     44.04007         0.051061      0.095250     -0.001077
      2.43163      2.08322     50.06849        -0.002061     -0.022122      0.021347
      2.42917     11.11462     50.06849         0.019857      0.001013      0.024462
     11.46203      2.08322     50.06849         0.008941     -0.012862      0.023792
     11.45957     11.11462     50.06849         0.023548      0.003897      0.023554
      6.59631      6.94818     50.06849        -0.004659      0.015159      0.024501
      6.59385     15.97958     50.06849        -0.012663      0.007354      0.022440
     15.62671      6.94818     50.06849        -0.015212      0.003886      0.022988
     15.62425     15.97958     50.06849        -0.017825      0.003534      0.023447
      2.08113      6.59901     50.06905        -0.011319     -0.009893      0.024113
      2.07867     15.63041     50.06905        -0.010944     -0.007986      0.022969
     11.11153      6.59901     50.06905        -0.009238     -0.010014      0.024762
     11.10907     15.63041     50.06905         0.001998     -0.022315      0.022939
      6.94681      2.43239     50.06905         0.016994      0.000437      0.023051
      6.94435     11.46379     50.06905         0.005699      0.016562      0.024660
     15.97721      2.43239     50.06905         0.015791      0.003970      0.023298
     15.97475     11.46379     50.06905        -0.008822      0.029020      0.023056
     18.01956      0.13975     37.80440        -0.023918     -0.064379     -0.023553
      0.14811      9.10282     37.83884        -0.015873     -0.006590      0.044504
      9.11977     17.96301     37.79440        -0.099668     -0.019930     -0.101257
      8.92221      9.02344     37.67611         0.019138      0.003901      0.046248
      4.56661      4.50486     37.87920        -0.059066      0.031664      0.001423
      4.36701     13.68169     37.71561         0.019416     -0.010776      0.016877
     13.55831      4.61658     37.88046         0.041828     -0.070472     -0.007917
     13.52639     13.64393     37.78100         0.044854      0.021475     -0.091402
      0.00001      0.00001     44.04300        -0.050627     -0.097707      0.172071
     -0.00245      9.03141     44.04300         0.096636     -0.071108      0.143380
      9.03041      0.00001     44.04300         0.022985     -0.011916      0.147569
      9.02795      9.03141     44.04300         0.061557     -0.024396     -0.013003
      4.51397      4.51569     44.04275        -0.007339      0.077543      0.261815
      4.51151     13.54709     44.04275        -0.092561     -0.024690      0.086825
     13.54437      4.51569     44.04275        -0.038934      0.050876      0.216868
     13.54191     13.54709     44.04275        -0.087516      0.029649      0.156955
      0.00000      0.00000     50.44728         0.008435      0.011898     -0.625842
     -0.00246      9.03140     50.44728         0.008000     -0.013235     -0.659428
      9.03040      0.00000     50.44728        -0.007039      0.015138     -0.639874
      9.02794      9.03140     50.44728        -0.009518     -0.013283     -0.641153
      4.51397      4.51570     50.44728         0.000499      0.008793     -0.653301
      4.51151     13.54710     50.44728        -0.000281     -0.009373     -0.622737
     13.54437      4.51570     50.44728        -0.001281      0.007984     -0.636664
     13.54191     13.54710     50.44728         0.001395     -0.007884     -0.596294
 -----------------------------------------------------------------------------------
    total drift:                               -0.019578     -0.016130      0.787703


--------------------------------------------------------------------------------------------------------



  FREE ENERGIE OF THE ION-ELECTRON SYSTEM (eV)
  ---------------------------------------------------
  free  energy   TOTEN  =     -1574.75532352 eV

  energy  without entropy=    -1574.75532352  energy(sigma->0) =    -1574.75532352
 


--------------------------------------------------------------------------------------------------------


    POTLOK:  cpu time    0.5005: real time    0.5004


--------------------------------------------------------------------------------------------------------


     LOOP+:  cpu time  323.2452: real time  323.8049
 vacuum level on the upper side and lower side of the slab         2.283         1.637
    4ORBIT:  cpu time    0.0000: real time    0.0000

 total amount of memory used by VASP MPI-rank0  8653562. kBytes
=======================================================================

   base      :      30000. kBytes
   nonlr-proj:      53600. kBytes
   fftplans  :     249280. kBytes
   grid      :     701440. kBytes
   one-center:       2636. kBytes
   wavefun   :    7616606. kBytes
 
  
  
 General timing and accounting informations for this job:
 ========================================================
  
                  Total CPU time used (sec):      535.818
                            User time (sec):      432.557
                          System time (sec):      103.261
                         Elapsed time (sec):      538.135
  
                   Maximum memory used (kb):    10315484.
                   Average memory used (kb):          N/A
  
                          Minor page faults:      3816685
                          Major page faults:           13
                 Voluntary context switches:        11213
