<?xml version="1.0" encoding="ISO-8859-1"?>
<modeling>
 <generator>
  <i name="program" type="string">vasp </i>
  <i name="version" type="string">6.2.1  </i>
  <i name="subversion" type="string">16May21 (build Nov 15 2021 14:57:28) complex                          parallel </i>
  <i name="platform" type="string">LinuxPGI </i>
  <i name="date" type="string">2023 07 24 </i>
  <i name="time" type="string">23:59:02 </i>
 </generator>
 <incar>
  <i type="string" name="SYSTEM">PSC</i>
  <i type="int" name="ISTART">     1</i>
  <i type="string" name="PREC">Normal</i>
  <i name="BMIX">      0.01000000</i>
  <i name="AMIN">      0.01000000</i>
  <i type="int" name="ICHARG">     1</i>
  <i type="int" name="NELM">   600</i>
  <i type="int" name="ISYM">     0</i>
  <i name="ENCUT">    500.00000000</i>
  <i type="string" name="LREAL">Auto</i>
  <i type="int" name="ISMEAR">     0</i>
  <i name="SIGMA">      0.05000000</i>
  <i type="logical" name="LWAVE"> F  </i>
  <i type="logical" name="LVTOT"> T  </i>
  <i type="logical" name="GGA_COMPAT"> F  </i>
  <i type="logical" name="LDIPOL"> T  </i>
  <i type="int" name="IDIPOL">     3</i>
  <i type="int" name="IVDW">    12</i>
 </incar>
 <primitive_cell>
  <structure name="primitive_cell" >
   <crystal>
    <varray name="basis" >
     <v>      18.06080055       0.00000000       0.00000000 </v>
     <v>      -0.00491865      18.06279945       0.00000000 </v>
     <v>       0.00000000       0.00000000      62.48749924 </v>
    </varray>
    <i name="volume">  20385.21054034 </i>
    <varray name="rec_basis" >
     <v>       0.05536853       0.00001508      -0.00000000 </v>
     <v>       0.00000000       0.05536240       0.00000000 </v>
     <v>       0.00000000      -0.00000000       0.01600320 </v>
    </varray>
   </crystal>
   <varray name="positions" >
    <v>       0.43870822       0.31464239       0.57239659 </v>
    <v>       0.42510883       0.83388903       0.57193355 </v>
    <v>       0.97761678       0.31989172       0.58151481 </v>
    <v>       0.96016835       0.81110967       0.58009393 </v>
    <v>       0.31391840       0.95470314       0.57481150 </v>
    <v>       0.33001734       0.56297150       0.57365423 </v>
    <v>       0.79536533       0.07420804       0.57942864 </v>
    <v>       0.02874056       0.13691388       0.56201890 </v>
    <v>       0.06043274       0.64423424       0.56409476 </v>
    <v>       0.57057883       0.18002225       0.55252525 </v>
    <v>       0.52423277       0.66059335       0.56419591 </v>
    <v>       0.35683554       0.01918314       0.55801371 </v>
    <v>       0.28069523       0.62577268       0.55737161 </v>
    <v>       0.86871885       0.03269677       0.56527535 </v>
    <v>       0.99592571       0.18508775       0.58485477 </v>
    <v>       0.00817324       0.68324551       0.58469690 </v>
    <v>       0.56092073       0.25559869       0.56973657 </v>
    <v>       0.45369093       0.69707054       0.57859497 </v>
    <v>       0.28145440       0.43418294       0.57592733 </v>
    <v>       0.17780526       0.93877937       0.57189203 </v>
    <v>       0.67441667       0.01786042       0.57635588 </v>
    <v>       0.36582188       0.27239758       0.55833860 </v>
    <v>       0.48648968       0.88061822       0.55493124 </v>
    <v>       0.01913373       0.36159124       0.55933709 </v>
    <v>       0.99141823       0.85881314       0.55783820 </v>
    <v>       0.19675316       0.41873795       0.56275965 </v>
    <v>       0.13237120       0.99834380       0.55422487 </v>
    <v>       0.67034471       0.93270766       0.56188564 </v>
    <v>       0.44405560       0.18209286       0.54313409 </v>
    <v>       0.55685851       0.77368254       0.54813179 </v>
    <v>       0.04728392       0.24831728       0.54293208 </v>
    <v>       0.05674745       0.75581564       0.54408148 </v>
    <v>       0.19069792       0.53722866       0.54834777 </v>
    <v>       0.24134193       0.05668221       0.54300985 </v>
    <v>       0.79293010       0.93563924       0.55260833 </v>
    <v>       0.47230958       0.32525729       0.67167774 </v>
    <v>       0.43397914       0.81625233       0.67228711 </v>
    <v>       0.96970907       0.27780118       0.68111798 </v>
    <v>       0.91765596       0.76334005       0.67252520 </v>
    <v>       0.30328928       0.05426446       0.67322553 </v>
    <v>       0.30424170       0.54673938       0.67524486 </v>
    <v>       0.79111186       0.06570951       0.67469476 </v>
    <v>       0.78480248       0.59312110       0.66727097 </v>
    <v>       0.08594020       0.16574089       0.64506585 </v>
    <v>       0.10005734       0.69833373       0.65468087 </v>
    <v>       0.58227082       0.17059021       0.65146667 </v>
    <v>       0.57015239       0.67830930       0.65563278 </v>
    <v>       0.18295208       0.41012139       0.64962786 </v>
    <v>       0.17077867       0.92225451       0.65034767 </v>
    <v>       0.70686721       0.40706329       0.66111300 </v>
    <v>       0.67522523       0.91870142       0.65201237 </v>
    <v>       0.06808620       0.17798330       0.67259638 </v>
    <v>       0.03487311       0.68157405       0.67485782 </v>
    <v>       0.58922996       0.24680101       0.66890448 </v>
    <v>       0.53016954       0.71263499       0.67874135 </v>
    <v>       0.21043275       0.43845572       0.67514969 </v>
    <v>       0.19889318       0.95551165       0.67513534 </v>
    <v>       0.69286741       0.48849596       0.67565382 </v>
    <v>       0.69219479       0.96303446       0.67638181 </v>
    <v>       0.39691829       0.29364253       0.65660087 </v>
    <v>       0.42053583       0.83901848       0.64518477 </v>
    <v>       0.93373558       0.32161710       0.65886915 </v>
    <v>       0.91557314       0.82480656       0.65118548 </v>
    <v>       0.33144295       0.07496070       0.64715269 </v>
    <v>       0.32566162       0.58059807       0.64991649 </v>
    <v>       0.83067459       0.07769468       0.64926402 </v>
    <v>       0.84266080       0.57761373       0.64534569 </v>
    <v>       0.00317828       0.25539162       0.63469885 </v>
    <v>       0.03042809       0.78717431       0.63792923 </v>
    <v>       0.45996792       0.19555315       0.64185323 </v>
    <v>       0.50547917       0.75426561       0.63282665 </v>
    <v>       0.25158392       0.99466250       0.63102001 </v>
    <v>       0.25332829       0.49839653       0.63198657 </v>
    <v>       0.76043417       0.98509547       0.63339341 </v>
    <v>       0.80061419       0.45646655       0.64016448 </v>
    <v>       0.44874502       0.30128397       0.76888902 </v>
    <v>       0.44874501       0.80128391       0.76888902 </v>
    <v>       0.94874497       0.30128397       0.76888902 </v>
    <v>       0.94874501       0.80128391       0.76888902 </v>
    <v>       0.30127600       0.05129450       0.76887296 </v>
    <v>       0.30127601       0.55129450       0.76887296 </v>
    <v>       0.80127594       0.05129450       0.76887296 </v>
    <v>       0.80127598       0.55129450       0.76887296 </v>
    <v>       0.07877100       0.17118050       0.74344197 </v>
    <v>       0.07877101       0.67118045       0.74344197 </v>
    <v>       0.57877100       0.17118050       0.74344197 </v>
    <v>       0.57877099       0.67118045       0.74344197 </v>
    <v>       0.17119950       0.42117448       0.74342103 </v>
    <v>       0.17119950       0.92117451       0.74342103 </v>
    <v>       0.67119951       0.42117448       0.74342103 </v>
    <v>       0.67119950       0.92117451       0.74342103 </v>
    <v>       0.05125600       0.19871499       0.76888902 </v>
    <v>       0.05125600       0.69871493       0.76888902 </v>
    <v>       0.55125603       0.19871499       0.76888902 </v>
    <v>       0.55125602       0.69871493       0.76888902 </v>
    <v>       0.19872349       0.44870397       0.76887205 </v>
    <v>       0.19872349       0.94870397       0.76887205 </v>
    <v>       0.69872352       0.44870397       0.76887205 </v>
    <v>       0.69872351       0.94870397       0.76887205 </v>
    <v>       0.42123152       0.32881747       0.74344197 </v>
    <v>       0.42123151       0.82881744       0.74344197 </v>
    <v>       0.92123147       0.32881747       0.74344197 </v>
    <v>       0.92123151       0.82881744       0.74344197 </v>
    <v>       0.32880050       0.07882500       0.74342103 </v>
    <v>       0.32880049       0.57882496       0.74342103 </v>
    <v>       0.82880048       0.07882500       0.74342103 </v>
    <v>       0.82880052       0.57882496       0.74342103 </v>
    <v>       0.00000350       0.25000148       0.72582199 </v>
    <v>       0.00000350       0.75000145       0.72582199 </v>
    <v>       0.50000351       0.25000148       0.72582199 </v>
    <v>       0.50000350       0.75000145       0.72582199 </v>
    <v>       0.25000050       0.00000000       0.72580398 </v>
    <v>       0.25000052       0.50000000       0.72580398 </v>
    <v>       0.75000050       0.00000000       0.72580398 </v>
    <v>       0.75000049       0.50000000       0.72580398 </v>
    <v>       0.77572025       0.55503886       0.52062159 </v>
    <v>       0.72014148       0.47604199       0.52682473 </v>
    <v>       0.87404673       0.50094159       0.54258661 </v>
    <v>       0.85615069       0.47722043       0.56954684 </v>
    <v>       0.74246135       0.64111205       0.55999860 </v>
    <v>       0.80235511       0.59580069       0.57818571 </v>
    <v>       0.66837812       0.54763314       0.57080002 </v>
    <v>       0.67791035       0.45445654       0.56151746 </v>
    <v>       0.61360234       0.55102909       0.53787260 </v>
    <v>       0.66885700       0.63275248       0.53719332 </v>
    <v>       0.60571130       0.64632239       0.50588793 </v>
    <v>       0.68662278       0.60222813       0.49640300 </v>
    <v>       0.80899744       0.38879267       0.52963407 </v>
    <v>       0.76940104       0.37241274       0.55550472 </v>
    <v>       0.86583929       0.36183266       0.55206287 </v>
    <v>       0.86425752       0.69207218       0.55700667 </v>
    <v>       0.84744221       0.64659678       0.53270408 </v>
    <v>       0.90838049       0.60580607       0.55218149 </v>
    <v>       0.75449277       0.52370865       0.60041434 </v>
    <v>       0.77624181       0.43412491       0.59020515 </v>
    <v>       0.68712553       0.45294447       0.59985643 </v>
    <v>       0.53453245       0.52986296       0.50478746 </v>
    <v>       0.57680877       0.54848318       0.47974351 </v>
    <v>       0.69159772       0.47618507       0.46894875 </v>
    <v>       0.56113486       0.41868357       0.52391161 </v>
    <v>       0.76030157       0.35789512       0.47202330 </v>
    <v>       0.62935434       0.29999061       0.52708650 </v>
    <v>       0.72934870       0.26982921       0.50155881 </v>
    <v>       0.02190075       0.24915225       0.55878516 </v>
    <v>       0.02700372       0.75184921       0.55939289 </v>
    <v>       0.46684892       0.22467587       0.55392390 </v>
    <v>       0.50797541       0.77037651       0.55843811 </v>
    <v>       0.23734553       0.52206295       0.55872943 </v>
    <v>       0.24402986       0.01246389       0.55502623 </v>
    <v>       0.76997386       0.98001209       0.56259318 </v>
    <v>       0.00975220       0.24367204       0.65149884 </v>
    <v>       0.00838325       0.76173611       0.65238158 </v>
    <v>       0.48893275       0.23208632       0.65323307 </v>
    <v>       0.49572440       0.75832490       0.65014871 </v>
    <v>       0.25408702       0.49518031       0.64941248 </v>
    <v>       0.25117232       0.99883161       0.64835508 </v>
    <v>       0.77487476       0.49147011       0.65253658 </v>
    <v>       0.75333392       0.99779814       0.65029871 </v>
    <v>       0.49998898       0.24999498       0.74327702 </v>
    <v>       0.49998903       0.74999496       0.74327702 </v>
    <v>       0.99998898       0.24999498       0.74327702 </v>
    <v>       0.99998903       0.74999496       0.74327702 </v>
    <v>       0.25000050       0.00000100       0.74325596 </v>
    <v>       0.25000052       0.50000100       0.74325596 </v>
    <v>       0.75000050       0.00000100       0.74325596 </v>
    <v>       0.75000049       0.50000100       0.74325596 </v>
    <v>       0.62248096       0.45590246       0.49640849 </v>
    <v>       0.67836018       0.43815861       0.48181194 </v>
    <v>       0.60429564       0.40534623       0.51241621 </v>
    <v>       0.71692933       0.37132527       0.48336072 </v>
    <v>       0.64281165       0.33880389       0.51430007 </v>
    <v>       0.69935045       0.32149538       0.49993343 </v>
    <v>       0.73245229       0.53296678       0.53124993 </v>
    <v>       0.83309068       0.47618660       0.55328815 </v>
    <v>       0.79024781       0.60327521       0.56114819 </v>
    <v>       0.70593780       0.50064413       0.56946162 </v>
    <v>       0.66006374       0.57886541       0.52961423 </v>
    <v>       0.63658104       0.59261879       0.50614918 </v>
    <v>       0.81802314       0.39553011       0.54697189 </v>
    <v>       0.85655286       0.63702963       0.54983953 </v>
    <v>       0.73381446       0.47690676       0.59114521 </v>
    <v>       0.58741933       0.53142857       0.49618585 </v>
    <v>       0.01546713       0.18543993       0.56937963 </v>
    <v>       0.03418328       0.68968045       0.57010872 </v>
    <v>       0.53801529       0.22109002       0.55834941 </v>
    <v>       0.49433975       0.70663057       0.56761127 </v>
    <v>       0.42208653       0.27653256       0.56117114 </v>
    <v>       0.46912116       0.83078621       0.56111559 </v>
    <v>       0.00075534       0.31346886       0.56654197 </v>
    <v>       0.98668860       0.80873050       0.56546826 </v>
    <v>       0.23961037       0.45357472       0.56603936 </v>
    <v>       0.18163200       0.97921847       0.56019164 </v>
    <v>       0.69787516       0.97865929       0.56629204 </v>
    <v>       0.30928244       0.99653479       0.56348081 </v>
    <v>       0.28616768       0.57382085       0.56345230 </v>
    <v>       0.81440737       0.03105802       0.57015383 </v>
    <v>       0.05705323       0.19257004       0.65704603 </v>
    <v>       0.04972926       0.71031606       0.66125219 </v>
    <v>       0.55769723       0.21601766       0.65835232 </v>
    <v>       0.53438271       0.71369105       0.66257894 </v>
    <v>       0.21402059       0.44484889       0.65885608 </v>
    <v>       0.20356039       0.95627405       0.65867630 </v>
    <v>       0.72123447       0.46093604       0.66383462 </v>
    <v>       0.70365719       0.95709191       0.66030462 </v>
    <v>       0.45142157       0.28846677       0.66086411 </v>
    <v>       0.44696482       0.80740987       0.65659196 </v>
    <v>       0.96845947       0.28311446       0.66493359 </v>
    <v>       0.94360819       0.78454947       0.65923879 </v>
    <v>       0.29785057       0.04526989       0.65705464 </v>
    <v>       0.29746918       0.54408846       0.65888087 </v>
    <v>       0.79380214       0.05036435       0.65888740 </v>
    <v>       0.80080832       0.55796327       0.65520734 </v>
    <v>       0.04586250       0.20411950       0.75272599 </v>
    <v>       0.04586250       0.70411946       0.75272599 </v>
    <v>       0.54586251       0.20411950       0.75272599 </v>
    <v>       0.54586250       0.70411946       0.75272599 </v>
    <v>       0.20411900       0.45410100       0.75270499 </v>
    <v>       0.20411899       0.95410095       0.75270499 </v>
    <v>       0.70411898       0.45410100       0.75270499 </v>
    <v>       0.70411896       0.95410095       0.75270499 </v>
    <v>       0.45414002       0.29588849       0.75272697 </v>
    <v>       0.45414001       0.79588852       0.75272697 </v>
    <v>       0.95414002       0.29588849       0.75272697 </v>
    <v>       0.95414006       0.79588852       0.75272697 </v>
    <v>       0.29588249       0.04590050       0.75270499 </v>
    <v>       0.29588248       0.54590053       0.75270499 </v>
    <v>       0.79588244       0.04590050       0.75270499 </v>
    <v>       0.79588248       0.54590053       0.75270499 </v>
    <v>       0.76583870       0.52733511       0.55358619 </v>
    <v>       0.50558648       0.01868777       0.55305569 </v>
    <v>       0.47288899       0.50458881       0.55587730 </v>
    <v>       0.99265206       0.99956952       0.55000607 </v>
    <v>       0.03861850       0.49619577       0.55309940 </v>
    <v>       0.23129464       0.23442592       0.55363173 </v>
    <v>       0.25466864       0.76318631       0.55345591 </v>
    <v>       0.73910615       0.20520582       0.55526444 </v>
    <v>       0.70933771       0.79070970       0.54951976 </v>
    <v>       0.00163746       0.98857434       0.65468624 </v>
    <v>       0.01082336       0.49433301       0.65551984 </v>
    <v>       0.50044709       0.00874822       0.65472696 </v>
    <v>       0.50942695       0.49147101       0.65570299 </v>
    <v>       0.25859894       0.24397510       0.65459424 </v>
    <v>       0.25046846       0.75223025       0.65506229 </v>
    <v>       0.74721012       0.26630557       0.65467983 </v>
    <v>       0.74883876       0.75223369       0.65411777 </v>
    <v>       0.13706015       0.10569536       0.60859127 </v>
    <v>       0.14732357       0.60787986       0.61014395 </v>
    <v>       0.64898726       0.10430145       0.61186872 </v>
    <v>       0.61743005       0.63589622       0.61399366 </v>
    <v>       0.35944839       0.38854579       0.60841606 </v>
    <v>       0.36648426       0.88668673       0.60736580 </v>
    <v>       0.89329349       0.36279714       0.61366693 </v>
    <v>       0.87181304       0.87417558       0.60932091 </v>
    <v>       0.12153120       0.35853436       0.61056536 </v>
    <v>       0.12183218       0.87129478       0.60701777 </v>
    <v>       0.58059801       0.32999087       0.60369393 </v>
    <v>       0.61489357       0.87103902       0.61108096 </v>
    <v>       0.38515358       0.13350843       0.60593113 </v>
    <v>       0.38640515       0.63485172       0.61065156 </v>
    <v>       0.88981655       0.13849491       0.61371833 </v>
    <v>       0.90977186       0.64342913       0.61445664 </v>
    <v>       0.00000000       0.00000000       0.75492797 </v>
    <v>       0.00000000       0.50000000       0.75492797 </v>
    <v>       0.50000000       0.00000000       0.75492797 </v>
    <v>       0.49999999       0.50000000       0.75492797 </v>
    <v>       0.25000050       0.25000000       0.75493902 </v>
    <v>       0.25000051       0.74999997       0.75493902 </v>
    <v>       0.75000047       0.25000000       0.75493902 </v>
    <v>       0.75000046       0.74999997       0.75493902 </v>
    <v>       0.13579050       0.11421000       0.70478299 </v>
    <v>       0.13579050       0.61420998       0.70478299 </v>
    <v>       0.63579045       0.11421000       0.70478299 </v>
    <v>       0.63579049       0.61420998       0.70478299 </v>
    <v>       0.36420952       0.38578999       0.70478299 </v>
    <v>       0.36420950       0.88578996       0.70478299 </v>
    <v>       0.86420954       0.38578999       0.70478299 </v>
    <v>       0.86420953       0.88578996       0.70478299 </v>
    <v>       0.11421799       0.36421899       0.70478098 </v>
    <v>       0.11421799       0.86421899       0.70478098 </v>
    <v>       0.61421800       0.36421899       0.70478098 </v>
    <v>       0.61421799       0.86421899       0.70478098 </v>
    <v>       0.38578201       0.13578149       0.70478202 </v>
    <v>       0.38578200       0.63578149       0.70478202 </v>
    <v>       0.88578199       0.13578149       0.70478202 </v>
    <v>       0.88578203       0.63578149       0.70478202 </v>
    <v>       0.13466700       0.11533200       0.80125603 </v>
    <v>       0.13466699       0.61533199       0.80125603 </v>
    <v>       0.63466699       0.11533200       0.80125603 </v>
    <v>       0.63466698       0.61533199       0.80125603 </v>
    <v>       0.36533300       0.38466799       0.80125603 </v>
    <v>       0.36533299       0.88466796       0.80125603 </v>
    <v>       0.86533295       0.38466799       0.80125603 </v>
    <v>       0.86533294       0.88466796       0.80125603 </v>
    <v>       0.11532850       0.36533700       0.80126500 </v>
    <v>       0.11532850       0.86533698       0.80126500 </v>
    <v>       0.61532850       0.36533700       0.80126500 </v>
    <v>       0.61532849       0.86533698       0.80126500 </v>
    <v>       0.38467151       0.13466300       0.80126500 </v>
    <v>       0.38467150       0.63466297       0.80126500 </v>
    <v>       0.88467149       0.13466300       0.80126500 </v>
    <v>       0.88467153       0.63466297       0.80126500 </v>
    <v>       0.99276458       0.99758584       0.60608723 </v>
    <v>       0.01007074       0.49903924       0.60624577 </v>
    <v>       0.50169306       0.00879932       0.60469840 </v>
    <v>       0.49694252       0.49231419       0.60485413 </v>
    <v>       0.24373110       0.24048197       0.60370418 </v>
    <v>       0.24836906       0.74679463       0.60370247 </v>
    <v>       0.73847377       0.24726347       0.60261290 </v>
    <v>       0.73316615       0.75480763       0.60187868 </v>
    <v>       0.00000050       0.00000050       0.70482896 </v>
    <v>       0.00000050       0.50000048       0.70482896 </v>
    <v>       0.50000048       0.00000050       0.70482896 </v>
    <v>       0.50000046       0.50000048       0.70482896 </v>
    <v>       0.24999999       0.24999947       0.70482499 </v>
    <v>       0.25000001       0.74999950       0.70482499 </v>
    <v>       0.74999999       0.24999947       0.70482499 </v>
    <v>       0.74999998       0.74999950       0.70482499 </v>
    <v>       0.00000000       0.00000000       0.80731797 </v>
    <v>       0.00000000       0.50000000       0.80731797 </v>
    <v>       0.50000000       0.00000000       0.80731797 </v>
    <v>       0.49999999       0.50000000       0.80731797 </v>
    <v>       0.24999999       0.25000000       0.80731797 </v>
    <v>       0.25000001       0.74999997       0.80731797 </v>
    <v>       0.74999999       0.25000000       0.80731797 </v>
    <v>       0.74999998       0.74999997       0.80731797 </v>
   </varray>
  </structure>
  <varray name="primitive_index" >
   <v type="int" >        1 </v>
   <v type="int" >        2 </v>
   <v type="int" >        3 </v>
   <v type="int" >        4 </v>
   <v type="int" >        5 </v>
   <v type="int" >        6 </v>
   <v type="int" >        7 </v>
   <v type="int" >        8 </v>
   <v type="int" >        9 </v>
   <v type="int" >       10 </v>
   <v type="int" >       11 </v>
   <v type="int" >       12 </v>
   <v type="int" >       13 </v>
   <v type="int" >       14 </v>
   <v type="int" >       15 </v>
   <v type="int" >       16 </v>
   <v type="int" >       17 </v>
   <v type="int" >       18 </v>
   <v type="int" >       19 </v>
   <v type="int" >       20 </v>
   <v type="int" >       21 </v>
   <v type="int" >       22 </v>
   <v type="int" >       23 </v>
   <v type="int" >       24 </v>
   <v type="int" >       25 </v>
   <v type="int" >       26 </v>
   <v type="int" >       27 </v>
   <v type="int" >       28 </v>
   <v type="int" >       29 </v>
   <v type="int" >       30 </v>
   <v type="int" >       31 </v>
   <v type="int" >       32 </v>
   <v type="int" >       33 </v>
   <v type="int" >       34 </v>
   <v type="int" >       35 </v>
   <v type="int" >       36 </v>
   <v type="int" >       37 </v>
   <v type="int" >       38 </v>
   <v type="int" >       39 </v>
   <v type="int" >       40 </v>
   <v type="int" >       41 </v>
   <v type="int" >       42 </v>
   <v type="int" >       43 </v>
   <v type="int" >       44 </v>
   <v type="int" >       45 </v>
   <v type="int" >       46 </v>
   <v type="int" >       47 </v>
   <v type="int" >       48 </v>
   <v type="int" >       49 </v>
   <v type="int" >       50 </v>
   <v type="int" >       51 </v>
   <v type="int" >       52 </v>
   <v type="int" >       53 </v>
   <v type="int" >       54 </v>
   <v type="int" >       55 </v>
   <v type="int" >       56 </v>
   <v type="int" >       57 </v>
   <v type="int" >       58 </v>
   <v type="int" >       59 </v>
   <v type="int" >       60 </v>
   <v type="int" >       61 </v>
   <v type="int" >       62 </v>
   <v type="int" >       63 </v>
   <v type="int" >       64 </v>
   <v type="int" >       65 </v>
   <v type="int" >       66 </v>
   <v type="int" >       67 </v>
   <v type="int" >       68 </v>
   <v type="int" >       69 </v>
   <v type="int" >       70 </v>
   <v type="int" >       71 </v>
   <v type="int" >       72 </v>
   <v type="int" >       73 </v>
   <v type="int" >       74 </v>
   <v type="int" >       75 </v>
   <v type="int" >       76 </v>
   <v type="int" >       77 </v>
   <v type="int" >       78 </v>
   <v type="int" >       79 </v>
   <v type="int" >       80 </v>
   <v type="int" >       81 </v>
   <v type="int" >       82 </v>
   <v type="int" >       83 </v>
   <v type="int" >       84 </v>
   <v type="int" >       85 </v>
   <v type="int" >       86 </v>
   <v type="int" >       87 </v>
   <v type="int" >       88 </v>
   <v type="int" >       89 </v>
   <v type="int" >       90 </v>
   <v type="int" >       91 </v>
   <v type="int" >       92 </v>
   <v type="int" >       93 </v>
   <v type="int" >       94 </v>
   <v type="int" >       95 </v>
   <v type="int" >       96 </v>
   <v type="int" >       97 </v>
   <v type="int" >       98 </v>
   <v type="int" >       99 </v>
   <v type="int" >      100 </v>
   <v type="int" >      101 </v>
   <v type="int" >      102 </v>
   <v type="int" >      103 </v>
   <v type="int" >      104 </v>
   <v type="int" >      105 </v>
   <v type="int" >      106 </v>
   <v type="int" >      107 </v>
   <v type="int" >      108 </v>
   <v type="int" >      109 </v>
   <v type="int" >      110 </v>
   <v type="int" >      111 </v>
   <v type="int" >      112 </v>
   <v type="int" >      113 </v>
   <v type="int" >      114 </v>
   <v type="int" >      115 </v>
   <v type="int" >      116 </v>
   <v type="int" >      117 </v>
   <v type="int" >      118 </v>
   <v type="int" >      119 </v>
   <v type="int" >      120 </v>
   <v type="int" >      121 </v>
   <v type="int" >      122 </v>
   <v type="int" >      123 </v>
   <v type="int" >      124 </v>
   <v type="int" >      125 </v>
   <v type="int" >      126 </v>
   <v type="int" >      127 </v>
   <v type="int" >      128 </v>
   <v type="int" >      129 </v>
   <v type="int" >      130 </v>
   <v type="int" >      131 </v>
   <v type="int" >      132 </v>
   <v type="int" >      133 </v>
   <v type="int" >      134 </v>
   <v type="int" >      135 </v>
   <v type="int" >      136 </v>
   <v type="int" >      137 </v>
   <v type="int" >      138 </v>
   <v type="int" >      139 </v>
   <v type="int" >      140 </v>
   <v type="int" >      141 </v>
   <v type="int" >      142 </v>
   <v type="int" >      143 </v>
   <v type="int" >      144 </v>
   <v type="int" >      145 </v>
   <v type="int" >      146 </v>
   <v type="int" >      147 </v>
   <v type="int" >      148 </v>
   <v type="int" >      149 </v>
   <v type="int" >      150 </v>
   <v type="int" >      151 </v>
   <v type="int" >      152 </v>
   <v type="int" >      153 </v>
   <v type="int" >      154 </v>
   <v type="int" >      155 </v>
   <v type="int" >      156 </v>
   <v type="int" >      157 </v>
   <v type="int" >      158 </v>
   <v type="int" >      159 </v>
   <v type="int" >      160 </v>
   <v type="int" >      161 </v>
   <v type="int" >      162 </v>
   <v type="int" >      163 </v>
   <v type="int" >      164 </v>
   <v type="int" >      165 </v>
   <v type="int" >      166 </v>
   <v type="int" >      167 </v>
   <v type="int" >      168 </v>
   <v type="int" >      169 </v>
   <v type="int" >      170 </v>
   <v type="int" >      171 </v>
   <v type="int" >      172 </v>
   <v type="int" >      173 </v>
   <v type="int" >      174 </v>
   <v type="int" >      175 </v>
   <v type="int" >      176 </v>
   <v type="int" >      177 </v>
   <v type="int" >      178 </v>
   <v type="int" >      179 </v>
   <v type="int" >      180 </v>
   <v type="int" >      181 </v>
   <v type="int" >      182 </v>
   <v type="int" >      183 </v>
   <v type="int" >      184 </v>
   <v type="int" >      185 </v>
   <v type="int" >      186 </v>
   <v type="int" >      187 </v>
   <v type="int" >      188 </v>
   <v type="int" >      189 </v>
   <v type="int" >      190 </v>
   <v type="int" >      191 </v>
   <v type="int" >      192 </v>
   <v type="int" >      193 </v>
   <v type="int" >      194 </v>
   <v type="int" >      195 </v>
   <v type="int" >      196 </v>
   <v type="int" >      197 </v>
   <v type="int" >      198 </v>
   <v type="int" >      199 </v>
   <v type="int" >      200 </v>
   <v type="int" >      201 </v>
   <v type="int" >      202 </v>
   <v type="int" >      203 </v>
   <v type="int" >      204 </v>
   <v type="int" >      205 </v>
   <v type="int" >      206 </v>
   <v type="int" >      207 </v>
   <v type="int" >      208 </v>
   <v type="int" >      209 </v>
   <v type="int" >      210 </v>
   <v type="int" >      211 </v>
   <v type="int" >      212 </v>
   <v type="int" >      213 </v>
   <v type="int" >      214 </v>
   <v type="int" >      215 </v>
   <v type="int" >      216 </v>
   <v type="int" >      217 </v>
   <v type="int" >      218 </v>
   <v type="int" >      219 </v>
   <v type="int" >      220 </v>
   <v type="int" >      221 </v>
   <v type="int" >      222 </v>
   <v type="int" >      223 </v>
   <v type="int" >      224 </v>
   <v type="int" >      225 </v>
   <v type="int" >      226 </v>
   <v type="int" >      227 </v>
   <v type="int" >      228 </v>
   <v type="int" >      229 </v>
   <v type="int" >      230 </v>
   <v type="int" >      231 </v>
   <v type="int" >      232 </v>
   <v type="int" >      233 </v>
   <v type="int" >      234 </v>
   <v type="int" >      235 </v>
   <v type="int" >      236 </v>
   <v type="int" >      237 </v>
   <v type="int" >      238 </v>
   <v type="int" >      239 </v>
   <v type="int" >      240 </v>
   <v type="int" >      241 </v>
   <v type="int" >      242 </v>
   <v type="int" >      243 </v>
   <v type="int" >      244 </v>
   <v type="int" >      245 </v>
   <v type="int" >      246 </v>
   <v type="int" >      247 </v>
   <v type="int" >      248 </v>
   <v type="int" >      249 </v>
   <v type="int" >      250 </v>
   <v type="int" >      251 </v>
   <v type="int" >      252 </v>
   <v type="int" >      253 </v>
   <v type="int" >      254 </v>
   <v type="int" >      255 </v>
   <v type="int" >      256 </v>
   <v type="int" >      257 </v>
   <v type="int" >      258 </v>
   <v type="int" >      259 </v>
   <v type="int" >      260 </v>
   <v type="int" >      261 </v>
   <v type="int" >      262 </v>
   <v type="int" >      263 </v>
   <v type="int" >      264 </v>
   <v type="int" >      265 </v>
   <v type="int" >      266 </v>
   <v type="int" >      267 </v>
   <v type="int" >      268 </v>
   <v type="int" >      269 </v>
   <v type="int" >      270 </v>
   <v type="int" >      271 </v>
   <v type="int" >      272 </v>
   <v type="int" >      273 </v>
   <v type="int" >      274 </v>
   <v type="int" >      275 </v>
   <v type="int" >      276 </v>
   <v type="int" >      277 </v>
   <v type="int" >      278 </v>
   <v type="int" >      279 </v>
   <v type="int" >      280 </v>
   <v type="int" >      281 </v>
   <v type="int" >      282 </v>
   <v type="int" >      283 </v>
   <v type="int" >      284 </v>
   <v type="int" >      285 </v>
   <v type="int" >      286 </v>
   <v type="int" >      287 </v>
   <v type="int" >      288 </v>
   <v type="int" >      289 </v>
   <v type="int" >      290 </v>
   <v type="int" >      291 </v>
   <v type="int" >      292 </v>
   <v type="int" >      293 </v>
   <v type="int" >      294 </v>
   <v type="int" >      295 </v>
   <v type="int" >      296 </v>
   <v type="int" >      297 </v>
   <v type="int" >      298 </v>
   <v type="int" >      299 </v>
   <v type="int" >      300 </v>
   <v type="int" >      301 </v>
   <v type="int" >      302 </v>
   <v type="int" >      303 </v>
   <v type="int" >      304 </v>
   <v type="int" >      305 </v>
   <v type="int" >      306 </v>
   <v type="int" >      307 </v>
   <v type="int" >      308 </v>
   <v type="int" >      309 </v>
   <v type="int" >      310 </v>
   <v type="int" >      311 </v>
   <v type="int" >      312 </v>
   <v type="int" >      313 </v>
   <v type="int" >      314 </v>
   <v type="int" >      315 </v>
   <v type="int" >      316 </v>
   <v type="int" >      317 </v>
   <v type="int" >      318 </v>
   <v type="int" >      319 </v>
   <v type="int" >      320 </v>
   <v type="int" >      321 </v>
   <v type="int" >      322 </v>
   <v type="int" >      323 </v>
   <v type="int" >      324 </v>
   <v type="int" >      325 </v>
  </varray>
 </primitive_cell>
 <kpoints>
  <generation param="Gamma">
   <v type="int" name="divisions">       3        3        1 </v>
   <v name="usershift">      0.00000000       0.00000000       0.00000000 </v>
   <v name="genvec1">      0.33333333       0.00000000       0.00000000 </v>
   <v name="genvec2">      0.00000000       0.33333333       0.00000000 </v>
   <v name="genvec3">      0.00000000       0.00000000       1.00000000 </v>
   <v name="shift">      0.00000000       0.00000000       0.00000000 </v>
  </generation>
  <varray name="kpointlist" >
   <v>       0.00000000       0.00000000       0.00000000 </v>
   <v>       0.33333333       0.00000000       0.00000000 </v>
   <v>       0.00000000       0.33333333       0.00000000 </v>
   <v>       0.33333333       0.33333333       0.00000000 </v>
   <v>      -0.33333333       0.33333333       0.00000000 </v>
  </varray>
  <varray name="weights" >
   <v>       0.11111111 </v>
   <v>       0.22222222 </v>
   <v>       0.22222222 </v>
   <v>       0.22222222 </v>
   <v>       0.22222222 </v>
  </varray>
 </kpoints>
 <parameters>
  <separator name="general" >
   <i type="string" name="SYSTEM">PSC</i>
   <i type="logical" name="LCOMPAT"> F  </i>
  </separator>
  <separator name="electronic" >
   <i type="string" name="PREC">normal</i>
   <i name="ENMAX">    500.00000000</i>
   <i name="ENAUG">    644.87300000</i>
   <i name="EDIFF">      0.00010000</i>
   <i type="int" name="IALGO">    38</i>
   <i type="int" name="IWAVPR">    10</i>
   <i type="int" name="NBANDS">   732</i>
   <i type="int" name="NBANDSLOW">    -1</i>
   <i type="int" name="NBANDSHIGH">    -1</i>
   <i name="NELECT">   1134.00000000</i>
   <i type="int" name="TURBO">     0</i>
   <i type="int" name="IRESTART">     0</i>
   <i type="int" name="NREBOOT">     0</i>
   <i type="int" name="NMIN">     0</i>
   <i name="EREF">      0.00000000</i>
   <separator name="electronic smearing" >
    <i type="int" name="ISMEAR">     0</i>
    <i name="SIGMA">      0.05000000</i>
    <i name="KSPACING">      0.50000000</i>
    <i type="logical" name="KGAMMA"> T  </i>
    <i type="logical" name="KBLOWUP"> T  </i>
   </separator>
   <separator name="electronic projectors" >
    <i type="logical" name="LREAL"> T  </i>
    <v name="ROPT">     -0.00050000     -0.00050000     -0.00050000     -0.00050000     -0.00050000</v>
    <i type="int" name="LMAXPAW">  -100</i>
    <i type="int" name="LMAXMIX">     2</i>
    <i type="logical" name="NLSPLINE"> F  </i>
   </separator>
   <separator name="electronic startup" >
    <i type="int" name="ISTART">     0</i>
    <i type="int" name="ICHARG">     1</i>
    <i type="int" name="INIWAV">     1</i>
   </separator>
   <separator name="electronic spin" >
    <i type="int" name="ISPIN">     1</i>
    <i type="logical" name="LNONCOLLINEAR"> F  </i>
    <v name="MAGMOM">      1.00000000      1.00000000      1.00000000      1.00000000      1.00000000      1.00000000      1.00000000      1.00000000      1.00000000      1.00000000      1.00000000      1.00000000      1.00000000      1.00000000      1.00000000      1.00000000      1.00000000      1.00000000      1.00000000      1.00000000
      1.00000000      1.00000000      1.00000000      1.00000000      1.00000000      1.00000000      1.00000000      1.00000000      1.00000000      1.00000000      1.00000000      1.00000000      1.00000000      1.00000000      1.00000000      1.00000000      1.00000000      1.00000000      1.00000000      1.00000000
      1.00000000      1.00000000      1.00000000      1.00000000      1.00000000      1.00000000      1.00000000      1.00000000      1.00000000      1.00000000      1.00000000      1.00000000      1.00000000      1.00000000      1.00000000      1.00000000      1.00000000      1.00000000      1.00000000      1.00000000
      1.00000000      1.00000000      1.00000000      1.00000000      1.00000000      1.00000000      1.00000000      1.00000000      1.00000000      1.00000000      1.00000000      1.00000000      1.00000000      1.00000000      1.00000000      1.00000000      1.00000000      1.00000000      1.00000000      1.00000000
      1.00000000      1.00000000      1.00000000      1.00000000      1.00000000      1.00000000      1.00000000      1.00000000      1.00000000      1.00000000      1.00000000      1.00000000      1.00000000      1.00000000      1.00000000      1.00000000      1.00000000      1.00000000      1.00000000      1.00000000
      1.00000000      1.00000000      1.00000000      1.00000000      1.00000000      1.00000000      1.00000000      1.00000000      1.00000000      1.00000000      1.00000000      1.00000000      1.00000000      1.00000000      1.00000000      1.00000000      1.00000000      1.00000000      1.00000000      1.00000000
      1.00000000      1.00000000      1.00000000      1.00000000      1.00000000      1.00000000      1.00000000      1.00000000      1.00000000      1.00000000      1.00000000      1.00000000      1.00000000      1.00000000      1.00000000      1.00000000      1.00000000      1.00000000      1.00000000      1.00000000
      1.00000000      1.00000000      1.00000000      1.00000000      1.00000000      1.00000000      1.00000000      1.00000000      1.00000000      1.00000000      1.00000000      1.00000000      1.00000000      1.00000000      1.00000000      1.00000000      1.00000000      1.00000000      1.00000000      1.00000000
      1.00000000      1.00000000      1.00000000      1.00000000      1.00000000      1.00000000      1.00000000      1.00000000      1.00000000      1.00000000      1.00000000      1.00000000      1.00000000      1.00000000      1.00000000      1.00000000      1.00000000      1.00000000      1.00000000      1.00000000
      1.00000000      1.00000000      1.00000000      1.00000000      1.00000000      1.00000000      1.00000000      1.00000000      1.00000000      1.00000000      1.00000000      1.00000000      1.00000000      1.00000000      1.00000000      1.00000000      1.00000000      1.00000000      1.00000000      1.00000000
      1.00000000      1.00000000      1.00000000      1.00000000      1.00000000      1.00000000      1.00000000      1.00000000      1.00000000      1.00000000      1.00000000      1.00000000      1.00000000      1.00000000      1.00000000      1.00000000      1.00000000      1.00000000      1.00000000      1.00000000
      1.00000000      1.00000000      1.00000000      1.00000000      1.00000000      1.00000000      1.00000000      1.00000000      1.00000000      1.00000000      1.00000000      1.00000000      1.00000000      1.00000000      1.00000000      1.00000000      1.00000000      1.00000000      1.00000000      1.00000000
      1.00000000      1.00000000      1.00000000      1.00000000      1.00000000      1.00000000      1.00000000      1.00000000      1.00000000      1.00000000      1.00000000      1.00000000      1.00000000      1.00000000      1.00000000      1.00000000      1.00000000      1.00000000      1.00000000      1.00000000
      1.00000000      1.00000000      1.00000000      1.00000000      1.00000000      1.00000000      1.00000000      1.00000000      1.00000000      1.00000000      1.00000000      1.00000000      1.00000000      1.00000000      1.00000000      1.00000000      1.00000000      1.00000000      1.00000000      1.00000000
      1.00000000      1.00000000      1.00000000      1.00000000      1.00000000      1.00000000      1.00000000      1.00000000      1.00000000      1.00000000      1.00000000      1.00000000      1.00000000      1.00000000      1.00000000      1.00000000      1.00000000      1.00000000      1.00000000      1.00000000
      1.00000000      1.00000000      1.00000000      1.00000000      1.00000000      1.00000000      1.00000000      1.00000000      1.00000000      1.00000000      1.00000000      1.00000000      1.00000000      1.00000000      1.00000000      1.00000000      1.00000000      1.00000000      1.00000000      1.00000000
      1.00000000      1.00000000      1.00000000      1.00000000      1.00000000</v>
    <i name="NUPDOWN">     -1.00000000</i>
    <i type="logical" name="LSORBIT"> F  </i>
    <v name="SAXIS">      0.00000000      0.00000000      1.00000000</v>
    <i type="logical" name="LSPIRAL"> F  </i>
    <v name="QSPIRAL">      0.00000000      0.00000000      0.00000000</v>
    <i type="logical" name="LZEROZ"> F  </i>
   </separator>
   <separator name="electronic exchange-correlation" >
    <i type="logical" name="LASPH"> F  </i>
    <i type="logical" name="LMETAGGA"> F  </i>
   </separator>
   <separator name="electronic convergence" >
    <i type="int" name="NELM">   600</i>
    <i type="int" name="NELMDL">     0</i>
    <i type="int" name="NELMIN">     2</i>
    <i name="ENINI">    500.00000000</i>
    <separator name="electronic convergence detail" >
     <i type="logical" name="LDIAG"> T  </i>
     <i type="logical" name="LSUBROT"> F  </i>
     <i name="WEIMIN">      0.00000000</i>
     <i name="EBREAK">      0.00000003</i>
     <i name="DEPER">      0.30000000</i>
     <i type="int" name="NRMM">     4</i>
     <i name="TIME">      0.40000000</i>
    </separator>
   </separator>
   <separator name="electronic mixer" >
    <i name="AMIX">      0.40000000</i>
    <i name="BMIX">      0.01000000</i>
    <i name="AMIN">      0.01000000</i>
    <i name="AMIX_MAG">      1.60000000</i>
    <i name="BMIX_MAG">      0.01000000</i>
    <separator name="electronic mixer details" >
     <i type="int" name="IMIX">     4</i>
     <i type="logical" name="MIXFIRST"> F  </i>
     <i type="int" name="MAXMIX">   -45</i>
     <i name="WC">    100.00000000</i>
     <i type="int" name="INIMIX">     1</i>
     <i type="int" name="MIXPRE">     1</i>
     <i type="int" name="MREMOVE">     5</i>
    </separator>
   </separator>
   <separator name="electronic dipolcorrection" >
    <i type="logical" name="LDIPOL"> T  </i>
    <i type="logical" name="LMONO"> F  </i>
    <i type="int" name="IDIPOL">     3</i>
    <i name="EPSILON">      1.00000000</i>
    <v name="DIPOL">   -100.00000000   -100.00000000   -100.00000000</v>
    <i name="EFIELD">      0.00000000</i>
   </separator>
  </separator>
  <separator name="grids" >
   <i type="int" name="NGX">   100</i>
   <i type="int" name="NGY">   100</i>
   <i type="int" name="NGZ">   350</i>
   <i type="int" name="NGXF">   200</i>
   <i type="int" name="NGYF">   200</i>
   <i type="int" name="NGZF">   700</i>
   <i type="logical" name="ADDGRID"> F  </i>
  </separator>
  <separator name="ionic" >
   <i type="int" name="NSW">     0</i>
   <i type="int" name="IBRION">    -1</i>
   <i type="int" name="MDALGO">     0</i>
   <i type="int" name="ISIF">     2</i>
   <i name="PSTRESS">      0.00000000</i>
   <i name="EDIFFG">      0.00100000</i>
   <i type="int" name="NFREE">     0</i>
   <i name="POTIM">      0.50000000</i>
   <i name="SMASS">     -3.00000000</i>
   <i name="SCALEE">      1.00000000</i>
  </separator>
  <separator name="ionic md" >
   <i name="TEBEG">      0.00010000</i>
   <i name="TEEND">      0.00010000</i>
   <i type="int" name="NBLOCK">     1</i>
   <i type="int" name="KBLOCK">     1</i>
   <i type="int" name="NPACO">   256</i>
   <i name="APACO">     16.00000000</i>
  </separator>
  <separator name="symmetry" >
   <i type="int" name="ISYM">     0</i>
   <i name="SYMPREC">      0.00001000</i>
  </separator>
  <separator name="dos" >
   <i type="int" name="LORBIT">     0</i>
   <v name="RWIGS">     -1.00000000     -1.00000000     -1.00000000     -1.00000000     -1.00000000</v>
   <i type="int" name="NEDOS">   301</i>
   <i name="EMIN">     10.00000000</i>
   <i name="EMAX">    -10.00000000</i>
   <i name="EFERMI">      0.00000000</i>
  </separator>
  <separator name="writing" >
   <i type="int" name="NWRITE">     2</i>
   <i type="logical" name="LWAVE"> F  </i>
   <i type="logical" name="LDOWNSAMPLE"> F  </i>
   <i type="logical" name="LCHARG"> T  </i>
   <i type="logical" name="LPARD"> F  </i>
   <i type="logical" name="LVTOT"> T  </i>
   <i type="logical" name="LVHAR"> F  </i>
   <i type="logical" name="LELF"> F  </i>
   <i type="logical" name="LOPTICS"> F  </i>
   <v name="STM">      0.00000000      0.00000000      0.00000000      0.00000000      0.00000000      0.00000000      0.00000000</v>
  </separator>
  <separator name="performance" >
   <i type="int" name="NPAR">     4</i>
   <i type="int" name="NSIM">     4</i>
   <i type="int" name="NBLK">    -1</i>
   <i type="logical" name="LPLANE"> T  </i>
   <i type="logical" name="LSCALAPACK"> T  </i>
   <i type="logical" name="LSCAAWARE"> F  </i>
   <i type="logical" name="LSCALU"> F  </i>
   <i type="logical" name="LASYNC"> F  </i>
   <i type="logical" name="LORBITALREAL"> F  </i>
  </separator>
  <separator name="miscellaneous" >
   <i type="int" name="IDIOT">     3</i>
   <i type="int" name="PHON_NSTRUCT">    -1</i>
   <i type="logical" name="LMUSIC"> F  </i>
   <v name="POMASS">      1.00000000     12.01100000     14.00100000    126.90400000    207.20000000</v>
   <v name="DARWINR">      0.00000000      0.00000000      0.00000000      0.00000000      0.00000000</v>
   <v name="DARWINV">      1.00000000      1.00000000      1.00000000      1.00000000      1.00000000</v>
   <i type="logical" name="LCORR"> T  </i>
  </separator>
  <i type="logical" name="GGA_COMPAT"> F  </i>
  <i type="logical" name="LBERRY"> F  </i>
  <i type="int" name="ICORELEVEL">     0</i>
  <i type="logical" name="LDAU"> F  </i>
  <i type="int" name="I_CONSTRAINED_M">     0</i>
  <separator name="electronic exchange-correlation" >
   <i type="string" name="GGA">--</i>
   <i type="int" name="VOSKOWN">     0</i>
   <i type="logical" name="LHFCALC"> F  </i>
   <i type="string" name="PRECFOCK"></i>
   <i type="logical" name="LSYMGRAD"> F  </i>
   <i type="logical" name="LHFONE"> F  </i>
   <i type="logical" name="LRHFCALC"> F  </i>
   <i type="logical" name="LTHOMAS"> F  </i>
   <i type="logical" name="LMODELHF"> F  </i>
   <i type="logical" name="LFOCKACE"> F  </i>
   <i name="ENCUT4O">     -1.00000000</i>
   <i type="int" name="EXXOEP">     0</i>
   <i type="int" name="FOURORBIT">     0</i>
   <i name="AEXX">      0.00000000</i>
   <i name="HFALPHA">      0.00000000</i>
   <i name="MCALPHA">      0.00000000</i>
   <i name="ALDAX">      1.00000000</i>
   <i name="AGGAX">      1.00000000</i>
   <i name="ALDAC">      1.00000000</i>
   <i name="AGGAC">      1.00000000</i>
   <i type="int" name="NKREDX">     1</i>
   <i type="int" name="NKREDY">     1</i>
   <i type="int" name="NKREDZ">     1</i>
   <i type="logical" name="SHIFTRED"> F  </i>
   <i type="logical" name="ODDONLY"> F  </i>
   <i type="logical" name="EVENONLY"> F  </i>
   <i type="int" name="LMAXFOCK">     0</i>
   <i type="int" name="NMAXFOCKAE">     0</i>
   <i type="logical" name="LFOCKAEDFT"> F  </i>
   <i name="HFSCREEN">      0.00000000</i>
   <i name="HFSCREENC">      0.00000000</i>
   <i type="int" name="NBANDSGWLOW">     0</i>
  </separator>
  <separator name="vdW DFT" >
   <i type="logical" name="LUSE_VDW"> F  </i>
   <i name="Zab_VDW">     -0.84910000</i>
   <i name="PARAM1">      0.12340000</i>
   <i name="PARAM2">      1.00000000</i>
   <i name="PARAM3">      0.00000000</i>
  </separator>
  <separator name="model GW" >
   <i type="int" name="MODEL_GW">     0</i>
   <i name="MODEL_EPS0">     37.63423484</i>
   <i name="MODEL_ALPHA">      1.00000000</i>
  </separator>
  <separator name="linear response parameters" >
   <i type="logical" name="LEPSILON"> F  </i>
   <i type="logical" name="LRPA"> F  </i>
   <i type="logical" name="LNABLA"> F  </i>
   <i type="logical" name="LVEL"> F  </i>
   <i type="int" name="KINTER">     0</i>
   <i name="CSHIFT">      0.10000000</i>
   <i name="OMEGAMAX">     -1.00000000</i>
   <i name="DEG_THRESHOLD">      0.00200000</i>
   <i name="RTIME">     -0.10000000</i>
   <i name="WPLASMAI">      0.00000000</i>
   <v name="DFIELD">      0.00000000      0.00000000      0.00000000</v>
   <v name="WPLASMA">      0.00000000      0.00000000      0.00000000      0.00000000      0.00000000      0.00000000      0.00000000      0.00000000      0.00000000</v>
  </separator>
  <separator name="orbital magnetization" >
   <i type="logical" name="NUCIND"> F  </i>
   <v name="MAGPOS">      0.00000000      0.00000000      0.00000000</v>
   <i type="logical" name="LNICSALL"> T  </i>
   <i type="logical" name="ORBITALMAG"> F  </i>
   <i type="logical" name="LMAGBLOCH"> F  </i>
   <i type="logical" name="LCHIMAG"> F  </i>
   <i type="logical" name="LGAUGE"> T  </i>
   <i type="int" name="MAGATOM">     0</i>
   <v name="MAGDIPOL">      0.00000000      0.00000000      0.00000000</v>
   <v name="AVECCONST">      0.00000000      0.00000000      0.00000000</v>
  </separator>
  <separator name="response functions" >
   <i type="logical" name="LFINITE_TEMPERATURE"> F  </i>
   <i type="logical" name="LADDER"> F  </i>
   <i type="logical" name="LRPAFORCE"> F  </i>
   <i type="logical" name="LFXC"> F  </i>
   <i type="logical" name="LHARTREE"> T  </i>
   <i type="int" name="IBSE">     0</i>
   <v type="int" name="KPOINT">    -1     0     0     0</v>
   <i type="logical" name="LTCTC"> F  </i>
   <i type="logical" name="LTCTE"> F  </i>
   <i type="logical" name="LTETE"> F  </i>
   <i type="logical" name="LTRIPLET"> F  </i>
   <i type="logical" name="LFXCEPS"> F  </i>
   <i type="logical" name="LFXHEG"> F  </i>
   <i type="int" name="NATURALO">     2</i>
   <i type="logical" name="LHOLEGF"> F  </i>
   <i type="logical" name="L2ORDER"> F  </i>
   <i type="logical" name="LDMP1"> F  </i>
   <i type="logical" name="LMP2LT"> F  </i>
   <i type="logical" name="LSMP2LT"> F  </i>
   <i type="logical" name="LGWLF"> F  </i>
   <i name="ENCUTGW">     -2.00000000</i>
   <i name="ENCUTGWSOFT">     -2.00000000</i>
   <i name="ENCUTLF">     -1.00000000</i>
   <i type="logical" name="LESF_SPLINES"> F  </i>
   <i type="int" name="LMAXMP2">    -1</i>
   <i name="SCISSOR">      0.00000000</i>
   <i type="int" name="NOMEGA">     0</i>
   <i type="int" name="NOMEGAR">     0</i>
   <i type="int" name="NBANDSGW">    -1</i>
   <i type="int" name="NBANDSO">    -1</i>
   <i type="int" name="NBANDSV">    -1</i>
   <i type="int" name="NELM">   600</i>
   <i type="int" name="NELMHF">     1</i>
   <i type="int" name="DIM">     3</i>
   <i type="int" name="IESPILON">     4</i>
   <i type="int" name="ANTIRES">     0</i>
   <i name="OMEGAMAX">    -30.00000000</i>
   <i name="OMEGAMIN">    -30.00000000</i>
   <i name="OMEGATL">   -200.00000000</i>
   <i type="int" name="OMEGAGRID">     0</i>
   <i name="CSHIFT">     -0.10000000</i>
   <i type="logical" name="LSELFENERGY"> F  </i>
   <i type="logical" name="LSPECTRAL"> F  </i>
   <i type="logical" name="LSPECTRALGW"> F  </i>
   <i type="logical" name="LSINGLES"> F  </i>
   <i type="logical" name="LFERMIGW"> F  </i>
   <i type="logical" name="ODDONLYGW"> F  </i>
   <i type="logical" name="EVENONLYGW"> F  </i>
   <i type="int" name="NKREDLFX">     1</i>
   <i type="int" name="NKREDLFY">     1</i>
   <i type="int" name="NKREDLFZ">     1</i>
   <i type="int" name="MAXMEM">  2800</i>
   <i type="int" name="TELESCOPE">     0</i>
   <i type="int" name="NTAUPAR">    -1</i>
   <i type="int" name="NOMEGAPAR">    -1</i>
   <i name="DAMP_NEWTON">      0.80000001</i>
   <i name="LAMBDA">      1.00000000</i>
  </separator>
  <separator name="External order field" >
   <i name="OFIELD_KAPPA">      0.00000000</i>
   <v name="OFIELD_K">      0.00000000      0.00000000      0.00000000</v>
   <i name="OFIELD_Q6_NEAR">      0.00000000</i>
   <i name="OFIELD_Q6_FAR">      0.00000000</i>
   <i name="OFIELD_A">      0.00000000</i>
  </separator>
 </parameters>
 <atominfo>
  <atoms>     325 </atoms>
  <types>       5 </types>
  <array name="atoms" >
   <dimension dim="1">ion</dimension>
   <field type="string">element</field>
   <field type="int">atomtype</field>
   <set>
    <rc><c>H </c><c>   1</c></rc>
    <rc><c>H </c><c>   1</c></rc>
    <rc><c>H </c><c>   1</c></rc>
    <rc><c>H </c><c>   1</c></rc>
    <rc><c>H </c><c>   1</c></rc>
    <rc><c>H </c><c>   1</c></rc>
    <rc><c>H </c><c>   1</c></rc>
    <rc><c>H </c><c>   1</c></rc>
    <rc><c>H </c><c>   1</c></rc>
    <rc><c>H </c><c>   1</c></rc>
    <rc><c>H </c><c>   1</c></rc>
    <rc><c>H </c><c>   1</c></rc>
    <rc><c>H </c><c>   1</c></rc>
    <rc><c>H </c><c>   1</c></rc>
    <rc><c>H </c><c>   1</c></rc>
    <rc><c>H </c><c>   1</c></rc>
    <rc><c>H </c><c>   1</c></rc>
    <rc><c>H </c><c>   1</c></rc>
    <rc><c>H </c><c>   1</c></rc>
    <rc><c>H </c><c>   1</c></rc>
    <rc><c>H </c><c>   1</c></rc>
    <rc><c>H </c><c>   1</c></rc>
    <rc><c>H </c><c>   1</c></rc>
    <rc><c>H </c><c>   1</c></rc>
    <rc><c>H </c><c>   1</c></rc>
    <rc><c>H </c><c>   1</c></rc>
    <rc><c>H </c><c>   1</c></rc>
    <rc><c>H </c><c>   1</c></rc>
    <rc><c>H </c><c>   1</c></rc>
    <rc><c>H </c><c>   1</c></rc>
    <rc><c>H </c><c>   1</c></rc>
    <rc><c>H </c><c>   1</c></rc>
    <rc><c>H </c><c>   1</c></rc>
    <rc><c>H </c><c>   1</c></rc>
    <rc><c>H </c><c>   1</c></rc>
    <rc><c>H </c><c>   1</c></rc>
    <rc><c>H </c><c>   1</c></rc>
    <rc><c>H </c><c>   1</c></rc>
    <rc><c>H </c><c>   1</c></rc>
    <rc><c>H </c><c>   1</c></rc>
    <rc><c>H </c><c>   1</c></rc>
    <rc><c>H </c><c>   1</c></rc>
    <rc><c>H </c><c>   1</c></rc>
    <rc><c>H </c><c>   1</c></rc>
    <rc><c>H </c><c>   1</c></rc>
    <rc><c>H </c><c>   1</c></rc>
    <rc><c>H </c><c>   1</c></rc>
    <rc><c>H </c><c>   1</c></rc>
    <rc><c>H </c><c>   1</c></rc>
    <rc><c>H </c><c>   1</c></rc>
    <rc><c>H </c><c>   1</c></rc>
    <rc><c>H </c><c>   1</c></rc>
    <rc><c>H </c><c>   1</c></rc>
    <rc><c>H </c><c>   1</c></rc>
    <rc><c>H </c><c>   1</c></rc>
    <rc><c>H </c><c>   1</c></rc>
    <rc><c>H </c><c>   1</c></rc>
    <rc><c>H </c><c>   1</c></rc>
    <rc><c>H </c><c>   1</c></rc>
    <rc><c>H </c><c>   1</c></rc>
    <rc><c>H </c><c>   1</c></rc>
    <rc><c>H </c><c>   1</c></rc>
    <rc><c>H </c><c>   1</c></rc>
    <rc><c>H </c><c>   1</c></rc>
    <rc><c>H </c><c>   1</c></rc>
    <rc><c>H </c><c>   1</c></rc>
    <rc><c>H </c><c>   1</c></rc>
    <rc><c>H </c><c>   1</c></rc>
    <rc><c>H </c><c>   1</c></rc>
    <rc><c>H </c><c>   1</c></rc>
    <rc><c>H </c><c>   1</c></rc>
    <rc><c>H </c><c>   1</c></rc>
    <rc><c>H </c><c>   1</c></rc>
    <rc><c>H </c><c>   1</c></rc>
    <rc><c>H </c><c>   1</c></rc>
    <rc><c>H </c><c>   1</c></rc>
    <rc><c>H </c><c>   1</c></rc>
    <rc><c>H </c><c>   1</c></rc>
    <rc><c>H </c><c>   1</c></rc>
    <rc><c>H </c><c>   1</c></rc>
    <rc><c>H </c><c>   1</c></rc>
    <rc><c>H </c><c>   1</c></rc>
    <rc><c>H </c><c>   1</c></rc>
    <rc><c>H </c><c>   1</c></rc>
    <rc><c>H </c><c>   1</c></rc>
    <rc><c>H </c><c>   1</c></rc>
    <rc><c>H </c><c>   1</c></rc>
    <rc><c>H </c><c>   1</c></rc>
    <rc><c>H </c><c>   1</c></rc>
    <rc><c>H </c><c>   1</c></rc>
    <rc><c>H </c><c>   1</c></rc>
    <rc><c>H </c><c>   1</c></rc>
    <rc><c>H </c><c>   1</c></rc>
    <rc><c>H </c><c>   1</c></rc>
    <rc><c>H </c><c>   1</c></rc>
    <rc><c>H </c><c>   1</c></rc>
    <rc><c>H </c><c>   1</c></rc>
    <rc><c>H </c><c>   1</c></rc>
    <rc><c>H </c><c>   1</c></rc>
    <rc><c>H </c><c>   1</c></rc>
    <rc><c>H </c><c>   1</c></rc>
    <rc><c>H </c><c>   1</c></rc>
    <rc><c>H </c><c>   1</c></rc>
    <rc><c>H </c><c>   1</c></rc>
    <rc><c>H </c><c>   1</c></rc>
    <rc><c>H </c><c>   1</c></rc>
    <rc><c>H </c><c>   1</c></rc>
    <rc><c>H </c><c>   1</c></rc>
    <rc><c>H </c><c>   1</c></rc>
    <rc><c>H </c><c>   1</c></rc>
    <rc><c>H </c><c>   1</c></rc>
    <rc><c>H </c><c>   1</c></rc>
    <rc><c>H </c><c>   1</c></rc>
    <rc><c>H </c><c>   1</c></rc>
    <rc><c>H </c><c>   1</c></rc>
    <rc><c>H </c><c>   1</c></rc>
    <rc><c>H </c><c>   1</c></rc>
    <rc><c>H </c><c>   1</c></rc>
    <rc><c>H </c><c>   1</c></rc>
    <rc><c>H </c><c>   1</c></rc>
    <rc><c>H </c><c>   1</c></rc>
    <rc><c>H </c><c>   1</c></rc>
    <rc><c>H </c><c>   1</c></rc>
    <rc><c>H </c><c>   1</c></rc>
    <rc><c>H </c><c>   1</c></rc>
    <rc><c>H </c><c>   1</c></rc>
    <rc><c>H </c><c>   1</c></rc>
    <rc><c>H </c><c>   1</c></rc>
    <rc><c>H </c><c>   1</c></rc>
    <rc><c>H </c><c>   1</c></rc>
    <rc><c>H </c><c>   1</c></rc>
    <rc><c>H </c><c>   1</c></rc>
    <rc><c>H </c><c>   1</c></rc>
    <rc><c>H </c><c>   1</c></rc>
    <rc><c>H </c><c>   1</c></rc>
    <rc><c>H </c><c>   1</c></rc>
    <rc><c>H </c><c>   1</c></rc>
    <rc><c>H </c><c>   1</c></rc>
    <rc><c>H </c><c>   1</c></rc>
    <rc><c>H </c><c>   1</c></rc>
    <rc><c>H </c><c>   1</c></rc>
    <rc><c>H </c><c>   1</c></rc>
    <rc><c>H </c><c>   1</c></rc>
    <rc><c>C </c><c>   2</c></rc>
    <rc><c>C </c><c>   2</c></rc>
    <rc><c>C </c><c>   2</c></rc>
    <rc><c>C </c><c>   2</c></rc>
    <rc><c>C </c><c>   2</c></rc>
    <rc><c>C </c><c>   2</c></rc>
    <rc><c>C </c><c>   2</c></rc>
    <rc><c>C </c><c>   2</c></rc>
    <rc><c>C </c><c>   2</c></rc>
    <rc><c>C </c><c>   2</c></rc>
    <rc><c>C </c><c>   2</c></rc>
    <rc><c>C </c><c>   2</c></rc>
    <rc><c>C </c><c>   2</c></rc>
    <rc><c>C </c><c>   2</c></rc>
    <rc><c>C </c><c>   2</c></rc>
    <rc><c>C </c><c>   2</c></rc>
    <rc><c>C </c><c>   2</c></rc>
    <rc><c>C </c><c>   2</c></rc>
    <rc><c>C </c><c>   2</c></rc>
    <rc><c>C </c><c>   2</c></rc>
    <rc><c>C </c><c>   2</c></rc>
    <rc><c>C </c><c>   2</c></rc>
    <rc><c>C </c><c>   2</c></rc>
    <rc><c>C </c><c>   2</c></rc>
    <rc><c>C </c><c>   2</c></rc>
    <rc><c>C </c><c>   2</c></rc>
    <rc><c>C </c><c>   2</c></rc>
    <rc><c>C </c><c>   2</c></rc>
    <rc><c>C </c><c>   2</c></rc>
    <rc><c>C </c><c>   2</c></rc>
    <rc><c>C </c><c>   2</c></rc>
    <rc><c>C </c><c>   2</c></rc>
    <rc><c>C </c><c>   2</c></rc>
    <rc><c>C </c><c>   2</c></rc>
    <rc><c>C </c><c>   2</c></rc>
    <rc><c>C </c><c>   2</c></rc>
    <rc><c>C </c><c>   2</c></rc>
    <rc><c>C </c><c>   2</c></rc>
    <rc><c>C </c><c>   2</c></rc>
    <rc><c>N </c><c>   3</c></rc>
    <rc><c>N </c><c>   3</c></rc>
    <rc><c>N </c><c>   3</c></rc>
    <rc><c>N </c><c>   3</c></rc>
    <rc><c>N </c><c>   3</c></rc>
    <rc><c>N </c><c>   3</c></rc>
    <rc><c>N </c><c>   3</c></rc>
    <rc><c>N </c><c>   3</c></rc>
    <rc><c>N </c><c>   3</c></rc>
    <rc><c>N </c><c>   3</c></rc>
    <rc><c>N </c><c>   3</c></rc>
    <rc><c>N </c><c>   3</c></rc>
    <rc><c>N </c><c>   3</c></rc>
    <rc><c>N </c><c>   3</c></rc>
    <rc><c>N </c><c>   3</c></rc>
    <rc><c>N </c><c>   3</c></rc>
    <rc><c>N </c><c>   3</c></rc>
    <rc><c>N </c><c>   3</c></rc>
    <rc><c>N </c><c>   3</c></rc>
    <rc><c>N </c><c>   3</c></rc>
    <rc><c>N </c><c>   3</c></rc>
    <rc><c>N </c><c>   3</c></rc>
    <rc><c>N </c><c>   3</c></rc>
    <rc><c>N </c><c>   3</c></rc>
    <rc><c>N </c><c>   3</c></rc>
    <rc><c>N </c><c>   3</c></rc>
    <rc><c>N </c><c>   3</c></rc>
    <rc><c>N </c><c>   3</c></rc>
    <rc><c>N </c><c>   3</c></rc>
    <rc><c>N </c><c>   3</c></rc>
    <rc><c>N </c><c>   3</c></rc>
    <rc><c>N </c><c>   3</c></rc>
    <rc><c>N </c><c>   3</c></rc>
    <rc><c>N </c><c>   3</c></rc>
    <rc><c>N </c><c>   3</c></rc>
    <rc><c>N </c><c>   3</c></rc>
    <rc><c>N </c><c>   3</c></rc>
    <rc><c>N </c><c>   3</c></rc>
    <rc><c>N </c><c>   3</c></rc>
    <rc><c>N </c><c>   3</c></rc>
    <rc><c>N </c><c>   3</c></rc>
    <rc><c>N </c><c>   3</c></rc>
    <rc><c>N </c><c>   3</c></rc>
    <rc><c>N </c><c>   3</c></rc>
    <rc><c>N </c><c>   3</c></rc>
    <rc><c>N </c><c>   3</c></rc>
    <rc><c>N </c><c>   3</c></rc>
    <rc><c>I </c><c>   4</c></rc>
    <rc><c>I </c><c>   4</c></rc>
    <rc><c>I </c><c>   4</c></rc>
    <rc><c>I </c><c>   4</c></rc>
    <rc><c>I </c><c>   4</c></rc>
    <rc><c>I </c><c>   4</c></rc>
    <rc><c>I </c><c>   4</c></rc>
    <rc><c>I </c><c>   4</c></rc>
    <rc><c>I </c><c>   4</c></rc>
    <rc><c>I </c><c>   4</c></rc>
    <rc><c>I </c><c>   4</c></rc>
    <rc><c>I </c><c>   4</c></rc>
    <rc><c>I </c><c>   4</c></rc>
    <rc><c>I </c><c>   4</c></rc>
    <rc><c>I </c><c>   4</c></rc>
    <rc><c>I </c><c>   4</c></rc>
    <rc><c>I </c><c>   4</c></rc>
    <rc><c>I </c><c>   4</c></rc>
    <rc><c>I </c><c>   4</c></rc>
    <rc><c>I </c><c>   4</c></rc>
    <rc><c>I </c><c>   4</c></rc>
    <rc><c>I </c><c>   4</c></rc>
    <rc><c>I </c><c>   4</c></rc>
    <rc><c>I </c><c>   4</c></rc>
    <rc><c>I </c><c>   4</c></rc>
    <rc><c>I </c><c>   4</c></rc>
    <rc><c>I </c><c>   4</c></rc>
    <rc><c>I </c><c>   4</c></rc>
    <rc><c>I </c><c>   4</c></rc>
    <rc><c>I </c><c>   4</c></rc>
    <rc><c>I </c><c>   4</c></rc>
    <rc><c>I </c><c>   4</c></rc>
    <rc><c>I </c><c>   4</c></rc>
    <rc><c>I </c><c>   4</c></rc>
    <rc><c>I </c><c>   4</c></rc>
    <rc><c>I </c><c>   4</c></rc>
    <rc><c>I </c><c>   4</c></rc>
    <rc><c>I </c><c>   4</c></rc>
    <rc><c>I </c><c>   4</c></rc>
    <rc><c>I </c><c>   4</c></rc>
    <rc><c>I </c><c>   4</c></rc>
    <rc><c>I </c><c>   4</c></rc>
    <rc><c>I </c><c>   4</c></rc>
    <rc><c>I </c><c>   4</c></rc>
    <rc><c>I </c><c>   4</c></rc>
    <rc><c>I </c><c>   4</c></rc>
    <rc><c>I </c><c>   4</c></rc>
    <rc><c>I </c><c>   4</c></rc>
    <rc><c>I </c><c>   4</c></rc>
    <rc><c>I </c><c>   4</c></rc>
    <rc><c>I </c><c>   4</c></rc>
    <rc><c>I </c><c>   4</c></rc>
    <rc><c>I </c><c>   4</c></rc>
    <rc><c>I </c><c>   4</c></rc>
    <rc><c>I </c><c>   4</c></rc>
    <rc><c>I </c><c>   4</c></rc>
    <rc><c>I </c><c>   4</c></rc>
    <rc><c>I </c><c>   4</c></rc>
    <rc><c>I </c><c>   4</c></rc>
    <rc><c>I </c><c>   4</c></rc>
    <rc><c>I </c><c>   4</c></rc>
    <rc><c>I </c><c>   4</c></rc>
    <rc><c>I </c><c>   4</c></rc>
    <rc><c>I </c><c>   4</c></rc>
    <rc><c>I </c><c>   4</c></rc>
    <rc><c>I </c><c>   4</c></rc>
    <rc><c>I </c><c>   4</c></rc>
    <rc><c>I </c><c>   4</c></rc>
    <rc><c>I </c><c>   4</c></rc>
    <rc><c>I </c><c>   4</c></rc>
    <rc><c>I </c><c>   4</c></rc>
    <rc><c>I </c><c>   4</c></rc>
    <rc><c>Pb</c><c>   5</c></rc>
    <rc><c>Pb</c><c>   5</c></rc>
    <rc><c>Pb</c><c>   5</c></rc>
    <rc><c>Pb</c><c>   5</c></rc>
    <rc><c>Pb</c><c>   5</c></rc>
    <rc><c>Pb</c><c>   5</c></rc>
    <rc><c>Pb</c><c>   5</c></rc>
    <rc><c>Pb</c><c>   5</c></rc>
    <rc><c>Pb</c><c>   5</c></rc>
    <rc><c>Pb</c><c>   5</c></rc>
    <rc><c>Pb</c><c>   5</c></rc>
    <rc><c>Pb</c><c>   5</c></rc>
    <rc><c>Pb</c><c>   5</c></rc>
    <rc><c>Pb</c><c>   5</c></rc>
    <rc><c>Pb</c><c>   5</c></rc>
    <rc><c>Pb</c><c>   5</c></rc>
    <rc><c>Pb</c><c>   5</c></rc>
    <rc><c>Pb</c><c>   5</c></rc>
    <rc><c>Pb</c><c>   5</c></rc>
    <rc><c>Pb</c><c>   5</c></rc>
    <rc><c>Pb</c><c>   5</c></rc>
    <rc><c>Pb</c><c>   5</c></rc>
    <rc><c>Pb</c><c>   5</c></rc>
    <rc><c>Pb</c><c>   5</c></rc>
   </set>
  </array>
  <array name="atomtypes" >
   <dimension dim="1">type</dimension>
   <field type="int">atomspertype</field>
   <field type="string">element</field>
   <field>mass</field>
   <field>valence</field>
   <field type="string">pseudopotential</field>
   <set>
    <rc><c> 143</c><c>H </c><c>      1.00000000</c><c>      1.00000000</c><c>  PAW_PBE H 15Jun2001                   </c></rc>
    <rc><c>  39</c><c>C </c><c>     12.01100000</c><c>      4.00000000</c><c>  PAW_PBE C 08Apr2002                   </c></rc>
    <rc><c>  47</c><c>N </c><c>     14.00100000</c><c>      5.00000000</c><c>  PAW_PBE N 08Apr2002                   </c></rc>
    <rc><c>  72</c><c>I </c><c>    126.90400000</c><c>      7.00000000</c><c>  PAW_PBE I 08Apr2002                   </c></rc>
    <rc><c>  24</c><c>Pb</c><c>    207.20000000</c><c>      4.00000000</c><c>  PAW_PBE Pb 08Apr2002                  </c></rc>
   </set>
  </array>
 </atominfo>
 <structure name="initialpos" >
  <crystal>
   <varray name="basis" >
    <v>      18.06080055       0.00000000       0.00000000 </v>
    <v>      -0.00491865      18.06279945       0.00000000 </v>
    <v>       0.00000000       0.00000000      62.48749924 </v>
   </varray>
   <i name="volume">  20385.21054034 </i>
   <varray name="rec_basis" >
    <v>       0.05536853       0.00001508      -0.00000000 </v>
    <v>       0.00000000       0.05536240       0.00000000 </v>
    <v>       0.00000000      -0.00000000       0.01600320 </v>
   </varray>
  </crystal>
  <varray name="positions" >
   <v>       0.43870822       0.31464239       0.57239659 </v>
   <v>       0.42510883       0.83388903       0.57193355 </v>
   <v>       0.97761678       0.31989172       0.58151481 </v>
   <v>       0.96016835       0.81110967       0.58009393 </v>
   <v>       0.31391840       0.95470314       0.57481150 </v>
   <v>       0.33001734       0.56297150       0.57365423 </v>
   <v>       0.79536533       0.07420804       0.57942864 </v>
   <v>       0.02874056       0.13691388       0.56201890 </v>
   <v>       0.06043274       0.64423424       0.56409476 </v>
   <v>       0.57057883       0.18002225       0.55252525 </v>
   <v>       0.52423277       0.66059335       0.56419591 </v>
   <v>       0.35683554       0.01918314       0.55801371 </v>
   <v>       0.28069523       0.62577268       0.55737161 </v>
   <v>       0.86871885       0.03269677       0.56527535 </v>
   <v>       0.99592571       0.18508775       0.58485477 </v>
   <v>       0.00817324       0.68324551       0.58469690 </v>
   <v>       0.56092073       0.25559869       0.56973657 </v>
   <v>       0.45369093       0.69707054       0.57859497 </v>
   <v>       0.28145440       0.43418294       0.57592733 </v>
   <v>       0.17780526       0.93877937       0.57189203 </v>
   <v>       0.67441667       0.01786042       0.57635588 </v>
   <v>       0.36582188       0.27239758       0.55833860 </v>
   <v>       0.48648968       0.88061822       0.55493124 </v>
   <v>       0.01913373       0.36159124       0.55933709 </v>
   <v>       0.99141823       0.85881314       0.55783820 </v>
   <v>       0.19675316       0.41873795       0.56275965 </v>
   <v>       0.13237120       0.99834380       0.55422487 </v>
   <v>       0.67034471       0.93270766       0.56188564 </v>
   <v>       0.44405560       0.18209286       0.54313409 </v>
   <v>       0.55685851       0.77368254       0.54813179 </v>
   <v>       0.04728392       0.24831728       0.54293208 </v>
   <v>       0.05674745       0.75581564       0.54408148 </v>
   <v>       0.19069792       0.53722866       0.54834777 </v>
   <v>       0.24134193       0.05668221       0.54300985 </v>
   <v>       0.79293010       0.93563924       0.55260833 </v>
   <v>       0.47230958       0.32525729       0.67167774 </v>
   <v>       0.43397914       0.81625233       0.67228711 </v>
   <v>       0.96970907       0.27780118       0.68111798 </v>
   <v>       0.91765596       0.76334005       0.67252520 </v>
   <v>       0.30328928       0.05426446       0.67322553 </v>
   <v>       0.30424170       0.54673938       0.67524486 </v>
   <v>       0.79111186       0.06570951       0.67469476 </v>
   <v>       0.78480248       0.59312110       0.66727097 </v>
   <v>       0.08594020       0.16574089       0.64506585 </v>
   <v>       0.10005734       0.69833373       0.65468087 </v>
   <v>       0.58227082       0.17059021       0.65146667 </v>
   <v>       0.57015239       0.67830930       0.65563278 </v>
   <v>       0.18295208       0.41012139       0.64962786 </v>
   <v>       0.17077867       0.92225451       0.65034767 </v>
   <v>       0.70686721       0.40706329       0.66111300 </v>
   <v>       0.67522523       0.91870142       0.65201237 </v>
   <v>       0.06808620       0.17798330       0.67259638 </v>
   <v>       0.03487311       0.68157405       0.67485782 </v>
   <v>       0.58922996       0.24680101       0.66890448 </v>
   <v>       0.53016954       0.71263499       0.67874135 </v>
   <v>       0.21043275       0.43845572       0.67514969 </v>
   <v>       0.19889318       0.95551165       0.67513534 </v>
   <v>       0.69286741       0.48849596       0.67565382 </v>
   <v>       0.69219479       0.96303446       0.67638181 </v>
   <v>       0.39691829       0.29364253       0.65660087 </v>
   <v>       0.42053583       0.83901848       0.64518477 </v>
   <v>       0.93373558       0.32161710       0.65886915 </v>
   <v>       0.91557314       0.82480656       0.65118548 </v>
   <v>       0.33144295       0.07496070       0.64715269 </v>
   <v>       0.32566162       0.58059807       0.64991649 </v>
   <v>       0.83067459       0.07769468       0.64926402 </v>
   <v>       0.84266080       0.57761373       0.64534569 </v>
   <v>       0.00317828       0.25539162       0.63469885 </v>
   <v>       0.03042809       0.78717431       0.63792923 </v>
   <v>       0.45996792       0.19555315       0.64185323 </v>
   <v>       0.50547917       0.75426561       0.63282665 </v>
   <v>       0.25158392       0.99466250       0.63102001 </v>
   <v>       0.25332829       0.49839653       0.63198657 </v>
   <v>       0.76043417       0.98509547       0.63339341 </v>
   <v>       0.80061419       0.45646655       0.64016448 </v>
   <v>       0.44874502       0.30128397       0.76888902 </v>
   <v>       0.44874501       0.80128391       0.76888902 </v>
   <v>       0.94874497       0.30128397       0.76888902 </v>
   <v>       0.94874501       0.80128391       0.76888902 </v>
   <v>       0.30127600       0.05129450       0.76887296 </v>
   <v>       0.30127601       0.55129450       0.76887296 </v>
   <v>       0.80127594       0.05129450       0.76887296 </v>
   <v>       0.80127598       0.55129450       0.76887296 </v>
   <v>       0.07877100       0.17118050       0.74344197 </v>
   <v>       0.07877101       0.67118045       0.74344197 </v>
   <v>       0.57877100       0.17118050       0.74344197 </v>
   <v>       0.57877099       0.67118045       0.74344197 </v>
   <v>       0.17119950       0.42117448       0.74342103 </v>
   <v>       0.17119950       0.92117451       0.74342103 </v>
   <v>       0.67119951       0.42117448       0.74342103 </v>
   <v>       0.67119950       0.92117451       0.74342103 </v>
   <v>       0.05125600       0.19871499       0.76888902 </v>
   <v>       0.05125600       0.69871493       0.76888902 </v>
   <v>       0.55125603       0.19871499       0.76888902 </v>
   <v>       0.55125602       0.69871493       0.76888902 </v>
   <v>       0.19872349       0.44870397       0.76887205 </v>
   <v>       0.19872349       0.94870397       0.76887205 </v>
   <v>       0.69872352       0.44870397       0.76887205 </v>
   <v>       0.69872351       0.94870397       0.76887205 </v>
   <v>       0.42123152       0.32881747       0.74344197 </v>
   <v>       0.42123151       0.82881744       0.74344197 </v>
   <v>       0.92123147       0.32881747       0.74344197 </v>
   <v>       0.92123151       0.82881744       0.74344197 </v>
   <v>       0.32880050       0.07882500       0.74342103 </v>
   <v>       0.32880049       0.57882496       0.74342103 </v>
   <v>       0.82880048       0.07882500       0.74342103 </v>
   <v>       0.82880052       0.57882496       0.74342103 </v>
   <v>       0.00000350       0.25000148       0.72582199 </v>
   <v>       0.00000350       0.75000145       0.72582199 </v>
   <v>       0.50000351       0.25000148       0.72582199 </v>
   <v>       0.50000350       0.75000145       0.72582199 </v>
   <v>       0.25000050       0.00000000       0.72580398 </v>
   <v>       0.25000052       0.50000000       0.72580398 </v>
   <v>       0.75000050       0.00000000       0.72580398 </v>
   <v>       0.75000049       0.50000000       0.72580398 </v>
   <v>       0.77572025       0.55503886       0.52062159 </v>
   <v>       0.72014148       0.47604199       0.52682473 </v>
   <v>       0.87404673       0.50094159       0.54258661 </v>
   <v>       0.85615069       0.47722043       0.56954684 </v>
   <v>       0.74246135       0.64111205       0.55999860 </v>
   <v>       0.80235511       0.59580069       0.57818571 </v>
   <v>       0.66837812       0.54763314       0.57080002 </v>
   <v>       0.67791035       0.45445654       0.56151746 </v>
   <v>       0.61360234       0.55102909       0.53787260 </v>
   <v>       0.66885700       0.63275248       0.53719332 </v>
   <v>       0.60571130       0.64632239       0.50588793 </v>
   <v>       0.68662278       0.60222813       0.49640300 </v>
   <v>       0.80899744       0.38879267       0.52963407 </v>
   <v>       0.76940104       0.37241274       0.55550472 </v>
   <v>       0.86583929       0.36183266       0.55206287 </v>
   <v>       0.86425752       0.69207218       0.55700667 </v>
   <v>       0.84744221       0.64659678       0.53270408 </v>
   <v>       0.90838049       0.60580607       0.55218149 </v>
   <v>       0.75449277       0.52370865       0.60041434 </v>
   <v>       0.77624181       0.43412491       0.59020515 </v>
   <v>       0.68712553       0.45294447       0.59985643 </v>
   <v>       0.53453245       0.52986296       0.50478746 </v>
   <v>       0.57680877       0.54848318       0.47974351 </v>
   <v>       0.69159772       0.47618507       0.46894875 </v>
   <v>       0.56113486       0.41868357       0.52391161 </v>
   <v>       0.76030157       0.35789512       0.47202330 </v>
   <v>       0.62935434       0.29999061       0.52708650 </v>
   <v>       0.72934870       0.26982921       0.50155881 </v>
   <v>       0.02190075       0.24915225       0.55878516 </v>
   <v>       0.02700372       0.75184921       0.55939289 </v>
   <v>       0.46684892       0.22467587       0.55392390 </v>
   <v>       0.50797541       0.77037651       0.55843811 </v>
   <v>       0.23734553       0.52206295       0.55872943 </v>
   <v>       0.24402986       0.01246389       0.55502623 </v>
   <v>       0.76997386       0.98001209       0.56259318 </v>
   <v>       0.00975220       0.24367204       0.65149884 </v>
   <v>       0.00838325       0.76173611       0.65238158 </v>
   <v>       0.48893275       0.23208632       0.65323307 </v>
   <v>       0.49572440       0.75832490       0.65014871 </v>
   <v>       0.25408702       0.49518031       0.64941248 </v>
   <v>       0.25117232       0.99883161       0.64835508 </v>
   <v>       0.77487476       0.49147011       0.65253658 </v>
   <v>       0.75333392       0.99779814       0.65029871 </v>
   <v>       0.49998898       0.24999498       0.74327702 </v>
   <v>       0.49998903       0.74999496       0.74327702 </v>
   <v>       0.99998898       0.24999498       0.74327702 </v>
   <v>       0.99998903       0.74999496       0.74327702 </v>
   <v>       0.25000050       0.00000100       0.74325596 </v>
   <v>       0.25000052       0.50000100       0.74325596 </v>
   <v>       0.75000050       0.00000100       0.74325596 </v>
   <v>       0.75000049       0.50000100       0.74325596 </v>
   <v>       0.62248096       0.45590246       0.49640849 </v>
   <v>       0.67836018       0.43815861       0.48181194 </v>
   <v>       0.60429564       0.40534623       0.51241621 </v>
   <v>       0.71692933       0.37132527       0.48336072 </v>
   <v>       0.64281165       0.33880389       0.51430007 </v>
   <v>       0.69935045       0.32149538       0.49993343 </v>
   <v>       0.73245229       0.53296678       0.53124993 </v>
   <v>       0.83309068       0.47618660       0.55328815 </v>
   <v>       0.79024781       0.60327521       0.56114819 </v>
   <v>       0.70593780       0.50064413       0.56946162 </v>
   <v>       0.66006374       0.57886541       0.52961423 </v>
   <v>       0.63658104       0.59261879       0.50614918 </v>
   <v>       0.81802314       0.39553011       0.54697189 </v>
   <v>       0.85655286       0.63702963       0.54983953 </v>
   <v>       0.73381446       0.47690676       0.59114521 </v>
   <v>       0.58741933       0.53142857       0.49618585 </v>
   <v>       0.01546713       0.18543993       0.56937963 </v>
   <v>       0.03418328       0.68968045       0.57010872 </v>
   <v>       0.53801529       0.22109002       0.55834941 </v>
   <v>       0.49433975       0.70663057       0.56761127 </v>
   <v>       0.42208653       0.27653256       0.56117114 </v>
   <v>       0.46912116       0.83078621       0.56111559 </v>
   <v>       0.00075534       0.31346886       0.56654197 </v>
   <v>       0.98668860       0.80873050       0.56546826 </v>
   <v>       0.23961037       0.45357472       0.56603936 </v>
   <v>       0.18163200       0.97921847       0.56019164 </v>
   <v>       0.69787516       0.97865929       0.56629204 </v>
   <v>       0.30928244       0.99653479       0.56348081 </v>
   <v>       0.28616768       0.57382085       0.56345230 </v>
   <v>       0.81440737       0.03105802       0.57015383 </v>
   <v>       0.05705323       0.19257004       0.65704603 </v>
   <v>       0.04972926       0.71031606       0.66125219 </v>
   <v>       0.55769723       0.21601766       0.65835232 </v>
   <v>       0.53438271       0.71369105       0.66257894 </v>
   <v>       0.21402059       0.44484889       0.65885608 </v>
   <v>       0.20356039       0.95627405       0.65867630 </v>
   <v>       0.72123447       0.46093604       0.66383462 </v>
   <v>       0.70365719       0.95709191       0.66030462 </v>
   <v>       0.45142157       0.28846677       0.66086411 </v>
   <v>       0.44696482       0.80740987       0.65659196 </v>
   <v>       0.96845947       0.28311446       0.66493359 </v>
   <v>       0.94360819       0.78454947       0.65923879 </v>
   <v>       0.29785057       0.04526989       0.65705464 </v>
   <v>       0.29746918       0.54408846       0.65888087 </v>
   <v>       0.79380214       0.05036435       0.65888740 </v>
   <v>       0.80080832       0.55796327       0.65520734 </v>
   <v>       0.04586250       0.20411950       0.75272599 </v>
   <v>       0.04586250       0.70411946       0.75272599 </v>
   <v>       0.54586251       0.20411950       0.75272599 </v>
   <v>       0.54586250       0.70411946       0.75272599 </v>
   <v>       0.20411900       0.45410100       0.75270499 </v>
   <v>       0.20411899       0.95410095       0.75270499 </v>
   <v>       0.70411898       0.45410100       0.75270499 </v>
   <v>       0.70411896       0.95410095       0.75270499 </v>
   <v>       0.45414002       0.29588849       0.75272697 </v>
   <v>       0.45414001       0.79588852       0.75272697 </v>
   <v>       0.95414002       0.29588849       0.75272697 </v>
[...]
   <v>       0.57057883       0.18002225       0.55252525 </v>
   <v>       0.52423277       0.66059335       0.56419591 </v>
   <v>       0.35683554       0.01918314       0.55801371 </v>
   <v>       0.28069523       0.62577268       0.55737161 </v>
   <v>       0.86871885       0.03269677       0.56527535 </v>
   <v>       0.99592571       0.18508775       0.58485477 </v>
   <v>       0.00817324       0.68324551       0.58469690 </v>
   <v>       0.56092073       0.25559869       0.56973657 </v>
   <v>       0.45369093       0.69707054       0.57859497 </v>
   <v>       0.28145440       0.43418294       0.57592733 </v>
   <v>       0.17780526       0.93877937       0.57189203 </v>
   <v>       0.67441667       0.01786042       0.57635588 </v>
   <v>       0.36582188       0.27239758       0.55833860 </v>
   <v>       0.48648968       0.88061822       0.55493124 </v>
   <v>       0.01913373       0.36159124       0.55933709 </v>
   <v>       0.99141823       0.85881314       0.55783820 </v>
   <v>       0.19675316       0.41873795       0.56275965 </v>
   <v>       0.13237120       0.99834380       0.55422487 </v>
   <v>       0.67034471       0.93270766       0.56188564 </v>
   <v>       0.44405560       0.18209286       0.54313409 </v>
   <v>       0.55685851       0.77368254       0.54813179 </v>
   <v>       0.04728392       0.24831728       0.54293208 </v>
   <v>       0.05674745       0.75581564       0.54408148 </v>
   <v>       0.19069792       0.53722866       0.54834777 </v>
   <v>       0.24134193       0.05668221       0.54300985 </v>
   <v>       0.79293010       0.93563924       0.55260833 </v>
   <v>       0.47230958       0.32525729       0.67167774 </v>
   <v>       0.43397914       0.81625233       0.67228711 </v>
   <v>       0.96970907       0.27780118       0.68111798 </v>
   <v>       0.91765596       0.76334005       0.67252520 </v>
   <v>       0.30328928       0.05426446       0.67322553 </v>
   <v>       0.30424170       0.54673938       0.67524486 </v>
   <v>       0.79111186       0.06570951       0.67469476 </v>
   <v>       0.78480248       0.59312110       0.66727097 </v>
   <v>       0.08594020       0.16574089       0.64506585 </v>
   <v>       0.10005734       0.69833373       0.65468087 </v>
   <v>       0.58227082       0.17059021       0.65146667 </v>
   <v>       0.57015239       0.67830930       0.65563278 </v>
   <v>       0.18295208       0.41012139       0.64962786 </v>
   <v>       0.17077867       0.92225451       0.65034767 </v>
   <v>       0.70686721       0.40706329       0.66111300 </v>
   <v>       0.67522523       0.91870142       0.65201237 </v>
   <v>       0.06808620       0.17798330       0.67259638 </v>
   <v>       0.03487311       0.68157405       0.67485782 </v>
   <v>       0.58922996       0.24680101       0.66890448 </v>
   <v>       0.53016954       0.71263499       0.67874135 </v>
   <v>       0.21043275       0.43845572       0.67514969 </v>
   <v>       0.19889318       0.95551165       0.67513534 </v>
   <v>       0.69286741       0.48849596       0.67565382 </v>
   <v>       0.69219479       0.96303446       0.67638181 </v>
   <v>       0.39691829       0.29364253       0.65660087 </v>
   <v>       0.42053583       0.83901848       0.64518477 </v>
   <v>       0.93373558       0.32161710       0.65886915 </v>
   <v>       0.91557314       0.82480656       0.65118548 </v>
   <v>       0.33144295       0.07496070       0.64715269 </v>
   <v>       0.32566162       0.58059807       0.64991649 </v>
   <v>       0.83067459       0.07769468       0.64926402 </v>
   <v>       0.84266080       0.57761373       0.64534569 </v>
   <v>       0.00317828       0.25539162       0.63469885 </v>
   <v>       0.03042809       0.78717431       0.63792923 </v>
   <v>       0.45996792       0.19555315       0.64185323 </v>
   <v>       0.50547917       0.75426561       0.63282665 </v>
   <v>       0.25158392       0.99466250       0.63102001 </v>
   <v>       0.25332829       0.49839653       0.63198657 </v>
   <v>       0.76043417       0.98509547       0.63339341 </v>
   <v>       0.80061419       0.45646655       0.64016448 </v>
   <v>       0.44874502       0.30128397       0.76888902 </v>
   <v>       0.44874501       0.80128391       0.76888902 </v>
   <v>       0.94874497       0.30128397       0.76888902 </v>
   <v>       0.94874501       0.80128391       0.76888902 </v>
   <v>       0.30127600       0.05129450       0.76887296 </v>
   <v>       0.30127601       0.55129450       0.76887296 </v>
   <v>       0.80127594       0.05129450       0.76887296 </v>
   <v>       0.80127598       0.55129450       0.76887296 </v>
   <v>       0.07877100       0.17118050       0.74344197 </v>
   <v>       0.07877101       0.67118045       0.74344197 </v>
   <v>       0.57877100       0.17118050       0.74344197 </v>
   <v>       0.57877099       0.67118045       0.74344197 </v>
   <v>       0.17119950       0.42117448       0.74342103 </v>
   <v>       0.17119950       0.92117451       0.74342103 </v>
   <v>       0.67119951       0.42117448       0.74342103 </v>
   <v>       0.67119950       0.92117451       0.74342103 </v>
   <v>       0.05125600       0.19871499       0.76888902 </v>
   <v>       0.05125600       0.69871493       0.76888902 </v>
   <v>       0.55125603       0.19871499       0.76888902 </v>
   <v>       0.55125602       0.69871493       0.76888902 </v>
   <v>       0.19872349       0.44870397       0.76887205 </v>
   <v>       0.19872349       0.94870397       0.76887205 </v>
   <v>       0.69872352       0.44870397       0.76887205 </v>
   <v>       0.69872351       0.94870397       0.76887205 </v>
   <v>       0.42123152       0.32881747       0.74344197 </v>
   <v>       0.42123151       0.82881744       0.74344197 </v>
   <v>       0.92123147       0.32881747       0.74344197 </v>
   <v>       0.92123151       0.82881744       0.74344197 </v>
   <v>       0.32880050       0.07882500       0.74342103 </v>
   <v>       0.32880049       0.57882496       0.74342103 </v>
   <v>       0.82880048       0.07882500       0.74342103 </v>
   <v>       0.82880052       0.57882496       0.74342103 </v>
   <v>       0.00000350       0.25000148       0.72582199 </v>
   <v>       0.00000350       0.75000145       0.72582199 </v>
   <v>       0.50000351       0.25000148       0.72582199 </v>
   <v>       0.50000350       0.75000145       0.72582199 </v>
   <v>       0.25000050       0.00000000       0.72580398 </v>
   <v>       0.25000052       0.50000000       0.72580398 </v>
   <v>       0.75000050       0.00000000       0.72580398 </v>
   <v>       0.75000049       0.50000000       0.72580398 </v>
   <v>       0.77572025       0.55503886       0.52062159 </v>
   <v>       0.72014148       0.47604199       0.52682473 </v>
   <v>       0.87404673       0.50094159       0.54258661 </v>
   <v>       0.85615069       0.47722043       0.56954684 </v>
   <v>       0.74246135       0.64111205       0.55999860 </v>
   <v>       0.80235511       0.59580069       0.57818571 </v>
   <v>       0.66837812       0.54763314       0.57080002 </v>
   <v>       0.67791035       0.45445654       0.56151746 </v>
   <v>       0.61360234       0.55102909       0.53787260 </v>
   <v>       0.66885700       0.63275248       0.53719332 </v>
   <v>       0.60571130       0.64632239       0.50588793 </v>
   <v>       0.68662278       0.60222813       0.49640300 </v>
   <v>       0.80899744       0.38879267       0.52963407 </v>
   <v>       0.76940104       0.37241274       0.55550472 </v>
   <v>       0.86583929       0.36183266       0.55206287 </v>
   <v>       0.86425752       0.69207218       0.55700667 </v>
   <v>       0.84744221       0.64659678       0.53270408 </v>
   <v>       0.90838049       0.60580607       0.55218149 </v>
   <v>       0.75449277       0.52370865       0.60041434 </v>
   <v>       0.77624181       0.43412491       0.59020515 </v>
   <v>       0.68712553       0.45294447       0.59985643 </v>
   <v>       0.53453245       0.52986296       0.50478746 </v>
   <v>       0.57680877       0.54848318       0.47974351 </v>
   <v>       0.69159772       0.47618507       0.46894875 </v>
   <v>       0.56113486       0.41868357       0.52391161 </v>
   <v>       0.76030157       0.35789512       0.47202330 </v>
   <v>       0.62935434       0.29999061       0.52708650 </v>
   <v>       0.72934870       0.26982921       0.50155881 </v>
   <v>       0.02190075       0.24915225       0.55878516 </v>
   <v>       0.02700372       0.75184921       0.55939289 </v>
   <v>       0.46684892       0.22467587       0.55392390 </v>
   <v>       0.50797541       0.77037651       0.55843811 </v>
   <v>       0.23734553       0.52206295       0.55872943 </v>
   <v>       0.24402986       0.01246389       0.55502623 </v>
   <v>       0.76997386       0.98001209       0.56259318 </v>
   <v>       0.00975220       0.24367204       0.65149884 </v>
   <v>       0.00838325       0.76173611       0.65238158 </v>
   <v>       0.48893275       0.23208632       0.65323307 </v>
   <v>       0.49572440       0.75832490       0.65014871 </v>
   <v>       0.25408702       0.49518031       0.64941248 </v>
   <v>       0.25117232       0.99883161       0.64835508 </v>
   <v>       0.77487476       0.49147011       0.65253658 </v>
   <v>       0.75333392       0.99779814       0.65029871 </v>
   <v>       0.49998898       0.24999498       0.74327702 </v>
   <v>       0.49998903       0.74999496       0.74327702 </v>
   <v>       0.99998898       0.24999498       0.74327702 </v>
   <v>       0.99998903       0.74999496       0.74327702 </v>
   <v>       0.25000050       0.00000100       0.74325596 </v>
   <v>       0.25000052       0.50000100       0.74325596 </v>
   <v>       0.75000050       0.00000100       0.74325596 </v>
   <v>       0.75000049       0.50000100       0.74325596 </v>
   <v>       0.62248096       0.45590246       0.49640849 </v>
   <v>       0.67836018       0.43815861       0.48181194 </v>
   <v>       0.60429564       0.40534623       0.51241621 </v>
   <v>       0.71692933       0.37132527       0.48336072 </v>
   <v>       0.64281165       0.33880389       0.51430007 </v>
   <v>       0.69935045       0.32149538       0.49993343 </v>
   <v>       0.73245229       0.53296678       0.53124993 </v>
   <v>       0.83309068       0.47618660       0.55328815 </v>
   <v>       0.79024781       0.60327521       0.56114819 </v>
   <v>       0.70593780       0.50064413       0.56946162 </v>
   <v>       0.66006374       0.57886541       0.52961423 </v>
   <v>       0.63658104       0.59261879       0.50614918 </v>
   <v>       0.81802314       0.39553011       0.54697189 </v>
   <v>       0.85655286       0.63702963       0.54983953 </v>
   <v>       0.73381446       0.47690676       0.59114521 </v>
   <v>       0.58741933       0.53142857       0.49618585 </v>
   <v>       0.01546713       0.18543993       0.56937963 </v>
   <v>       0.03418328       0.68968045       0.57010872 </v>
   <v>       0.53801529       0.22109002       0.55834941 </v>
   <v>       0.49433975       0.70663057       0.56761127 </v>
   <v>       0.42208653       0.27653256       0.56117114 </v>
   <v>       0.46912116       0.83078621       0.56111559 </v>
   <v>       0.00075534       0.31346886       0.56654197 </v>
   <v>       0.98668860       0.80873050       0.56546826 </v>
   <v>       0.23961037       0.45357472       0.56603936 </v>
   <v>       0.18163200       0.97921847       0.56019164 </v>
   <v>       0.69787516       0.97865929       0.56629204 </v>
   <v>       0.30928244       0.99653479       0.56348081 </v>
   <v>       0.28616768       0.57382085       0.56345230 </v>
   <v>       0.81440737       0.03105802       0.57015383 </v>
   <v>       0.05705323       0.19257004       0.65704603 </v>
   <v>       0.04972926       0.71031606       0.66125219 </v>
   <v>       0.55769723       0.21601766       0.65835232 </v>
   <v>       0.53438271       0.71369105       0.66257894 </v>
   <v>       0.21402059       0.44484889       0.65885608 </v>
   <v>       0.20356039       0.95627405       0.65867630 </v>
   <v>       0.72123447       0.46093604       0.66383462 </v>
   <v>       0.70365719       0.95709191       0.66030462 </v>
   <v>       0.45142157       0.28846677       0.66086411 </v>
   <v>       0.44696482       0.80740987       0.65659196 </v>
   <v>       0.96845947       0.28311446       0.66493359 </v>
   <v>       0.94360819       0.78454947       0.65923879 </v>
   <v>       0.29785057       0.04526989       0.65705464 </v>
   <v>       0.29746918       0.54408846       0.65888087 </v>
   <v>       0.79380214       0.05036435       0.65888740 </v>
   <v>       0.80080832       0.55796327       0.65520734 </v>
   <v>       0.04586250       0.20411950       0.75272599 </v>
   <v>       0.04586250       0.70411946       0.75272599 </v>
   <v>       0.54586251       0.20411950       0.75272599 </v>
   <v>       0.54586250       0.70411946       0.75272599 </v>
   <v>       0.20411900       0.45410100       0.75270499 </v>
   <v>       0.20411899       0.95410095       0.75270499 </v>
   <v>       0.70411898       0.45410100       0.75270499 </v>
   <v>       0.70411896       0.95410095       0.75270499 </v>
   <v>       0.45414002       0.29588849       0.75272697 </v>
   <v>       0.45414001       0.79588852       0.75272697 </v>
   <v>       0.95414002       0.29588849       0.75272697 </v>
   <v>       0.95414006       0.79588852       0.75272697 </v>
   <v>       0.29588249       0.04590050       0.75270499 </v>
   <v>       0.29588248       0.54590053       0.75270499 </v>
   <v>       0.79588244       0.04590050       0.75270499 </v>
   <v>       0.79588248       0.54590053       0.75270499 </v>
   <v>       0.76583870       0.52733511       0.55358619 </v>
   <v>       0.50558648       0.01868777       0.55305569 </v>
   <v>       0.47288899       0.50458881       0.55587730 </v>
   <v>       0.99265206       0.99956952       0.55000607 </v>
   <v>       0.03861850       0.49619577       0.55309940 </v>
   <v>       0.23129464       0.23442592       0.55363173 </v>
   <v>       0.25466864       0.76318631       0.55345591 </v>
   <v>       0.73910615       0.20520582       0.55526444 </v>
   <v>       0.70933771       0.79070970       0.54951976 </v>
   <v>       0.00163746       0.98857434       0.65468624 </v>
   <v>       0.01082336       0.49433301       0.65551984 </v>
   <v>       0.50044709       0.00874822       0.65472696 </v>
   <v>       0.50942695       0.49147101       0.65570299 </v>
   <v>       0.25859894       0.24397510       0.65459424 </v>
   <v>       0.25046846       0.75223025       0.65506229 </v>
   <v>       0.74721012       0.26630557       0.65467983 </v>
   <v>       0.74883876       0.75223369       0.65411777 </v>
   <v>       0.13706015       0.10569536       0.60859127 </v>
   <v>       0.14732357       0.60787986       0.61014395 </v>
   <v>       0.64898726       0.10430145       0.61186872 </v>
   <v>       0.61743005       0.63589622       0.61399366 </v>
   <v>       0.35944839       0.38854579       0.60841606 </v>
   <v>       0.36648426       0.88668673       0.60736580 </v>
   <v>       0.89329349       0.36279714       0.61366693 </v>
   <v>       0.87181304       0.87417558       0.60932091 </v>
   <v>       0.12153120       0.35853436       0.61056536 </v>
   <v>       0.12183218       0.87129478       0.60701777 </v>
   <v>       0.58059801       0.32999087       0.60369393 </v>
   <v>       0.61489357       0.87103902       0.61108096 </v>
   <v>       0.38515358       0.13350843       0.60593113 </v>
   <v>       0.38640515       0.63485172       0.61065156 </v>
   <v>       0.88981655       0.13849491       0.61371833 </v>
   <v>       0.90977186       0.64342913       0.61445664 </v>
   <v>       0.00000000       0.00000000       0.75492797 </v>
   <v>       0.00000000       0.50000000       0.75492797 </v>
   <v>       0.50000000       0.00000000       0.75492797 </v>
   <v>       0.49999999       0.50000000       0.75492797 </v>
   <v>       0.25000050       0.25000000       0.75493902 </v>
   <v>       0.25000051       0.74999997       0.75493902 </v>
   <v>       0.75000047       0.25000000       0.75493902 </v>
   <v>       0.75000046       0.74999997       0.75493902 </v>
   <v>       0.13579050       0.11421000       0.70478299 </v>
   <v>       0.13579050       0.61420998       0.70478299 </v>
   <v>       0.63579045       0.11421000       0.70478299 </v>
   <v>       0.63579049       0.61420998       0.70478299 </v>
   <v>       0.36420952       0.38578999       0.70478299 </v>
   <v>       0.36420950       0.88578996       0.70478299 </v>
   <v>       0.86420954       0.38578999       0.70478299 </v>
   <v>       0.86420953       0.88578996       0.70478299 </v>
   <v>       0.11421799       0.36421899       0.70478098 </v>
   <v>       0.11421799       0.86421899       0.70478098 </v>
   <v>       0.61421800       0.36421899       0.70478098 </v>
   <v>       0.61421799       0.86421899       0.70478098 </v>
   <v>       0.38578201       0.13578149       0.70478202 </v>
   <v>       0.38578200       0.63578149       0.70478202 </v>
   <v>       0.88578199       0.13578149       0.70478202 </v>
   <v>       0.88578203       0.63578149       0.70478202 </v>
   <v>       0.13466700       0.11533200       0.80125603 </v>
   <v>       0.13466699       0.61533199       0.80125603 </v>
   <v>       0.63466699       0.11533200       0.80125603 </v>
   <v>       0.63466698       0.61533199       0.80125603 </v>
   <v>       0.36533300       0.38466799       0.80125603 </v>
   <v>       0.36533299       0.88466796       0.80125603 </v>
   <v>       0.86533295       0.38466799       0.80125603 </v>
   <v>       0.86533294       0.88466796       0.80125603 </v>
   <v>       0.11532850       0.36533700       0.80126500 </v>
   <v>       0.11532850       0.86533698       0.80126500 </v>
   <v>       0.61532850       0.36533700       0.80126500 </v>
   <v>       0.61532849       0.86533698       0.80126500 </v>
   <v>       0.38467151       0.13466300       0.80126500 </v>
   <v>       0.38467150       0.63466297       0.80126500 </v>
   <v>       0.88467149       0.13466300       0.80126500 </v>
   <v>       0.88467153       0.63466297       0.80126500 </v>
   <v>       0.99276458       0.99758584       0.60608723 </v>
   <v>       0.01007074       0.49903924       0.60624577 </v>
   <v>       0.50169306       0.00879932       0.60469840 </v>
   <v>       0.49694252       0.49231419       0.60485413 </v>
   <v>       0.24373110       0.24048197       0.60370418 </v>
   <v>       0.24836906       0.74679463       0.60370247 </v>
   <v>       0.73847377       0.24726347       0.60261290 </v>
   <v>       0.73316615       0.75480763       0.60187868 </v>
   <v>       0.00000050       0.00000050       0.70482896 </v>
   <v>       0.00000050       0.50000048       0.70482896 </v>
   <v>       0.50000048       0.00000050       0.70482896 </v>
   <v>       0.50000046       0.50000048       0.70482896 </v>
   <v>       0.24999999       0.24999947       0.70482499 </v>
   <v>       0.25000001       0.74999950       0.70482499 </v>
   <v>       0.74999999       0.24999947       0.70482499 </v>
   <v>       0.74999998       0.74999950       0.70482499 </v>
   <v>       0.00000000       0.00000000       0.80731797 </v>
   <v>       0.00000000       0.50000000       0.80731797 </v>
   <v>       0.50000000       0.00000000       0.80731797 </v>
   <v>       0.49999999       0.50000000       0.80731797 </v>
   <v>       0.24999999       0.25000000       0.80731797 </v>
   <v>       0.25000001       0.74999997       0.80731797 </v>
   <v>       0.74999999       0.25000000       0.80731797 </v>
   <v>       0.74999998       0.74999997       0.80731797 </v>
  </varray>
 </structure>
</modeling>
