<?xml version="1.0" encoding="ISO-8859-1"?>
<modeling>
 <generator>
  <i name="program" type="string">vasp </i>
  <i name="version" type="string">6.2.1  </i>
  <i name="subversion" type="string">16May21 (build Nov 15 2021 14:57:28) complex                          parallel </i>
  <i name="platform" type="string">LinuxPGI </i>
  <i name="date" type="string">2023 07 24 </i>
  <i name="time" type="string">23:06:46 </i>
 </generator>
 <incar>
  <i type="string" name="SYSTEM">PSC</i>
  <i type="int" name="ISTART">     1</i>
  <i type="string" name="PREC">Normal</i>
  <i name="BMIX">      0.01000000</i>
  <i name="AMIN">      0.01000000</i>
  <i type="int" name="ICHARG">     1</i>
  <i type="int" name="NELM">   600</i>
  <i type="int" name="ISYM">     0</i>
  <i name="ENCUT">    500.00000000</i>
  <i type="string" name="LREAL">Auto</i>
  <i type="int" name="ISMEAR">     0</i>
  <i name="SIGMA">      0.05000000</i>
  <i type="logical" name="LWAVE"> F  </i>
  <i type="logical" name="LVTOT"> T  </i>
  <i type="logical" name="GGA_COMPAT"> F  </i>
  <i type="logical" name="LDIPOL"> T  </i>
  <i type="int" name="IDIPOL">     3</i>
  <i type="int" name="IVDW">    12</i>
 </incar>
 <primitive_cell>
  <structure name="primitive_cell" >
   <crystal>
    <varray name="basis" >
     <v>      18.06080055       0.00000000       0.00000000 </v>
     <v>      -0.00491865      18.06279945       0.00000000 </v>
     <v>       0.00000000       0.00000000      62.48749924 </v>
    </varray>
    <i name="volume">  20385.21054034 </i>
    <varray name="rec_basis" >
     <v>       0.05536853       0.00001508      -0.00000000 </v>
     <v>       0.00000000       0.05536240       0.00000000 </v>
     <v>       0.00000000      -0.00000000       0.01600320 </v>
    </varray>
   </crystal>
   <varray name="positions" >
    <v>       0.43796401       0.30262041       0.57428289 </v>
    <v>       0.43630864       0.83329616       0.57530873 </v>
    <v>       0.98450699       0.31052087       0.58241214 </v>
    <v>       0.96710164       0.80171411       0.58225342 </v>
    <v>       0.31793235       0.98062429       0.57731670 </v>
    <v>       0.31887662       0.55992296       0.57808328 </v>
    <v>       0.79155255       0.06838086       0.58215782 </v>
    <v>       0.04630437       0.13644714       0.56105918 </v>
    <v>       0.05539890       0.64121152       0.55906806 </v>
    <v>       0.58594140       0.19052472       0.55343418 </v>
    <v>       0.53970112       0.66728445       0.56298052 </v>
    <v>       0.34731766       0.03873466       0.55720062 </v>
    <v>       0.28809844       0.61647010       0.55770127 </v>
    <v>       0.85945822       0.05226863       0.56351310 </v>
    <v>       0.02266414       0.17610678       0.58494701 </v>
    <v>       0.01873058       0.67394800       0.58268185 </v>
    <v>       0.56461203       0.25894042       0.57191767 </v>
    <v>       0.47460749       0.70277227       0.58180686 </v>
    <v>       0.26095694       0.43361365       0.58013898 </v>
    <v>       0.18273676       0.94491277       0.57709687 </v>
    <v>       0.67933952       0.98909259       0.58096367 </v>
    <v>       0.37192285       0.26027509       0.55771806 </v>
    <v>       0.48092394       0.88087149       0.55470476 </v>
    <v>       0.00234892       0.35599149       0.55837102 </v>
    <v>       0.97690298       0.85230064       0.55895738 </v>
    <v>       0.19034628       0.41526124       0.56179657 </v>
    <v>       0.12827395       0.98651744       0.55770194 </v>
    <v>       0.68099213       0.91797936       0.56198612 </v>
    <v>       0.46093923       0.18599886       0.54140944 </v>
    <v>       0.54966319       0.77683456       0.54447932 </v>
    <v>       0.03755155       0.24427839       0.54146945 </v>
    <v>       0.03213933       0.75239984       0.54090561 </v>
    <v>       0.20407793       0.52903710       0.54498162 </v>
    <v>       0.22768151       0.05131641       0.54296975 </v>
    <v>       0.79462714       0.95087816       0.54879550 </v>
    <v>       0.46403312       0.31502636       0.67424631 </v>
    <v>       0.43292606       0.81891032       0.67107068 </v>
    <v>       0.97176936       0.27715600       0.68211110 </v>
    <v>       0.92623547       0.77766608       0.67408820 </v>
    <v>       0.29718296       0.05490585       0.67488969 </v>
    <v>       0.30725727       0.54329475       0.67482198 </v>
    <v>       0.78914869       0.06033139       0.67549753 </v>
    <v>       0.80162528       0.58658121       0.66933315 </v>
    <v>       0.08423929       0.16806517       0.64484174 </v>
    <v>       0.10130315       0.69875906       0.65605566 </v>
    <v>       0.57223630       0.16205736       0.65197617 </v>
    <v>       0.57505234       0.67828987       0.65802938 </v>
    <v>       0.17700917       0.41300058       0.64942127 </v>
    <v>       0.17721213       0.91529224       0.64967334 </v>
    <v>       0.69823660       0.41569163       0.66022104 </v>
    <v>       0.67476699       0.92138448       0.64805680 </v>
    <v>       0.06914608       0.17905066       0.67205690 </v>
    <v>       0.04184714       0.69453710       0.67753084 </v>
    <v>       0.57209678       0.22443166       0.67304447 </v>
    <v>       0.53084240       0.71972778       0.68030227 </v>
    <v>       0.21117854       0.43496392       0.67438946 </v>
    <v>       0.19963604       0.94723634       0.67470526 </v>
    <v>       0.70649897       0.48658606       0.67900996 </v>
    <v>       0.68797442       0.95783779       0.67333823 </v>
    <v>       0.40008397       0.30332906       0.65389452 </v>
    <v>       0.42202782       0.83243567       0.64378538 </v>
    <v>       0.93174543       0.32214935       0.65996354 </v>
    <v>       0.92163269       0.82885155       0.65033442 </v>
    <v>       0.32712302       0.08117239       0.64964825 </v>
    <v>       0.32367185       0.58226400       0.64999158 </v>
    <v>       0.83251192       0.07915686       0.65139030 </v>
    <v>       0.84060467       0.57815068       0.64417328 </v>
    <v>       0.99849095       0.25816266       0.63531695 </v>
    <v>       0.03192934       0.78388776       0.63743908 </v>
    <v>       0.46333145       0.20621950       0.63832640 </v>
    <v>       0.51089812       0.74550773       0.63388832 </v>
    <v>       0.25447390       0.99548509       0.63191063 </v>
    <v>       0.24426204       0.50302636       0.63212405 </v>
    <v>       0.76518614       0.99427931       0.63238314 </v>
    <v>       0.78057868       0.46810903       0.63678996 </v>
    <v>       0.44874502       0.30128397       0.76888902 </v>
    <v>       0.44874501       0.80128391       0.76888902 </v>
    <v>       0.94874497       0.30128397       0.76888902 </v>
    <v>       0.94874501       0.80128391       0.76888902 </v>
    <v>       0.30127600       0.05129450       0.76887296 </v>
    <v>       0.30127601       0.55129450       0.76887296 </v>
    <v>       0.80127594       0.05129450       0.76887296 </v>
    <v>       0.80127598       0.55129450       0.76887296 </v>
    <v>       0.07877100       0.17118050       0.74344197 </v>
    <v>       0.07877101       0.67118045       0.74344197 </v>
    <v>       0.57877100       0.17118050       0.74344197 </v>
    <v>       0.57877099       0.67118045       0.74344197 </v>
    <v>       0.17119950       0.42117448       0.74342103 </v>
    <v>       0.17119950       0.92117451       0.74342103 </v>
    <v>       0.67119951       0.42117448       0.74342103 </v>
    <v>       0.67119950       0.92117451       0.74342103 </v>
    <v>       0.05125600       0.19871499       0.76888902 </v>
    <v>       0.05125600       0.69871493       0.76888902 </v>
    <v>       0.55125603       0.19871499       0.76888902 </v>
    <v>       0.55125602       0.69871493       0.76888902 </v>
    <v>       0.19872349       0.44870397       0.76887205 </v>
    <v>       0.19872349       0.94870397       0.76887205 </v>
    <v>       0.69872352       0.44870397       0.76887205 </v>
    <v>       0.69872351       0.94870397       0.76887205 </v>
    <v>       0.42123152       0.32881747       0.74344197 </v>
    <v>       0.42123151       0.82881744       0.74344197 </v>
    <v>       0.92123147       0.32881747       0.74344197 </v>
    <v>       0.92123151       0.82881744       0.74344197 </v>
    <v>       0.32880050       0.07882500       0.74342103 </v>
    <v>       0.32880049       0.57882496       0.74342103 </v>
    <v>       0.82880048       0.07882500       0.74342103 </v>
    <v>       0.82880052       0.57882496       0.74342103 </v>
    <v>       0.00000350       0.25000148       0.72582199 </v>
    <v>       0.00000350       0.75000145       0.72582199 </v>
    <v>       0.50000351       0.25000148       0.72582199 </v>
    <v>       0.50000350       0.75000145       0.72582199 </v>
    <v>       0.25000050       0.00000000       0.72580398 </v>
    <v>       0.25000052       0.50000000       0.72580398 </v>
    <v>       0.75000050       0.00000000       0.72580398 </v>
    <v>       0.75000049       0.50000000       0.72580398 </v>
    <v>       0.77451496       0.55642723       0.52276899 </v>
    <v>       0.72418871       0.47371762       0.52713082 </v>
    <v>       0.87093850       0.50055073       0.54411994 </v>
    <v>       0.85292015       0.47886777       0.57091729 </v>
    <v>       0.74151921       0.63582362       0.56133609 </v>
    <v>       0.80235310       0.59465662       0.58038000 </v>
    <v>       0.66334592       0.54308889       0.57117662 </v>
    <v>       0.67622016       0.45232890       0.56072464 </v>
    <v>       0.61552352       0.54822616       0.53875656 </v>
    <v>       0.66707536       0.63064042       0.53957759 </v>
    <v>       0.61017141       0.64790616       0.50746417 </v>
    <v>       0.68892505       0.60352230       0.49771353 </v>
    <v>       0.82736541       0.38604535       0.53124511 </v>
    <v>       0.76111938       0.37491237       0.55159482 </v>
    <v>       0.85423505       0.36171548       0.55717260 </v>
    <v>       0.86294124       0.69092288       0.55840948 </v>
    <v>       0.84862356       0.63799403       0.53504671 </v>
    <v>       0.90759339       0.60459948       0.55579610 </v>
    <v>       0.75870153       0.51634960       0.60074906 </v>
    <v>       0.76614635       0.42307459       0.59085359 </v>
    <v>       0.67944508       0.45599744       0.60071170 </v>
    <v>       0.53736419       0.53600919       0.50645637 </v>
    <v>       0.57428055       0.55474509       0.48070079 </v>
    <v>       0.70193855       0.48666050       0.47191128 </v>
    <v>       0.55595278       0.41988123       0.52247944 </v>
    <v>       0.76817803       0.36631775       0.47407715 </v>
    <v>       0.62120997       0.29919854       0.52514788 </v>
    <v>       0.72735264       0.27221603       0.50113457 </v>
    <v>       0.02156287       0.24473528       0.55830277 </v>
    <v>       0.01565614       0.74607198       0.55742283 </v>
    <v>       0.47758812       0.22395447       0.55401260 </v>
    <v>       0.51096968       0.77306829       0.55792757 </v>
    <v>       0.23839074       0.51533858       0.55860971 </v>
    <v>       0.23678732       0.01458361       0.55640310 </v>
    <v>       0.77097878       0.98354197       0.56169309 </v>
    <v>       0.00734007       0.24558524       0.65237896 </v>
    <v>       0.01137662       0.76413809       0.65296288 </v>
    <v>       0.48636113       0.23215168       0.65248732 </v>
    <v>       0.49865006       0.75553756       0.65071224 </v>
    <v>       0.25069570       0.49787099       0.64938306 </v>
    <v>       0.25196285       0.99800398       0.64934820 </v>
    <v>       0.76858695       0.49584472       0.65182770 </v>
    <v>       0.75383607       0.00007982       0.64941383 </v>
    <v>       0.49998898       0.24999498       0.74327702 </v>
    <v>       0.49998903       0.74999496       0.74327702 </v>
    <v>       0.99998898       0.24999498       0.74327702 </v>
    <v>       0.99998903       0.74999496       0.74327702 </v>
    <v>       0.25000050       0.00000100       0.74325596 </v>
    <v>       0.25000052       0.50000100       0.74325596 </v>
    <v>       0.75000050       0.00000100       0.74325596 </v>
    <v>       0.75000049       0.50000100       0.74325596 </v>
    <v>       0.62556995       0.46280787       0.49727295 </v>
    <v>       0.68517581       0.44536525       0.48370878 </v>
    <v>       0.60283703       0.40780175       0.51196592 </v>
    <v>       0.72100543       0.37686369       0.48485384 </v>
    <v>       0.63906704       0.33941969       0.51321782 </v>
    <v>       0.69853468       0.32475896       0.49966726 </v>
    <v>       0.73051165       0.53157963       0.53260665 </v>
    <v>       0.83043045       0.47469353       0.55467967 </v>
    <v>       0.78931799       0.60076151       0.56331555 </v>
    <v>       0.70404955       0.49719269       0.56957602 </v>
    <v>       0.66168593       0.57697805       0.53117417 </v>
    <v>       0.63985266       0.59633817       0.50798564 </v>
    <v>       0.81642474       0.39656011       0.54817239 </v>
    <v>       0.85641201       0.63422612       0.55231347 </v>
    <v>       0.72973054       0.47230924       0.59148091 </v>
    <v>       0.58953755       0.53784518       0.49724338 </v>
    <v>       0.03005142       0.18371560       0.56885212 </v>
    <v>       0.03185093       0.68380533       0.56706740 </v>
    <v>       0.54700175       0.22353507       0.56004964 </v>
    <v>       0.50926578       0.71070180       0.56875237 </v>
    <v>       0.42651580       0.26799208       0.56188771 </v>
    <v>       0.47086156       0.83191672       0.56263945 </v>
    <v>       0.99620942       0.30665563       0.56633575 </v>
    <v>       0.98109620       0.80183069       0.56645436 </v>
    <v>       0.23011082       0.44997692       0.56727484 </v>
    <v>       0.17984712       0.97811976       0.56397749 </v>
    <v>       0.70474044       0.96555571       0.56825788 </v>
    <v>       0.30322202       0.01212309       0.56449761 </v>
    <v>       0.28442736       0.56556593       0.56545715 </v>
    <v>       0.81103897       0.03586565       0.57030590 </v>
    <v>       0.05629821       0.19450447       0.65667565 </v>
    <v>       0.05293571       0.71619867       0.66300614 </v>
    <v>       0.54804259       0.20501335       0.65984487 </v>
    <v>       0.53691689       0.71576953       0.66414315 </v>
    <v>       0.21109583       0.44595432       0.65858992 </v>
    <v>       0.20791696       0.95221636       0.65893581 </v>
    <v>       0.72097521       0.46425126       0.66471388 </v>
    <v>       0.70332453       0.95826351       0.65790216 </v>
    <v>       0.44867917       0.28730773       0.66079428 </v>
    <v>       0.44849086       0.80497252       0.65567967 </v>
    <v>       0.96801723       0.28348277       0.66591859 </v>
    <v>       0.94803755       0.79095895       0.65965983 </v>
    <v>       0.29458047       0.04747711       0.65883295 </v>
    <v>       0.29552092       0.54294998       0.65911932 </v>
    <v>       0.79392014       0.04953325       0.65970159 </v>
    <v>       0.80494153       0.55817341       0.65534189 </v>
    <v>       0.04586250       0.20411950       0.75272599 </v>
    <v>       0.04586250       0.70411946       0.75272599 </v>
    <v>       0.54586251       0.20411950       0.75272599 </v>
    <v>       0.54586250       0.70411946       0.75272599 </v>
    <v>       0.20411900       0.45410100       0.75270499 </v>
    <v>       0.20411899       0.95410095       0.75270499 </v>
    <v>       0.70411898       0.45410100       0.75270499 </v>
    <v>       0.70411896       0.95410095       0.75270499 </v>
    <v>       0.45414002       0.29588849       0.75272697 </v>
    <v>       0.45414001       0.79588852       0.75272697 </v>
    <v>       0.95414002       0.29588849       0.75272697 </v>
    <v>       0.95414006       0.79588852       0.75272697 </v>
    <v>       0.29588249       0.04590050       0.75270499 </v>
    <v>       0.29588248       0.54590053       0.75270499 </v>
    <v>       0.79588244       0.04590050       0.75270499 </v>
    <v>       0.79588248       0.54590053       0.75270499 </v>
    <v>       0.76376611       0.52577103       0.55506421 </v>
    <v>       0.50020197       0.02401348       0.55187924 </v>
    <v>       0.47060364       0.51073504       0.55733370 </v>
    <v>       0.98893365       0.99603555       0.55022089 </v>
    <v>       0.03671642       0.49386491       0.55283433 </v>
    <v>       0.22929224       0.23567020       0.55224131 </v>
    <v>       0.25871483       0.75977330       0.55295825 </v>
    <v>       0.74484627       0.20968524       0.55541852 </v>
    <v>       0.71614767       0.78737636       0.54732773 </v>
    <v>       0.00117652       0.99300908       0.65412742 </v>
    <v>       0.01425490       0.49843941       0.65561545 </v>
    <v>       0.49524228       0.00419338       0.65459656 </v>
    <v>       0.50435471       0.49151383       0.65588179 </v>
    <v>       0.25330789       0.24667364       0.65499838 </v>
    <v>       0.24609157       0.75221135       0.65420830 </v>
    <v>       0.74231559       0.26099686       0.65512578 </v>
    <v>       0.75214245       0.75530144       0.65367145 </v>
    <v>       0.14197692       0.10415057       0.61117052 </v>
    <v>       0.14643401       0.60544784       0.60910077 </v>
    <v>       0.65108246       0.10353840       0.61065198 </v>
    <v>       0.61732037       0.63644505       0.61463600 </v>
    <v>       0.35291181       0.39076858       0.60864646 </v>
    <v>       0.36105119       0.89217463       0.60816150 </v>
    <v>       0.89252941       0.36235132       0.61434010 </v>
    <v>       0.86382366       0.88468998       0.60873559 </v>
    <v>       0.11625362       0.35689317       0.61149944 </v>
    <v>       0.11468017       0.86562478       0.60740524 </v>
    <v>       0.57785948       0.32813173       0.60663568 </v>
    <v>       0.61434033       0.86419808       0.61154083 </v>
    <v>       0.38293441       0.13148968       0.60772238 </v>
    <v>       0.38870875       0.64005768       0.61257473 </v>
    <v>       0.88818164       0.14082495       0.61198428 </v>
    <v>       0.91377345       0.64856128       0.61520093 </v>
    <v>       0.00000000       0.00000000       0.75492797 </v>
    <v>       0.00000000       0.50000000       0.75492797 </v>
    <v>       0.50000000       0.00000000       0.75492797 </v>
    <v>       0.49999999       0.50000000       0.75492797 </v>
    <v>       0.25000050       0.25000000       0.75493902 </v>
    <v>       0.25000051       0.74999997       0.75493902 </v>
    <v>       0.75000047       0.25000000       0.75493902 </v>
    <v>       0.75000046       0.74999997       0.75493902 </v>
    <v>       0.13579050       0.11421000       0.70478299 </v>
    <v>       0.13579050       0.61420998       0.70478299 </v>
    <v>       0.63579045       0.11421000       0.70478299 </v>
    <v>       0.63579049       0.61420998       0.70478299 </v>
    <v>       0.36420952       0.38578999       0.70478299 </v>
    <v>       0.36420950       0.88578996       0.70478299 </v>
    <v>       0.86420954       0.38578999       0.70478299 </v>
    <v>       0.86420953       0.88578996       0.70478299 </v>
    <v>       0.11421799       0.36421899       0.70478098 </v>
    <v>       0.11421799       0.86421899       0.70478098 </v>
    <v>       0.61421800       0.36421899       0.70478098 </v>
    <v>       0.61421799       0.86421899       0.70478098 </v>
    <v>       0.38578201       0.13578149       0.70478202 </v>
    <v>       0.38578200       0.63578149       0.70478202 </v>
    <v>       0.88578199       0.13578149       0.70478202 </v>
    <v>       0.88578203       0.63578149       0.70478202 </v>
    <v>       0.13466700       0.11533200       0.80125603 </v>
    <v>       0.13466699       0.61533199       0.80125603 </v>
    <v>       0.63466699       0.11533200       0.80125603 </v>
    <v>       0.63466698       0.61533199       0.80125603 </v>
    <v>       0.36533300       0.38466799       0.80125603 </v>
    <v>       0.36533299       0.88466796       0.80125603 </v>
    <v>       0.86533295       0.38466799       0.80125603 </v>
    <v>       0.86533294       0.88466796       0.80125603 </v>
    <v>       0.11532850       0.36533700       0.80126500 </v>
    <v>       0.11532850       0.86533698       0.80126500 </v>
    <v>       0.61532850       0.36533700       0.80126500 </v>
    <v>       0.61532849       0.86533698       0.80126500 </v>
    <v>       0.38467151       0.13466300       0.80126500 </v>
    <v>       0.38467150       0.63466297       0.80126500 </v>
    <v>       0.88467149       0.13466300       0.80126500 </v>
    <v>       0.88467153       0.63466297       0.80126500 </v>
    <v>       0.99451661       0.00021084       0.60496200 </v>
    <v>       0.00603852       0.49925682       0.60646926 </v>
    <v>       0.50090952       0.00748961       0.60318693 </v>
    <v>       0.49634774       0.49557761       0.60556411 </v>
    <v>       0.24526577       0.24490587       0.60299414 </v>
    <v>       0.24822166       0.74631084       0.60224949 </v>
    <v>       0.74484811       0.24959731       0.60384801 </v>
    <v>       0.74055952       0.75473265       0.60302210 </v>
    <v>       0.00000050       0.00000050       0.70482896 </v>
    <v>       0.00000050       0.50000048       0.70482896 </v>
    <v>       0.50000048       0.00000050       0.70482896 </v>
    <v>       0.50000046       0.50000048       0.70482896 </v>
    <v>       0.24999999       0.24999947       0.70482499 </v>
    <v>       0.25000001       0.74999950       0.70482499 </v>
    <v>       0.74999999       0.24999947       0.70482499 </v>
    <v>       0.74999998       0.74999950       0.70482499 </v>
    <v>       0.00000000       0.00000000       0.80731797 </v>
    <v>       0.00000000       0.50000000       0.80731797 </v>
    <v>       0.50000000       0.00000000       0.80731797 </v>
    <v>       0.49999999       0.50000000       0.80731797 </v>
    <v>       0.24999999       0.25000000       0.80731797 </v>
    <v>       0.25000001       0.74999997       0.80731797 </v>
    <v>       0.74999999       0.25000000       0.80731797 </v>
    <v>       0.74999998       0.74999997       0.80731797 </v>
   </varray>
  </structure>
  <varray name="primitive_index" >
   <v type="int" >        1 </v>
   <v type="int" >        2 </v>
   <v type="int" >        3 </v>
   <v type="int" >        4 </v>
   <v type="int" >        5 </v>
   <v type="int" >        6 </v>
   <v type="int" >        7 </v>
   <v type="int" >        8 </v>
   <v type="int" >        9 </v>
   <v type="int" >       10 </v>
   <v type="int" >       11 </v>
   <v type="int" >       12 </v>
   <v type="int" >       13 </v>
   <v type="int" >       14 </v>
   <v type="int" >       15 </v>
   <v type="int" >       16 </v>
   <v type="int" >       17 </v>
   <v type="int" >       18 </v>
   <v type="int" >       19 </v>
   <v type="int" >       20 </v>
   <v type="int" >       21 </v>
   <v type="int" >       22 </v>
   <v type="int" >       23 </v>
   <v type="int" >       24 </v>
   <v type="int" >       25 </v>
   <v type="int" >       26 </v>
   <v type="int" >       27 </v>
   <v type="int" >       28 </v>
   <v type="int" >       29 </v>
   <v type="int" >       30 </v>
   <v type="int" >       31 </v>
   <v type="int" >       32 </v>
   <v type="int" >       33 </v>
   <v type="int" >       34 </v>
   <v type="int" >       35 </v>
   <v type="int" >       36 </v>
   <v type="int" >       37 </v>
   <v type="int" >       38 </v>
   <v type="int" >       39 </v>
   <v type="int" >       40 </v>
   <v type="int" >       41 </v>
   <v type="int" >       42 </v>
   <v type="int" >       43 </v>
   <v type="int" >       44 </v>
   <v type="int" >       45 </v>
   <v type="int" >       46 </v>
   <v type="int" >       47 </v>
   <v type="int" >       48 </v>
   <v type="int" >       49 </v>
   <v type="int" >       50 </v>
   <v type="int" >       51 </v>
   <v type="int" >       52 </v>
   <v type="int" >       53 </v>
   <v type="int" >       54 </v>
   <v type="int" >       55 </v>
   <v type="int" >       56 </v>
   <v type="int" >       57 </v>
   <v type="int" >       58 </v>
   <v type="int" >       59 </v>
   <v type="int" >       60 </v>
   <v type="int" >       61 </v>
   <v type="int" >       62 </v>
   <v type="int" >       63 </v>
   <v type="int" >       64 </v>
   <v type="int" >       65 </v>
   <v type="int" >       66 </v>
   <v type="int" >       67 </v>
   <v type="int" >       68 </v>
   <v type="int" >       69 </v>
   <v type="int" >       70 </v>
   <v type="int" >       71 </v>
   <v type="int" >       72 </v>
   <v type="int" >       73 </v>
   <v type="int" >       74 </v>
   <v type="int" >       75 </v>
   <v type="int" >       76 </v>
   <v type="int" >       77 </v>
   <v type="int" >       78 </v>
   <v type="int" >       79 </v>
   <v type="int" >       80 </v>
   <v type="int" >       81 </v>
   <v type="int" >       82 </v>
   <v type="int" >       83 </v>
   <v type="int" >       84 </v>
   <v type="int" >       85 </v>
   <v type="int" >       86 </v>
   <v type="int" >       87 </v>
   <v type="int" >       88 </v>
   <v type="int" >       89 </v>
   <v type="int" >       90 </v>
   <v type="int" >       91 </v>
   <v type="int" >       92 </v>
   <v type="int" >       93 </v>
   <v type="int" >       94 </v>
   <v type="int" >       95 </v>
   <v type="int" >       96 </v>
   <v type="int" >       97 </v>
   <v type="int" >       98 </v>
   <v type="int" >       99 </v>
   <v type="int" >      100 </v>
   <v type="int" >      101 </v>
   <v type="int" >      102 </v>
   <v type="int" >      103 </v>
   <v type="int" >      104 </v>
   <v type="int" >      105 </v>
   <v type="int" >      106 </v>
   <v type="int" >      107 </v>
   <v type="int" >      108 </v>
   <v type="int" >      109 </v>
   <v type="int" >      110 </v>
   <v type="int" >      111 </v>
   <v type="int" >      112 </v>
   <v type="int" >      113 </v>
   <v type="int" >      114 </v>
   <v type="int" >      115 </v>
   <v type="int" >      116 </v>
   <v type="int" >      117 </v>
   <v type="int" >      118 </v>
   <v type="int" >      119 </v>
   <v type="int" >      120 </v>
   <v type="int" >      121 </v>
   <v type="int" >      122 </v>
   <v type="int" >      123 </v>
   <v type="int" >      124 </v>
   <v type="int" >      125 </v>
   <v type="int" >      126 </v>
   <v type="int" >      127 </v>
   <v type="int" >      128 </v>
   <v type="int" >      129 </v>
   <v type="int" >      130 </v>
   <v type="int" >      131 </v>
   <v type="int" >      132 </v>
   <v type="int" >      133 </v>
   <v type="int" >      134 </v>
   <v type="int" >      135 </v>
   <v type="int" >      136 </v>
   <v type="int" >      137 </v>
   <v type="int" >      138 </v>
   <v type="int" >      139 </v>
   <v type="int" >      140 </v>
   <v type="int" >      141 </v>
   <v type="int" >      142 </v>
   <v type="int" >      143 </v>
   <v type="int" >      144 </v>
   <v type="int" >      145 </v>
   <v type="int" >      146 </v>
   <v type="int" >      147 </v>
   <v type="int" >      148 </v>
   <v type="int" >      149 </v>
   <v type="int" >      150 </v>
   <v type="int" >      151 </v>
   <v type="int" >      152 </v>
   <v type="int" >      153 </v>
   <v type="int" >      154 </v>
   <v type="int" >      155 </v>
   <v type="int" >      156 </v>
   <v type="int" >      157 </v>
   <v type="int" >      158 </v>
   <v type="int" >      159 </v>
   <v type="int" >      160 </v>
   <v type="int" >      161 </v>
   <v type="int" >      162 </v>
   <v type="int" >      163 </v>
   <v type="int" >      164 </v>
   <v type="int" >      165 </v>
   <v type="int" >      166 </v>
   <v type="int" >      167 </v>
   <v type="int" >      168 </v>
   <v type="int" >      169 </v>
   <v type="int" >      170 </v>
   <v type="int" >      171 </v>
   <v type="int" >      172 </v>
   <v type="int" >      173 </v>
   <v type="int" >      174 </v>
   <v type="int" >      175 </v>
   <v type="int" >      176 </v>
   <v type="int" >      177 </v>
   <v type="int" >      178 </v>
   <v type="int" >      179 </v>
   <v type="int" >      180 </v>
   <v type="int" >      181 </v>
   <v type="int" >      182 </v>
   <v type="int" >      183 </v>
   <v type="int" >      184 </v>
   <v type="int" >      185 </v>
   <v type="int" >      186 </v>
   <v type="int" >      187 </v>
   <v type="int" >      188 </v>
   <v type="int" >      189 </v>
   <v type="int" >      190 </v>
   <v type="int" >      191 </v>
   <v type="int" >      192 </v>
   <v type="int" >      193 </v>
   <v type="int" >      194 </v>
   <v type="int" >      195 </v>
   <v type="int" >      196 </v>
   <v type="int" >      197 </v>
   <v type="int" >      198 </v>
   <v type="int" >      199 </v>
   <v type="int" >      200 </v>
   <v type="int" >      201 </v>
   <v type="int" >      202 </v>
   <v type="int" >      203 </v>
   <v type="int" >      204 </v>
   <v type="int" >      205 </v>
   <v type="int" >      206 </v>
   <v type="int" >      207 </v>
   <v type="int" >      208 </v>
   <v type="int" >      209 </v>
   <v type="int" >      210 </v>
   <v type="int" >      211 </v>
   <v type="int" >      212 </v>
   <v type="int" >      213 </v>
   <v type="int" >      214 </v>
   <v type="int" >      215 </v>
   <v type="int" >      216 </v>
   <v type="int" >      217 </v>
   <v type="int" >      218 </v>
   <v type="int" >      219 </v>
   <v type="int" >      220 </v>
   <v type="int" >      221 </v>
   <v type="int" >      222 </v>
   <v type="int" >      223 </v>
   <v type="int" >      224 </v>
   <v type="int" >      225 </v>
   <v type="int" >      226 </v>
   <v type="int" >      227 </v>
   <v type="int" >      228 </v>
   <v type="int" >      229 </v>
   <v type="int" >      230 </v>
   <v type="int" >      231 </v>
   <v type="int" >      232 </v>
   <v type="int" >      233 </v>
   <v type="int" >      234 </v>
   <v type="int" >      235 </v>
   <v type="int" >      236 </v>
   <v type="int" >      237 </v>
   <v type="int" >      238 </v>
   <v type="int" >      239 </v>
   <v type="int" >      240 </v>
   <v type="int" >      241 </v>
   <v type="int" >      242 </v>
   <v type="int" >      243 </v>
   <v type="int" >      244 </v>
   <v type="int" >      245 </v>
   <v type="int" >      246 </v>
   <v type="int" >      247 </v>
   <v type="int" >      248 </v>
   <v type="int" >      249 </v>
   <v type="int" >      250 </v>
   <v type="int" >      251 </v>
   <v type="int" >      252 </v>
   <v type="int" >      253 </v>
   <v type="int" >      254 </v>
   <v type="int" >      255 </v>
   <v type="int" >      256 </v>
   <v type="int" >      257 </v>
   <v type="int" >      258 </v>
   <v type="int" >      259 </v>
   <v type="int" >      260 </v>
   <v type="int" >      261 </v>
   <v type="int" >      262 </v>
   <v type="int" >      263 </v>
   <v type="int" >      264 </v>
   <v type="int" >      265 </v>
   <v type="int" >      266 </v>
   <v type="int" >      267 </v>
   <v type="int" >      268 </v>
   <v type="int" >      269 </v>
   <v type="int" >      270 </v>
   <v type="int" >      271 </v>
   <v type="int" >      272 </v>
   <v type="int" >      273 </v>
   <v type="int" >      274 </v>
   <v type="int" >      275 </v>
   <v type="int" >      276 </v>
   <v type="int" >      277 </v>
   <v type="int" >      278 </v>
   <v type="int" >      279 </v>
   <v type="int" >      280 </v>
   <v type="int" >      281 </v>
   <v type="int" >      282 </v>
   <v type="int" >      283 </v>
   <v type="int" >      284 </v>
   <v type="int" >      285 </v>
   <v type="int" >      286 </v>
   <v type="int" >      287 </v>
   <v type="int" >      288 </v>
   <v type="int" >      289 </v>
   <v type="int" >      290 </v>
   <v type="int" >      291 </v>
   <v type="int" >      292 </v>
   <v type="int" >      293 </v>
   <v type="int" >      294 </v>
   <v type="int" >      295 </v>
   <v type="int" >      296 </v>
   <v type="int" >      297 </v>
   <v type="int" >      298 </v>
   <v type="int" >      299 </v>
   <v type="int" >      300 </v>
   <v type="int" >      301 </v>
   <v type="int" >      302 </v>
   <v type="int" >      303 </v>
   <v type="int" >      304 </v>
   <v type="int" >      305 </v>
   <v type="int" >      306 </v>
   <v type="int" >      307 </v>
   <v type="int" >      308 </v>
   <v type="int" >      309 </v>
   <v type="int" >      310 </v>
   <v type="int" >      311 </v>
   <v type="int" >      312 </v>
   <v type="int" >      313 </v>
   <v type="int" >      314 </v>
   <v type="int" >      315 </v>
   <v type="int" >      316 </v>
   <v type="int" >      317 </v>
   <v type="int" >      318 </v>
   <v type="int" >      319 </v>
   <v type="int" >      320 </v>
   <v type="int" >      321 </v>
   <v type="int" >      322 </v>
   <v type="int" >      323 </v>
   <v type="int" >      324 </v>
   <v type="int" >      325 </v>
  </varray>
 </primitive_cell>
 <kpoints>
  <generation param="Gamma">
   <v type="int" name="divisions">       3        3        1 </v>
   <v name="usershift">      0.00000000       0.00000000       0.00000000 </v>
   <v name="genvec1">      0.33333333       0.00000000       0.00000000 </v>
   <v name="genvec2">      0.00000000       0.33333333       0.00000000 </v>
   <v name="genvec3">      0.00000000       0.00000000       1.00000000 </v>
   <v name="shift">      0.00000000       0.00000000       0.00000000 </v>
  </generation>
  <varray name="kpointlist" >
   <v>       0.00000000       0.00000000       0.00000000 </v>
   <v>       0.33333333       0.00000000       0.00000000 </v>
   <v>       0.00000000       0.33333333       0.00000000 </v>
   <v>       0.33333333       0.33333333       0.00000000 </v>
   <v>      -0.33333333       0.33333333       0.00000000 </v>
  </varray>
  <varray name="weights" >
   <v>       0.11111111 </v>
   <v>       0.22222222 </v>
   <v>       0.22222222 </v>
   <v>       0.22222222 </v>
   <v>       0.22222222 </v>
  </varray>
 </kpoints>
 <parameters>
  <separator name="general" >
   <i type="string" name="SYSTEM">PSC</i>
   <i type="logical" name="LCOMPAT"> F  </i>
  </separator>
  <separator name="electronic" >
   <i type="string" name="PREC">normal</i>
   <i name="ENMAX">    500.00000000</i>
   <i name="ENAUG">    644.87300000</i>
   <i name="EDIFF">      0.00010000</i>
   <i type="int" name="IALGO">    38</i>
   <i type="int" name="IWAVPR">    10</i>
   <i type="int" name="NBANDS">   732</i>
   <i type="int" name="NBANDSLOW">    -1</i>
   <i type="int" name="NBANDSHIGH">    -1</i>
   <i name="NELECT">   1134.00000000</i>
   <i type="int" name="TURBO">     0</i>
   <i type="int" name="IRESTART">     0</i>
   <i type="int" name="NREBOOT">     0</i>
   <i type="int" name="NMIN">     0</i>
   <i name="EREF">      0.00000000</i>
   <separator name="electronic smearing" >
    <i type="int" name="ISMEAR">     0</i>
    <i name="SIGMA">      0.05000000</i>
    <i name="KSPACING">      0.50000000</i>
    <i type="logical" name="KGAMMA"> T  </i>
    <i type="logical" name="KBLOWUP"> T  </i>
   </separator>
   <separator name="electronic projectors" >
    <i type="logical" name="LREAL"> T  </i>
    <v name="ROPT">     -0.00050000     -0.00050000     -0.00050000     -0.00050000     -0.00050000</v>
    <i type="int" name="LMAXPAW">  -100</i>
    <i type="int" name="LMAXMIX">     2</i>
    <i type="logical" name="NLSPLINE"> F  </i>
   </separator>
   <separator name="electronic startup" >
    <i type="int" name="ISTART">     0</i>
    <i type="int" name="ICHARG">     1</i>
    <i type="int" name="INIWAV">     1</i>
   </separator>
   <separator name="electronic spin" >
    <i type="int" name="ISPIN">     1</i>
    <i type="logical" name="LNONCOLLINEAR"> F  </i>
    <v name="MAGMOM">      1.00000000      1.00000000      1.00000000      1.00000000      1.00000000      1.00000000      1.00000000      1.00000000      1.00000000      1.00000000      1.00000000      1.00000000      1.00000000      1.00000000      1.00000000      1.00000000      1.00000000      1.00000000      1.00000000      1.00000000
      1.00000000      1.00000000      1.00000000      1.00000000      1.00000000      1.00000000      1.00000000      1.00000000      1.00000000      1.00000000      1.00000000      1.00000000      1.00000000      1.00000000      1.00000000      1.00000000      1.00000000      1.00000000      1.00000000      1.00000000
      1.00000000      1.00000000      1.00000000      1.00000000      1.00000000      1.00000000      1.00000000      1.00000000      1.00000000      1.00000000      1.00000000      1.00000000      1.00000000      1.00000000      1.00000000      1.00000000      1.00000000      1.00000000      1.00000000      1.00000000
      1.00000000      1.00000000      1.00000000      1.00000000      1.00000000      1.00000000      1.00000000      1.00000000      1.00000000      1.00000000      1.00000000      1.00000000      1.00000000      1.00000000      1.00000000      1.00000000      1.00000000      1.00000000      1.00000000      1.00000000
      1.00000000      1.00000000      1.00000000      1.00000000      1.00000000      1.00000000      1.00000000      1.00000000      1.00000000      1.00000000      1.00000000      1.00000000      1.00000000      1.00000000      1.00000000      1.00000000      1.00000000      1.00000000      1.00000000      1.00000000
      1.00000000      1.00000000      1.00000000      1.00000000      1.00000000      1.00000000      1.00000000      1.00000000      1.00000000      1.00000000      1.00000000      1.00000000      1.00000000      1.00000000      1.00000000      1.00000000      1.00000000      1.00000000      1.00000000      1.00000000
      1.00000000      1.00000000      1.00000000      1.00000000      1.00000000      1.00000000      1.00000000      1.00000000      1.00000000      1.00000000      1.00000000      1.00000000      1.00000000      1.00000000      1.00000000      1.00000000      1.00000000      1.00000000      1.00000000      1.00000000
      1.00000000      1.00000000      1.00000000      1.00000000      1.00000000      1.00000000      1.00000000      1.00000000      1.00000000      1.00000000      1.00000000      1.00000000      1.00000000      1.00000000      1.00000000      1.00000000      1.00000000      1.00000000      1.00000000      1.00000000
      1.00000000      1.00000000      1.00000000      1.00000000      1.00000000      1.00000000      1.00000000      1.00000000      1.00000000      1.00000000      1.00000000      1.00000000      1.00000000      1.00000000      1.00000000      1.00000000      1.00000000      1.00000000      1.00000000      1.00000000
      1.00000000      1.00000000      1.00000000      1.00000000      1.00000000      1.00000000      1.00000000      1.00000000      1.00000000      1.00000000      1.00000000      1.00000000      1.00000000      1.00000000      1.00000000      1.00000000      1.00000000      1.00000000      1.00000000      1.00000000
      1.00000000      1.00000000      1.00000000      1.00000000      1.00000000      1.00000000      1.00000000      1.00000000      1.00000000      1.00000000      1.00000000      1.00000000      1.00000000      1.00000000      1.00000000      1.00000000      1.00000000      1.00000000      1.00000000      1.00000000
      1.00000000      1.00000000      1.00000000      1.00000000      1.00000000      1.00000000      1.00000000      1.00000000      1.00000000      1.00000000      1.00000000      1.00000000      1.00000000      1.00000000      1.00000000      1.00000000      1.00000000      1.00000000      1.00000000      1.00000000
      1.00000000      1.00000000      1.00000000      1.00000000      1.00000000      1.00000000      1.00000000      1.00000000      1.00000000      1.00000000      1.00000000      1.00000000      1.00000000      1.00000000      1.00000000      1.00000000      1.00000000      1.00000000      1.00000000      1.00000000
      1.00000000      1.00000000      1.00000000      1.00000000      1.00000000      1.00000000      1.00000000      1.00000000      1.00000000      1.00000000      1.00000000      1.00000000      1.00000000      1.00000000      1.00000000      1.00000000      1.00000000      1.00000000      1.00000000      1.00000000
      1.00000000      1.00000000      1.00000000      1.00000000      1.00000000      1.00000000      1.00000000      1.00000000      1.00000000      1.00000000      1.00000000      1.00000000      1.00000000      1.00000000      1.00000000      1.00000000      1.00000000      1.00000000      1.00000000      1.00000000
      1.00000000      1.00000000      1.00000000      1.00000000      1.00000000      1.00000000      1.00000000      1.00000000      1.00000000      1.00000000      1.00000000      1.00000000      1.00000000      1.00000000      1.00000000      1.00000000      1.00000000      1.00000000      1.00000000      1.00000000
      1.00000000      1.00000000      1.00000000      1.00000000      1.00000000</v>
    <i name="NUPDOWN">     -1.00000000</i>
    <i type="logical" name="LSORBIT"> F  </i>
    <v name="SAXIS">      0.00000000      0.00000000      1.00000000</v>
    <i type="logical" name="LSPIRAL"> F  </i>
    <v name="QSPIRAL">      0.00000000      0.00000000      0.00000000</v>
    <i type="logical" name="LZEROZ"> F  </i>
   </separator>
   <separator name="electronic exchange-correlation" >
    <i type="logical" name="LASPH"> F  </i>
    <i type="logical" name="LMETAGGA"> F  </i>
   </separator>
   <separator name="electronic convergence" >
    <i type="int" name="NELM">   600</i>
    <i type="int" name="NELMDL">     0</i>
    <i type="int" name="NELMIN">     2</i>
    <i name="ENINI">    500.00000000</i>
    <separator name="electronic convergence detail" >
     <i type="logical" name="LDIAG"> T  </i>
     <i type="logical" name="LSUBROT"> F  </i>
     <i name="WEIMIN">      0.00000000</i>
     <i name="EBREAK">      0.00000003</i>
     <i name="DEPER">      0.30000000</i>
     <i type="int" name="NRMM">     4</i>
     <i name="TIME">      0.40000000</i>
    </separator>
   </separator>
   <separator name="electronic mixer" >
    <i name="AMIX">      0.40000000</i>
    <i name="BMIX">      0.01000000</i>
    <i name="AMIN">      0.01000000</i>
    <i name="AMIX_MAG">      1.60000000</i>
    <i name="BMIX_MAG">      0.01000000</i>
    <separator name="electronic mixer details" >
     <i type="int" name="IMIX">     4</i>
     <i type="logical" name="MIXFIRST"> F  </i>
     <i type="int" name="MAXMIX">   -45</i>
     <i name="WC">    100.00000000</i>
     <i type="int" name="INIMIX">     1</i>
     <i type="int" name="MIXPRE">     1</i>
     <i type="int" name="MREMOVE">     5</i>
    </separator>
   </separator>
   <separator name="electronic dipolcorrection" >
    <i type="logical" name="LDIPOL"> T  </i>
    <i type="logical" name="LMONO"> F  </i>
    <i type="int" name="IDIPOL">     3</i>
    <i name="EPSILON">      1.00000000</i>
    <v name="DIPOL">   -100.00000000   -100.00000000   -100.00000000</v>
    <i name="EFIELD">      0.00000000</i>
   </separator>
  </separator>
  <separator name="grids" >
   <i type="int" name="NGX">   100</i>
   <i type="int" name="NGY">   100</i>
   <i type="int" name="NGZ">   350</i>
   <i type="int" name="NGXF">   200</i>
   <i type="int" name="NGYF">   200</i>
   <i type="int" name="NGZF">   700</i>
   <i type="logical" name="ADDGRID"> F  </i>
  </separator>
  <separator name="ionic" >
   <i type="int" name="NSW">     0</i>
   <i type="int" name="IBRION">    -1</i>
   <i type="int" name="MDALGO">     0</i>
   <i type="int" name="ISIF">     2</i>
   <i name="PSTRESS">      0.00000000</i>
   <i name="EDIFFG">      0.00100000</i>
   <i type="int" name="NFREE">     0</i>
   <i name="POTIM">      0.50000000</i>
   <i name="SMASS">     -3.00000000</i>
   <i name="SCALEE">      1.00000000</i>
  </separator>
  <separator name="ionic md" >
   <i name="TEBEG">      0.00010000</i>
   <i name="TEEND">      0.00010000</i>
   <i type="int" name="NBLOCK">     1</i>
   <i type="int" name="KBLOCK">     1</i>
   <i type="int" name="NPACO">   256</i>
   <i name="APACO">     16.00000000</i>
  </separator>
  <separator name="symmetry" >
   <i type="int" name="ISYM">     0</i>
   <i name="SYMPREC">      0.00001000</i>
  </separator>
  <separator name="dos" >
   <i type="int" name="LORBIT">     0</i>
   <v name="RWIGS">     -1.00000000     -1.00000000     -1.00000000     -1.00000000     -1.00000000</v>
   <i type="int" name="NEDOS">   301</i>
   <i name="EMIN">     10.00000000</i>
   <i name="EMAX">    -10.00000000</i>
   <i name="EFERMI">      0.00000000</i>
  </separator>
  <separator name="writing" >
   <i type="int" name="NWRITE">     2</i>
   <i type="logical" name="LWAVE"> F  </i>
   <i type="logical" name="LDOWNSAMPLE"> F  </i>
   <i type="logical" name="LCHARG"> T  </i>
   <i type="logical" name="LPARD"> F  </i>
   <i type="logical" name="LVTOT"> T  </i>
   <i type="logical" name="LVHAR"> F  </i>
   <i type="logical" name="LELF"> F  </i>
   <i type="logical" name="LOPTICS"> F  </i>
   <v name="STM">      0.00000000      0.00000000      0.00000000      0.00000000      0.00000000      0.00000000      0.00000000</v>
  </separator>
  <separator name="performance" >
   <i type="int" name="NPAR">     4</i>
   <i type="int" name="NSIM">     4</i>
   <i type="int" name="NBLK">    -1</i>
   <i type="logical" name="LPLANE"> T  </i>
   <i type="logical" name="LSCALAPACK"> T  </i>
   <i type="logical" name="LSCAAWARE"> F  </i>
   <i type="logical" name="LSCALU"> F  </i>
   <i type="logical" name="LASYNC"> F  </i>
   <i type="logical" name="LORBITALREAL"> F  </i>
  </separator>
  <separator name="miscellaneous" >
   <i type="int" name="IDIOT">     3</i>
   <i type="int" name="PHON_NSTRUCT">    -1</i>
   <i type="logical" name="LMUSIC"> F  </i>
   <v name="POMASS">      1.00000000     12.01100000     14.00100000    126.90400000    207.20000000</v>
   <v name="DARWINR">      0.00000000      0.00000000      0.00000000      0.00000000      0.00000000</v>
   <v name="DARWINV">      1.00000000      1.00000000      1.00000000      1.00000000      1.00000000</v>
   <i type="logical" name="LCORR"> T  </i>
  </separator>
  <i type="logical" name="GGA_COMPAT"> F  </i>
  <i type="logical" name="LBERRY"> F  </i>
  <i type="int" name="ICORELEVEL">     0</i>
  <i type="logical" name="LDAU"> F  </i>
  <i type="int" name="I_CONSTRAINED_M">     0</i>
  <separator name="electronic exchange-correlation" >
   <i type="string" name="GGA">--</i>
   <i type="int" name="VOSKOWN">     0</i>
   <i type="logical" name="LHFCALC"> F  </i>
   <i type="string" name="PRECFOCK"></i>
   <i type="logical" name="LSYMGRAD"> F  </i>
   <i type="logical" name="LHFONE"> F  </i>
   <i type="logical" name="LRHFCALC"> F  </i>
   <i type="logical" name="LTHOMAS"> F  </i>
   <i type="logical" name="LMODELHF"> F  </i>
   <i type="logical" name="LFOCKACE"> F  </i>
   <i name="ENCUT4O">     -1.00000000</i>
   <i type="int" name="EXXOEP">     0</i>
   <i type="int" name="FOURORBIT">     0</i>
   <i name="AEXX">      0.00000000</i>
   <i name="HFALPHA">      0.00000000</i>
   <i name="MCALPHA">      0.00000000</i>
   <i name="ALDAX">      1.00000000</i>
   <i name="AGGAX">      1.00000000</i>
   <i name="ALDAC">      1.00000000</i>
   <i name="AGGAC">      1.00000000</i>
   <i type="int" name="NKREDX">     1</i>
   <i type="int" name="NKREDY">     1</i>
   <i type="int" name="NKREDZ">     1</i>
   <i type="logical" name="SHIFTRED"> F  </i>
   <i type="logical" name="ODDONLY"> F  </i>
   <i type="logical" name="EVENONLY"> F  </i>
   <i type="int" name="LMAXFOCK">     0</i>
   <i type="int" name="NMAXFOCKAE">     0</i>
   <i type="logical" name="LFOCKAEDFT"> F  </i>
   <i name="HFSCREEN">      0.00000000</i>
   <i name="HFSCREENC">      0.00000000</i>
   <i type="int" name="NBANDSGWLOW">     0</i>
  </separator>
  <separator name="vdW DFT" >
   <i type="logical" name="LUSE_VDW"> F  </i>
   <i name="Zab_VDW">     -0.84910000</i>
   <i name="PARAM1">      0.12340000</i>
   <i name="PARAM2">      1.00000000</i>
   <i name="PARAM3">      0.00000000</i>
  </separator>
  <separator name="model GW" >
   <i type="int" name="MODEL_GW">     0</i>
   <i name="MODEL_EPS0">     37.63423484</i>
   <i name="MODEL_ALPHA">      1.00000000</i>
  </separator>
  <separator name="linear response parameters" >
   <i type="logical" name="LEPSILON"> F  </i>
   <i type="logical" name="LRPA"> F  </i>
   <i type="logical" name="LNABLA"> F  </i>
   <i type="logical" name="LVEL"> F  </i>
   <i type="int" name="KINTER">     0</i>
   <i name="CSHIFT">      0.10000000</i>
   <i name="OMEGAMAX">     -1.00000000</i>
   <i name="DEG_THRESHOLD">      0.00200000</i>
   <i name="RTIME">     -0.10000000</i>
   <i name="WPLASMAI">      0.00000000</i>
   <v name="DFIELD">      0.00000000      0.00000000      0.00000000</v>
   <v name="WPLASMA">      0.00000000      0.00000000      0.00000000      0.00000000      0.00000000      0.00000000      0.00000000      0.00000000      0.00000000</v>
  </separator>
  <separator name="orbital magnetization" >
   <i type="logical" name="NUCIND"> F  </i>
   <v name="MAGPOS">      0.00000000      0.00000000      0.00000000</v>
   <i type="logical" name="LNICSALL"> T  </i>
   <i type="logical" name="ORBITALMAG"> F  </i>
   <i type="logical" name="LMAGBLOCH"> F  </i>
   <i type="logical" name="LCHIMAG"> F  </i>
   <i type="logical" name="LGAUGE"> T  </i>
   <i type="int" name="MAGATOM">     0</i>
   <v name="MAGDIPOL">      0.00000000      0.00000000      0.00000000</v>
   <v name="AVECCONST">      0.00000000      0.00000000      0.00000000</v>
  </separator>
  <separator name="response functions" >
   <i type="logical" name="LFINITE_TEMPERATURE"> F  </i>
   <i type="logical" name="LADDER"> F  </i>
   <i type="logical" name="LRPAFORCE"> F  </i>
   <i type="logical" name="LFXC"> F  </i>
   <i type="logical" name="LHARTREE"> T  </i>
   <i type="int" name="IBSE">     0</i>
   <v type="int" name="KPOINT">    -1     0     0     0</v>
   <i type="logical" name="LTCTC"> F  </i>
   <i type="logical" name="LTCTE"> F  </i>
   <i type="logical" name="LTETE"> F  </i>
   <i type="logical" name="LTRIPLET"> F  </i>
   <i type="logical" name="LFXCEPS"> F  </i>
   <i type="logical" name="LFXHEG"> F  </i>
   <i type="int" name="NATURALO">     2</i>
   <i type="logical" name="LHOLEGF"> F  </i>
   <i type="logical" name="L2ORDER"> F  </i>
   <i type="logical" name="LDMP1"> F  </i>
   <i type="logical" name="LMP2LT"> F  </i>
   <i type="logical" name="LSMP2LT"> F  </i>
   <i type="logical" name="LGWLF"> F  </i>
   <i name="ENCUTGW">     -2.00000000</i>
   <i name="ENCUTGWSOFT">     -2.00000000</i>
   <i name="ENCUTLF">     -1.00000000</i>
   <i type="logical" name="LESF_SPLINES"> F  </i>
   <i type="int" name="LMAXMP2">    -1</i>
   <i name="SCISSOR">      0.00000000</i>
   <i type="int" name="NOMEGA">     0</i>
   <i type="int" name="NOMEGAR">     0</i>
   <i type="int" name="NBANDSGW">    -1</i>
   <i type="int" name="NBANDSO">    -1</i>
   <i type="int" name="NBANDSV">    -1</i>
   <i type="int" name="NELM">   600</i>
   <i type="int" name="NELMHF">     1</i>
   <i type="int" name="DIM">     3</i>
   <i type="int" name="IESPILON">     4</i>
   <i type="int" name="ANTIRES">     0</i>
   <i name="OMEGAMAX">    -30.00000000</i>
   <i name="OMEGAMIN">    -30.00000000</i>
   <i name="OMEGATL">   -200.00000000</i>
   <i type="int" name="OMEGAGRID">     0</i>
   <i name="CSHIFT">     -0.10000000</i>
   <i type="logical" name="LSELFENERGY"> F  </i>
   <i type="logical" name="LSPECTRAL"> F  </i>
   <i type="logical" name="LSPECTRALGW"> F  </i>
   <i type="logical" name="LSINGLES"> F  </i>
   <i type="logical" name="LFERMIGW"> F  </i>
   <i type="logical" name="ODDONLYGW"> F  </i>
   <i type="logical" name="EVENONLYGW"> F  </i>
   <i type="int" name="NKREDLFX">     1</i>
   <i type="int" name="NKREDLFY">     1</i>
   <i type="int" name="NKREDLFZ">     1</i>
   <i type="int" name="MAXMEM">  2800</i>
   <i type="int" name="TELESCOPE">     0</i>
   <i type="int" name="NTAUPAR">    -1</i>
   <i type="int" name="NOMEGAPAR">    -1</i>
   <i name="DAMP_NEWTON">      0.80000001</i>
   <i name="LAMBDA">      1.00000000</i>
  </separator>
  <separator name="External order field" >
   <i name="OFIELD_KAPPA">      0.00000000</i>
   <v name="OFIELD_K">      0.00000000      0.00000000      0.00000000</v>
   <i name="OFIELD_Q6_NEAR">      0.00000000</i>
   <i name="OFIELD_Q6_FAR">      0.00000000</i>
   <i name="OFIELD_A">      0.00000000</i>
  </separator>
 </parameters>
 <atominfo>
  <atoms>     325 </atoms>
  <types>       5 </types>
  <array name="atoms" >
   <dimension dim="1">ion</dimension>
   <field type="string">element</field>
   <field type="int">atomtype</field>
   <set>
    <rc><c>H </c><c>   1</c></rc>
    <rc><c>H </c><c>   1</c></rc>
    <rc><c>H </c><c>   1</c></rc>
    <rc><c>H </c><c>   1</c></rc>
    <rc><c>H </c><c>   1</c></rc>
    <rc><c>H </c><c>   1</c></rc>
    <rc><c>H </c><c>   1</c></rc>
    <rc><c>H </c><c>   1</c></rc>
    <rc><c>H </c><c>   1</c></rc>
    <rc><c>H </c><c>   1</c></rc>
    <rc><c>H </c><c>   1</c></rc>
    <rc><c>H </c><c>   1</c></rc>
    <rc><c>H </c><c>   1</c></rc>
    <rc><c>H </c><c>   1</c></rc>
    <rc><c>H </c><c>   1</c></rc>
    <rc><c>H </c><c>   1</c></rc>
    <rc><c>H </c><c>   1</c></rc>
    <rc><c>H </c><c>   1</c></rc>
    <rc><c>H </c><c>   1</c></rc>
    <rc><c>H </c><c>   1</c></rc>
    <rc><c>H </c><c>   1</c></rc>
    <rc><c>H </c><c>   1</c></rc>
    <rc><c>H </c><c>   1</c></rc>
    <rc><c>H </c><c>   1</c></rc>
    <rc><c>H </c><c>   1</c></rc>
    <rc><c>H </c><c>   1</c></rc>
    <rc><c>H </c><c>   1</c></rc>
    <rc><c>H </c><c>   1</c></rc>
    <rc><c>H </c><c>   1</c></rc>
    <rc><c>H </c><c>   1</c></rc>
    <rc><c>H </c><c>   1</c></rc>
    <rc><c>H </c><c>   1</c></rc>
    <rc><c>H </c><c>   1</c></rc>
    <rc><c>H </c><c>   1</c></rc>
    <rc><c>H </c><c>   1</c></rc>
    <rc><c>H </c><c>   1</c></rc>
    <rc><c>H </c><c>   1</c></rc>
    <rc><c>H </c><c>   1</c></rc>
    <rc><c>H </c><c>   1</c></rc>
    <rc><c>H </c><c>   1</c></rc>
    <rc><c>H </c><c>   1</c></rc>
    <rc><c>H </c><c>   1</c></rc>
    <rc><c>H </c><c>   1</c></rc>
    <rc><c>H </c><c>   1</c></rc>
    <rc><c>H </c><c>   1</c></rc>
    <rc><c>H </c><c>   1</c></rc>
    <rc><c>H </c><c>   1</c></rc>
    <rc><c>H </c><c>   1</c></rc>
    <rc><c>H </c><c>   1</c></rc>
    <rc><c>H </c><c>   1</c></rc>
    <rc><c>H </c><c>   1</c></rc>
    <rc><c>H </c><c>   1</c></rc>
    <rc><c>H </c><c>   1</c></rc>
    <rc><c>H </c><c>   1</c></rc>
    <rc><c>H </c><c>   1</c></rc>
    <rc><c>H </c><c>   1</c></rc>
    <rc><c>H </c><c>   1</c></rc>
    <rc><c>H </c><c>   1</c></rc>
    <rc><c>H </c><c>   1</c></rc>
    <rc><c>H </c><c>   1</c></rc>
    <rc><c>H </c><c>   1</c></rc>
    <rc><c>H </c><c>   1</c></rc>
    <rc><c>H </c><c>   1</c></rc>
    <rc><c>H </c><c>   1</c></rc>
    <rc><c>H </c><c>   1</c></rc>
    <rc><c>H </c><c>   1</c></rc>
    <rc><c>H </c><c>   1</c></rc>
    <rc><c>H </c><c>   1</c></rc>
    <rc><c>H </c><c>   1</c></rc>
    <rc><c>H </c><c>   1</c></rc>
    <rc><c>H </c><c>   1</c></rc>
    <rc><c>H </c><c>   1</c></rc>
    <rc><c>H </c><c>   1</c></rc>
    <rc><c>H </c><c>   1</c></rc>
    <rc><c>H </c><c>   1</c></rc>
    <rc><c>H </c><c>   1</c></rc>
    <rc><c>H </c><c>   1</c></rc>
    <rc><c>H </c><c>   1</c></rc>
    <rc><c>H </c><c>   1</c></rc>
    <rc><c>H </c><c>   1</c></rc>
    <rc><c>H </c><c>   1</c></rc>
    <rc><c>H </c><c>   1</c></rc>
    <rc><c>H </c><c>   1</c></rc>
    <rc><c>H </c><c>   1</c></rc>
    <rc><c>H </c><c>   1</c></rc>
    <rc><c>H </c><c>   1</c></rc>
    <rc><c>H </c><c>   1</c></rc>
    <rc><c>H </c><c>   1</c></rc>
    <rc><c>H </c><c>   1</c></rc>
    <rc><c>H </c><c>   1</c></rc>
    <rc><c>H </c><c>   1</c></rc>
    <rc><c>H </c><c>   1</c></rc>
    <rc><c>H </c><c>   1</c></rc>
    <rc><c>H </c><c>   1</c></rc>
    <rc><c>H </c><c>   1</c></rc>
    <rc><c>H </c><c>   1</c></rc>
    <rc><c>H </c><c>   1</c></rc>
    <rc><c>H </c><c>   1</c></rc>
    <rc><c>H </c><c>   1</c></rc>
    <rc><c>H </c><c>   1</c></rc>
    <rc><c>H </c><c>   1</c></rc>
    <rc><c>H </c><c>   1</c></rc>
    <rc><c>H </c><c>   1</c></rc>
    <rc><c>H </c><c>   1</c></rc>
    <rc><c>H </c><c>   1</c></rc>
    <rc><c>H </c><c>   1</c></rc>
    <rc><c>H </c><c>   1</c></rc>
    <rc><c>H </c><c>   1</c></rc>
    <rc><c>H </c><c>   1</c></rc>
    <rc><c>H </c><c>   1</c></rc>
    <rc><c>H </c><c>   1</c></rc>
    <rc><c>H </c><c>   1</c></rc>
    <rc><c>H </c><c>   1</c></rc>
    <rc><c>H </c><c>   1</c></rc>
    <rc><c>H </c><c>   1</c></rc>
    <rc><c>H </c><c>   1</c></rc>
    <rc><c>H </c><c>   1</c></rc>
    <rc><c>H </c><c>   1</c></rc>
    <rc><c>H </c><c>   1</c></rc>
    <rc><c>H </c><c>   1</c></rc>
    <rc><c>H </c><c>   1</c></rc>
    <rc><c>H </c><c>   1</c></rc>
    <rc><c>H </c><c>   1</c></rc>
    <rc><c>H </c><c>   1</c></rc>
    <rc><c>H </c><c>   1</c></rc>
    <rc><c>H </c><c>   1</c></rc>
    <rc><c>H </c><c>   1</c></rc>
    <rc><c>H </c><c>   1</c></rc>
    <rc><c>H </c><c>   1</c></rc>
    <rc><c>H </c><c>   1</c></rc>
    <rc><c>H </c><c>   1</c></rc>
    <rc><c>H </c><c>   1</c></rc>
    <rc><c>H </c><c>   1</c></rc>
    <rc><c>H </c><c>   1</c></rc>
    <rc><c>H </c><c>   1</c></rc>
    <rc><c>H </c><c>   1</c></rc>
    <rc><c>H </c><c>   1</c></rc>
    <rc><c>H </c><c>   1</c></rc>
    <rc><c>H </c><c>   1</c></rc>
    <rc><c>H </c><c>   1</c></rc>
    <rc><c>H </c><c>   1</c></rc>
    <rc><c>H </c><c>   1</c></rc>
    <rc><c>H </c><c>   1</c></rc>
    <rc><c>C </c><c>   2</c></rc>
    <rc><c>C </c><c>   2</c></rc>
    <rc><c>C </c><c>   2</c></rc>
    <rc><c>C </c><c>   2</c></rc>
    <rc><c>C </c><c>   2</c></rc>
    <rc><c>C </c><c>   2</c></rc>
    <rc><c>C </c><c>   2</c></rc>
    <rc><c>C </c><c>   2</c></rc>
    <rc><c>C </c><c>   2</c></rc>
    <rc><c>C </c><c>   2</c></rc>
    <rc><c>C </c><c>   2</c></rc>
    <rc><c>C </c><c>   2</c></rc>
    <rc><c>C </c><c>   2</c></rc>
    <rc><c>C </c><c>   2</c></rc>
    <rc><c>C </c><c>   2</c></rc>
    <rc><c>C </c><c>   2</c></rc>
    <rc><c>C </c><c>   2</c></rc>
    <rc><c>C </c><c>   2</c></rc>
    <rc><c>C </c><c>   2</c></rc>
    <rc><c>C </c><c>   2</c></rc>
    <rc><c>C </c><c>   2</c></rc>
    <rc><c>C </c><c>   2</c></rc>
    <rc><c>C </c><c>   2</c></rc>
    <rc><c>C </c><c>   2</c></rc>
    <rc><c>C </c><c>   2</c></rc>
    <rc><c>C </c><c>   2</c></rc>
    <rc><c>C </c><c>   2</c></rc>
    <rc><c>C </c><c>   2</c></rc>
    <rc><c>C </c><c>   2</c></rc>
    <rc><c>C </c><c>   2</c></rc>
    <rc><c>C </c><c>   2</c></rc>
    <rc><c>C </c><c>   2</c></rc>
    <rc><c>C </c><c>   2</c></rc>
    <rc><c>C </c><c>   2</c></rc>
    <rc><c>C </c><c>   2</c></rc>
    <rc><c>C </c><c>   2</c></rc>
    <rc><c>C </c><c>   2</c></rc>
    <rc><c>C </c><c>   2</c></rc>
    <rc><c>C </c><c>   2</c></rc>
    <rc><c>N </c><c>   3</c></rc>
    <rc><c>N </c><c>   3</c></rc>
    <rc><c>N </c><c>   3</c></rc>
    <rc><c>N </c><c>   3</c></rc>
    <rc><c>N </c><c>   3</c></rc>
    <rc><c>N </c><c>   3</c></rc>
    <rc><c>N </c><c>   3</c></rc>
    <rc><c>N </c><c>   3</c></rc>
    <rc><c>N </c><c>   3</c></rc>
    <rc><c>N </c><c>   3</c></rc>
    <rc><c>N </c><c>   3</c></rc>
    <rc><c>N </c><c>   3</c></rc>
    <rc><c>N </c><c>   3</c></rc>
    <rc><c>N </c><c>   3</c></rc>
    <rc><c>N </c><c>   3</c></rc>
    <rc><c>N </c><c>   3</c></rc>
    <rc><c>N </c><c>   3</c></rc>
    <rc><c>N </c><c>   3</c></rc>
    <rc><c>N </c><c>   3</c></rc>
    <rc><c>N </c><c>   3</c></rc>
    <rc><c>N </c><c>   3</c></rc>
    <rc><c>N </c><c>   3</c></rc>
    <rc><c>N </c><c>   3</c></rc>
    <rc><c>N </c><c>   3</c></rc>
    <rc><c>N </c><c>   3</c></rc>
    <rc><c>N </c><c>   3</c></rc>
    <rc><c>N </c><c>   3</c></rc>
    <rc><c>N </c><c>   3</c></rc>
    <rc><c>N </c><c>   3</c></rc>
    <rc><c>N </c><c>   3</c></rc>
    <rc><c>N </c><c>   3</c></rc>
    <rc><c>N </c><c>   3</c></rc>
    <rc><c>N </c><c>   3</c></rc>
    <rc><c>N </c><c>   3</c></rc>
    <rc><c>N </c><c>   3</c></rc>
    <rc><c>N </c><c>   3</c></rc>
    <rc><c>N </c><c>   3</c></rc>
    <rc><c>N </c><c>   3</c></rc>
    <rc><c>N </c><c>   3</c></rc>
    <rc><c>N </c><c>   3</c></rc>
    <rc><c>N </c><c>   3</c></rc>
    <rc><c>N </c><c>   3</c></rc>
    <rc><c>N </c><c>   3</c></rc>
    <rc><c>N </c><c>   3</c></rc>
    <rc><c>N </c><c>   3</c></rc>
    <rc><c>N </c><c>   3</c></rc>
    <rc><c>N </c><c>   3</c></rc>
    <rc><c>I </c><c>   4</c></rc>
    <rc><c>I </c><c>   4</c></rc>
    <rc><c>I </c><c>   4</c></rc>
    <rc><c>I </c><c>   4</c></rc>
    <rc><c>I </c><c>   4</c></rc>
    <rc><c>I </c><c>   4</c></rc>
    <rc><c>I </c><c>   4</c></rc>
    <rc><c>I </c><c>   4</c></rc>
    <rc><c>I </c><c>   4</c></rc>
    <rc><c>I </c><c>   4</c></rc>
    <rc><c>I </c><c>   4</c></rc>
    <rc><c>I </c><c>   4</c></rc>
    <rc><c>I </c><c>   4</c></rc>
    <rc><c>I </c><c>   4</c></rc>
    <rc><c>I </c><c>   4</c></rc>
    <rc><c>I </c><c>   4</c></rc>
    <rc><c>I </c><c>   4</c></rc>
    <rc><c>I </c><c>   4</c></rc>
    <rc><c>I </c><c>   4</c></rc>
    <rc><c>I </c><c>   4</c></rc>
    <rc><c>I </c><c>   4</c></rc>
    <rc><c>I </c><c>   4</c></rc>
    <rc><c>I </c><c>   4</c></rc>
    <rc><c>I </c><c>   4</c></rc>
    <rc><c>I </c><c>   4</c></rc>
    <rc><c>I </c><c>   4</c></rc>
    <rc><c>I </c><c>   4</c></rc>
    <rc><c>I </c><c>   4</c></rc>
    <rc><c>I </c><c>   4</c></rc>
    <rc><c>I </c><c>   4</c></rc>
    <rc><c>I </c><c>   4</c></rc>
    <rc><c>I </c><c>   4</c></rc>
    <rc><c>I </c><c>   4</c></rc>
    <rc><c>I </c><c>   4</c></rc>
    <rc><c>I </c><c>   4</c></rc>
    <rc><c>I </c><c>   4</c></rc>
    <rc><c>I </c><c>   4</c></rc>
    <rc><c>I </c><c>   4</c></rc>
    <rc><c>I </c><c>   4</c></rc>
    <rc><c>I </c><c>   4</c></rc>
    <rc><c>I </c><c>   4</c></rc>
    <rc><c>I </c><c>   4</c></rc>
    <rc><c>I </c><c>   4</c></rc>
    <rc><c>I </c><c>   4</c></rc>
    <rc><c>I </c><c>   4</c></rc>
    <rc><c>I </c><c>   4</c></rc>
    <rc><c>I </c><c>   4</c></rc>
    <rc><c>I </c><c>   4</c></rc>
    <rc><c>I </c><c>   4</c></rc>
    <rc><c>I </c><c>   4</c></rc>
    <rc><c>I </c><c>   4</c></rc>
    <rc><c>I </c><c>   4</c></rc>
    <rc><c>I </c><c>   4</c></rc>
    <rc><c>I </c><c>   4</c></rc>
    <rc><c>I </c><c>   4</c></rc>
    <rc><c>I </c><c>   4</c></rc>
    <rc><c>I </c><c>   4</c></rc>
    <rc><c>I </c><c>   4</c></rc>
    <rc><c>I </c><c>   4</c></rc>
    <rc><c>I </c><c>   4</c></rc>
    <rc><c>I </c><c>   4</c></rc>
    <rc><c>I </c><c>   4</c></rc>
    <rc><c>I </c><c>   4</c></rc>
    <rc><c>I </c><c>   4</c></rc>
    <rc><c>I </c><c>   4</c></rc>
    <rc><c>I </c><c>   4</c></rc>
    <rc><c>I </c><c>   4</c></rc>
    <rc><c>I </c><c>   4</c></rc>
    <rc><c>I </c><c>   4</c></rc>
    <rc><c>I </c><c>   4</c></rc>
    <rc><c>I </c><c>   4</c></rc>
    <rc><c>I </c><c>   4</c></rc>
    <rc><c>Pb</c><c>   5</c></rc>
    <rc><c>Pb</c><c>   5</c></rc>
    <rc><c>Pb</c><c>   5</c></rc>
    <rc><c>Pb</c><c>   5</c></rc>
    <rc><c>Pb</c><c>   5</c></rc>
    <rc><c>Pb</c><c>   5</c></rc>
    <rc><c>Pb</c><c>   5</c></rc>
    <rc><c>Pb</c><c>   5</c></rc>
    <rc><c>Pb</c><c>   5</c></rc>
    <rc><c>Pb</c><c>   5</c></rc>
    <rc><c>Pb</c><c>   5</c></rc>
    <rc><c>Pb</c><c>   5</c></rc>
    <rc><c>Pb</c><c>   5</c></rc>
    <rc><c>Pb</c><c>   5</c></rc>
    <rc><c>Pb</c><c>   5</c></rc>
    <rc><c>Pb</c><c>   5</c></rc>
    <rc><c>Pb</c><c>   5</c></rc>
    <rc><c>Pb</c><c>   5</c></rc>
    <rc><c>Pb</c><c>   5</c></rc>
    <rc><c>Pb</c><c>   5</c></rc>
    <rc><c>Pb</c><c>   5</c></rc>
    <rc><c>Pb</c><c>   5</c></rc>
    <rc><c>Pb</c><c>   5</c></rc>
    <rc><c>Pb</c><c>   5</c></rc>
   </set>
  </array>
  <array name="atomtypes" >
   <dimension dim="1">type</dimension>
   <field type="int">atomspertype</field>
   <field type="string">element</field>
   <field>mass</field>
   <field>valence</field>
   <field type="string">pseudopotential</field>
   <set>
    <rc><c> 143</c><c>H </c><c>      1.00000000</c><c>      1.00000000</c><c>  PAW_PBE H 15Jun2001                   </c></rc>
    <rc><c>  39</c><c>C </c><c>     12.01100000</c><c>      4.00000000</c><c>  PAW_PBE C 08Apr2002                   </c></rc>
    <rc><c>  47</c><c>N </c><c>     14.00100000</c><c>      5.00000000</c><c>  PAW_PBE N 08Apr2002                   </c></rc>
    <rc><c>  72</c><c>I </c><c>    126.90400000</c><c>      7.00000000</c><c>  PAW_PBE I 08Apr2002                   </c></rc>
    <rc><c>  24</c><c>Pb</c><c>    207.20000000</c><c>      4.00000000</c><c>  PAW_PBE Pb 08Apr2002                  </c></rc>
   </set>
  </array>
 </atominfo>
 <structure name="initialpos" >
  <crystal>
   <varray name="basis" >
    <v>      18.06080055       0.00000000       0.00000000 </v>
    <v>      -0.00491865      18.06279945       0.00000000 </v>
    <v>       0.00000000       0.00000000      62.48749924 </v>
   </varray>
   <i name="volume">  20385.21054034 </i>
   <varray name="rec_basis" >
    <v>       0.05536853       0.00001508      -0.00000000 </v>
    <v>       0.00000000       0.05536240       0.00000000 </v>
    <v>       0.00000000      -0.00000000       0.01600320 </v>
   </varray>
  </crystal>
  <varray name="positions" >
   <v>       0.43796401       0.30262041       0.57428289 </v>
   <v>       0.43630864       0.83329616       0.57530873 </v>
   <v>       0.98450699       0.31052087       0.58241214 </v>
   <v>       0.96710164       0.80171411       0.58225342 </v>
   <v>       0.31793235       0.98062429       0.57731670 </v>
   <v>       0.31887662       0.55992296       0.57808328 </v>
   <v>       0.79155255       0.06838086       0.58215782 </v>
   <v>       0.04630437       0.13644714       0.56105918 </v>
   <v>       0.05539890       0.64121152       0.55906806 </v>
   <v>       0.58594140       0.19052472       0.55343418 </v>
   <v>       0.53970112       0.66728445       0.56298052 </v>
   <v>       0.34731766       0.03873466       0.55720062 </v>
   <v>       0.28809844       0.61647010       0.55770127 </v>
   <v>       0.85945822       0.05226863       0.56351310 </v>
   <v>       0.02266414       0.17610678       0.58494701 </v>
   <v>       0.01873058       0.67394800       0.58268185 </v>
   <v>       0.56461203       0.25894042       0.57191767 </v>
   <v>       0.47460749       0.70277227       0.58180686 </v>
   <v>       0.26095694       0.43361365       0.58013898 </v>
   <v>       0.18273676       0.94491277       0.57709687 </v>
   <v>       0.67933952       0.98909259       0.58096367 </v>
   <v>       0.37192285       0.26027509       0.55771806 </v>
   <v>       0.48092394       0.88087149       0.55470476 </v>
   <v>       0.00234892       0.35599149       0.55837102 </v>
   <v>       0.97690298       0.85230064       0.55895738 </v>
   <v>       0.19034628       0.41526124       0.56179657 </v>
   <v>       0.12827395       0.98651744       0.55770194 </v>
   <v>       0.68099213       0.91797936       0.56198612 </v>
   <v>       0.46093923       0.18599886       0.54140944 </v>
   <v>       0.54966319       0.77683456       0.54447932 </v>
   <v>       0.03755155       0.24427839       0.54146945 </v>
   <v>       0.03213933       0.75239984       0.54090561 </v>
   <v>       0.20407793       0.52903710       0.54498162 </v>
   <v>       0.22768151       0.05131641       0.54296975 </v>
   <v>       0.79462714       0.95087816       0.54879550 </v>
   <v>       0.46403312       0.31502636       0.67424631 </v>
   <v>       0.43292606       0.81891032       0.67107068 </v>
   <v>       0.97176936       0.27715600       0.68211110 </v>
   <v>       0.92623547       0.77766608       0.67408820 </v>
   <v>       0.29718296       0.05490585       0.67488969 </v>
   <v>       0.30725727       0.54329475       0.67482198 </v>
   <v>       0.78914869       0.06033139       0.67549753 </v>
   <v>       0.80162528       0.58658121       0.66933315 </v>
   <v>       0.08423929       0.16806517       0.64484174 </v>
   <v>       0.10130315       0.69875906       0.65605566 </v>
   <v>       0.57223630       0.16205736       0.65197617 </v>
   <v>       0.57505234       0.67828987       0.65802938 </v>
   <v>       0.17700917       0.41300058       0.64942127 </v>
   <v>       0.17721213       0.91529224       0.64967334 </v>
   <v>       0.69823660       0.41569163       0.66022104 </v>
   <v>       0.67476699       0.92138448       0.64805680 </v>
   <v>       0.06914608       0.17905066       0.67205690 </v>
   <v>       0.04184714       0.69453710       0.67753084 </v>
   <v>       0.57209678       0.22443166       0.67304447 </v>
   <v>       0.53084240       0.71972778       0.68030227 </v>
   <v>       0.21117854       0.43496392       0.67438946 </v>
   <v>       0.19963604       0.94723634       0.67470526 </v>
   <v>       0.70649897       0.48658606       0.67900996 </v>
   <v>       0.68797442       0.95783779       0.67333823 </v>
   <v>       0.40008397       0.30332906       0.65389452 </v>
   <v>       0.42202782       0.83243567       0.64378538 </v>
   <v>       0.93174543       0.32214935       0.65996354 </v>
   <v>       0.92163269       0.82885155       0.65033442 </v>
   <v>       0.32712302       0.08117239       0.64964825 </v>
   <v>       0.32367185       0.58226400       0.64999158 </v>
   <v>       0.83251192       0.07915686       0.65139030 </v>
   <v>       0.84060467       0.57815068       0.64417328 </v>
   <v>       0.99849095       0.25816266       0.63531695 </v>
   <v>       0.03192934       0.78388776       0.63743908 </v>
   <v>       0.46333145       0.20621950       0.63832640 </v>
   <v>       0.51089812       0.74550773       0.63388832 </v>
   <v>       0.25447390       0.99548509       0.63191063 </v>
   <v>       0.24426204       0.50302636       0.63212405 </v>
   <v>       0.76518614       0.99427931       0.63238314 </v>
   <v>       0.78057868       0.46810903       0.63678996 </v>
   <v>       0.44874502       0.30128397       0.76888902 </v>
   <v>       0.44874501       0.80128391       0.76888902 </v>
   <v>       0.94874497       0.30128397       0.76888902 </v>
   <v>       0.94874501       0.80128391       0.76888902 </v>
   <v>       0.30127600       0.05129450       0.76887296 </v>
   <v>       0.30127601       0.55129450       0.76887296 </v>
   <v>       0.80127594       0.05129450       0.76887296 </v>
   <v>       0.80127598       0.55129450       0.76887296 </v>
   <v>       0.07877100       0.17118050       0.74344197 </v>
   <v>       0.07877101       0.67118045       0.74344197 </v>
   <v>       0.57877100       0.17118050       0.74344197 </v>
   <v>       0.57877099       0.67118045       0.74344197 </v>
   <v>       0.17119950       0.42117448       0.74342103 </v>
   <v>       0.17119950       0.92117451       0.74342103 </v>
   <v>       0.67119951       0.42117448       0.74342103 </v>
   <v>       0.67119950       0.92117451       0.74342103 </v>
   <v>       0.05125600       0.19871499       0.76888902 </v>
   <v>       0.05125600       0.69871493       0.76888902 </v>
   <v>       0.55125603       0.19871499       0.76888902 </v>
   <v>       0.55125602       0.69871493       0.76888902 </v>
   <v>       0.19872349       0.44870397       0.76887205 </v>
   <v>       0.19872349       0.94870397       0.76887205 </v>
   <v>       0.69872352       0.44870397       0.76887205 </v>
   <v>       0.69872351       0.94870397       0.76887205 </v>
   <v>       0.42123152       0.32881747       0.74344197 </v>
   <v>       0.42123151       0.82881744       0.74344197 </v>
   <v>       0.92123147       0.32881747       0.74344197 </v>
   <v>       0.92123151       0.82881744       0.74344197 </v>
   <v>       0.32880050       0.07882500       0.74342103 </v>
   <v>       0.32880049       0.57882496       0.74342103 </v>
   <v>       0.82880048       0.07882500       0.74342103 </v>
   <v>       0.82880052       0.57882496       0.74342103 </v>
   <v>       0.00000350       0.25000148       0.72582199 </v>
   <v>       0.00000350       0.75000145       0.72582199 </v>
   <v>       0.50000351       0.25000148       0.72582199 </v>
   <v>       0.50000350       0.75000145       0.72582199 </v>
   <v>       0.25000050       0.00000000       0.72580398 </v>
   <v>       0.25000052       0.50000000       0.72580398 </v>
   <v>       0.75000050       0.00000000       0.72580398 </v>
   <v>       0.75000049       0.50000000       0.72580398 </v>
   <v>       0.77451496       0.55642723       0.52276899 </v>
   <v>       0.72418871       0.47371762       0.52713082 </v>
   <v>       0.87093850       0.50055073       0.54411994 </v>
   <v>       0.85292015       0.47886777       0.57091729 </v>
   <v>       0.74151921       0.63582362       0.56133609 </v>
   <v>       0.80235310       0.59465662       0.58038000 </v>
   <v>       0.66334592       0.54308889       0.57117662 </v>
   <v>       0.67622016       0.45232890       0.56072464 </v>
   <v>       0.61552352       0.54822616       0.53875656 </v>
   <v>       0.66707536       0.63064042       0.53957759 </v>
   <v>       0.61017141       0.64790616       0.50746417 </v>
   <v>       0.68892505       0.60352230       0.49771353 </v>
   <v>       0.82736541       0.38604535       0.53124511 </v>
   <v>       0.76111938       0.37491237       0.55159482 </v>
   <v>       0.85423505       0.36171548       0.55717260 </v>
   <v>       0.86294124       0.69092288       0.55840948 </v>
   <v>       0.84862356       0.63799403       0.53504671 </v>
   <v>       0.90759339       0.60459948       0.55579610 </v>
   <v>       0.75870153       0.51634960       0.60074906 </v>
   <v>       0.76614635       0.42307459       0.59085359 </v>
   <v>       0.67944508       0.45599744       0.60071170 </v>
   <v>       0.53736419       0.53600919       0.50645637 </v>
   <v>       0.57428055       0.55474509       0.48070079 </v>
   <v>       0.70193855       0.48666050       0.47191128 </v>
   <v>       0.55595278       0.41988123       0.52247944 </v>
   <v>       0.76817803       0.36631775       0.47407715 </v>
   <v>       0.62120997       0.29919854       0.52514788 </v>
   <v>       0.72735264       0.27221603       0.50113457 </v>
   <v>       0.02156287       0.24473528       0.55830277 </v>
   <v>       0.01565614       0.74607198       0.55742283 </v>
   <v>       0.47758812       0.22395447       0.55401260 </v>
   <v>       0.51096968       0.77306829       0.55792757 </v>
   <v>       0.23839074       0.51533858       0.55860971 </v>
   <v>       0.23678732       0.01458361       0.55640310 </v>
   <v>       0.77097878       0.98354197       0.56169309 </v>
   <v>       0.00734007       0.24558524       0.65237896 </v>
   <v>       0.01137662       0.76413809       0.65296288 </v>
   <v>       0.48636113       0.23215168       0.65248732 </v>
   <v>       0.49865006       0.75553756       0.65071224 </v>
   <v>       0.25069570       0.49787099       0.64938306 </v>
   <v>       0.25196285       0.99800398       0.64934820 </v>
   <v>       0.76858695       0.49584472       0.65182770 </v>
   <v>       0.75383607       0.00007982       0.64941383 </v>
   <v>       0.49998898       0.24999498       0.74327702 </v>
   <v>       0.49998903       0.74999496       0.74327702 </v>
   <v>       0.99998898       0.24999498       0.74327702 </v>
   <v>       0.99998903       0.74999496       0.74327702 </v>
   <v>       0.25000050       0.00000100       0.74325596 </v>
   <v>       0.25000052       0.50000100       0.74325596 </v>
   <v>       0.75000050       0.00000100       0.74325596 </v>
   <v>       0.75000049       0.50000100       0.74325596 </v>
   <v>       0.62556995       0.46280787       0.49727295 </v>
   <v>       0.68517581       0.44536525       0.48370878 </v>
   <v>       0.60283703       0.40780175       0.51196592 </v>
   <v>       0.72100543       0.37686369       0.48485384 </v>
   <v>       0.63906704       0.33941969       0.51321782 </v>
   <v>       0.69853468       0.32475896       0.49966726 </v>
   <v>       0.73051165       0.53157963       0.53260665 </v>
   <v>       0.83043045       0.47469353       0.55467967 </v>
   <v>       0.78931799       0.60076151       0.56331555 </v>
   <v>       0.70404955       0.49719269       0.56957602 </v>
   <v>       0.66168593       0.57697805       0.53117417 </v>
   <v>       0.63985266       0.59633817       0.50798564 </v>
   <v>       0.81642474       0.39656011       0.54817239 </v>
   <v>       0.85641201       0.63422612       0.55231347 </v>
   <v>       0.72973054       0.47230924       0.59148091 </v>
   <v>       0.58953755       0.53784518       0.49724338 </v>
   <v>       0.03005142       0.18371560       0.56885212 </v>
   <v>       0.03185093       0.68380533       0.56706740 </v>
   <v>       0.54700175       0.22353507       0.56004964 </v>
   <v>       0.50926578       0.71070180       0.56875237 </v>
   <v>       0.42651580       0.26799208       0.56188771 </v>
   <v>       0.47086156       0.83191672       0.56263945 </v>
   <v>       0.99620942       0.30665563       0.56633575 </v>
   <v>       0.98109620       0.80183069       0.56645436 </v>
   <v>       0.23011082       0.44997692       0.56727484 </v>
   <v>       0.17984712       0.97811976       0.56397749 </v>
   <v>       0.70474044       0.96555571       0.56825788 </v>
   <v>       0.30322202       0.01212309       0.56449761 </v>
   <v>       0.28442736       0.56556593       0.56545715 </v>
   <v>       0.81103897       0.03586565       0.57030590 </v>
   <v>       0.05629821       0.19450447       0.65667565 </v>
   <v>       0.05293571       0.71619867       0.66300614 </v>
   <v>       0.54804259       0.20501335       0.65984487 </v>
   <v>       0.53691689       0.71576953       0.66414315 </v>
   <v>       0.21109583       0.44595432       0.65858992 </v>
   <v>       0.20791696       0.95221636       0.65893581 </v>
   <v>       0.72097521       0.46425126       0.66471388 </v>
   <v>       0.70332453       0.95826351       0.65790216 </v>
   <v>       0.44867917       0.28730773       0.66079428 </v>
   <v>       0.44849086       0.80497252       0.65567967 </v>
   <v>       0.96801723       0.28348277       0.66591859 </v>
   <v>       0.94803755       0.79095895       0.65965983 </v>
   <v>       0.29458047       0.04747711       0.65883295 </v>
   <v>       0.29552092       0.54294998       0.65911932 </v>
   <v>       0.79392014       0.04953325       0.65970159 </v>
   <v>       0.80494153       0.55817341       0.65534189 </v>
   <v>       0.04586250       0.20411950       0.75272599 </v>
   <v>       0.04586250       0.70411946       0.75272599 </v>
   <v>       0.54586251       0.20411950       0.75272599 </v>
   <v>       0.54586250       0.70411946       0.75272599 </v>
   <v>       0.20411900       0.45410100       0.75270499 </v>
   <v>       0.20411899       0.95410095       0.75270499 </v>
   <v>       0.70411898       0.45410100       0.75270499 </v>
   <v>       0.70411896       0.95410095       0.75270499 </v>
   <v>       0.45414002       0.29588849       0.75272697 </v>
   <v>       0.45414001       0.79588852       0.75272697 </v>
   <v>       0.95414002       0.29588849       0.75272697 </v>
[...]
   <v>       0.58594140       0.19052472       0.55343418 </v>
   <v>       0.53970112       0.66728445       0.56298052 </v>
   <v>       0.34731766       0.03873466       0.55720062 </v>
   <v>       0.28809844       0.61647010       0.55770127 </v>
   <v>       0.85945822       0.05226863       0.56351310 </v>
   <v>       0.02266414       0.17610678       0.58494701 </v>
   <v>       0.01873058       0.67394800       0.58268185 </v>
   <v>       0.56461203       0.25894042       0.57191767 </v>
   <v>       0.47460749       0.70277227       0.58180686 </v>
   <v>       0.26095694       0.43361365       0.58013898 </v>
   <v>       0.18273676       0.94491277       0.57709687 </v>
   <v>       0.67933952       0.98909259       0.58096367 </v>
   <v>       0.37192285       0.26027509       0.55771806 </v>
   <v>       0.48092394       0.88087149       0.55470476 </v>
   <v>       0.00234892       0.35599149       0.55837102 </v>
   <v>       0.97690298       0.85230064       0.55895738 </v>
   <v>       0.19034628       0.41526124       0.56179657 </v>
   <v>       0.12827395       0.98651744       0.55770194 </v>
   <v>       0.68099213       0.91797936       0.56198612 </v>
   <v>       0.46093923       0.18599886       0.54140944 </v>
   <v>       0.54966319       0.77683456       0.54447932 </v>
   <v>       0.03755155       0.24427839       0.54146945 </v>
   <v>       0.03213933       0.75239984       0.54090561 </v>
   <v>       0.20407793       0.52903710       0.54498162 </v>
   <v>       0.22768151       0.05131641       0.54296975 </v>
   <v>       0.79462714       0.95087816       0.54879550 </v>
   <v>       0.46403312       0.31502636       0.67424631 </v>
   <v>       0.43292606       0.81891032       0.67107068 </v>
   <v>       0.97176936       0.27715600       0.68211110 </v>
   <v>       0.92623547       0.77766608       0.67408820 </v>
   <v>       0.29718296       0.05490585       0.67488969 </v>
   <v>       0.30725727       0.54329475       0.67482198 </v>
   <v>       0.78914869       0.06033139       0.67549753 </v>
   <v>       0.80162528       0.58658121       0.66933315 </v>
   <v>       0.08423929       0.16806517       0.64484174 </v>
   <v>       0.10130315       0.69875906       0.65605566 </v>
   <v>       0.57223630       0.16205736       0.65197617 </v>
   <v>       0.57505234       0.67828987       0.65802938 </v>
   <v>       0.17700917       0.41300058       0.64942127 </v>
   <v>       0.17721213       0.91529224       0.64967334 </v>
   <v>       0.69823660       0.41569163       0.66022104 </v>
   <v>       0.67476699       0.92138448       0.64805680 </v>
   <v>       0.06914608       0.17905066       0.67205690 </v>
   <v>       0.04184714       0.69453710       0.67753084 </v>
   <v>       0.57209678       0.22443166       0.67304447 </v>
   <v>       0.53084240       0.71972778       0.68030227 </v>
   <v>       0.21117854       0.43496392       0.67438946 </v>
   <v>       0.19963604       0.94723634       0.67470526 </v>
   <v>       0.70649897       0.48658606       0.67900996 </v>
   <v>       0.68797442       0.95783779       0.67333823 </v>
   <v>       0.40008397       0.30332906       0.65389452 </v>
   <v>       0.42202782       0.83243567       0.64378538 </v>
   <v>       0.93174543       0.32214935       0.65996354 </v>
   <v>       0.92163269       0.82885155       0.65033442 </v>
   <v>       0.32712302       0.08117239       0.64964825 </v>
   <v>       0.32367185       0.58226400       0.64999158 </v>
   <v>       0.83251192       0.07915686       0.65139030 </v>
   <v>       0.84060467       0.57815068       0.64417328 </v>
   <v>       0.99849095       0.25816266       0.63531695 </v>
   <v>       0.03192934       0.78388776       0.63743908 </v>
   <v>       0.46333145       0.20621950       0.63832640 </v>
   <v>       0.51089812       0.74550773       0.63388832 </v>
   <v>       0.25447390       0.99548509       0.63191063 </v>
   <v>       0.24426204       0.50302636       0.63212405 </v>
   <v>       0.76518614       0.99427931       0.63238314 </v>
   <v>       0.78057868       0.46810903       0.63678996 </v>
   <v>       0.44874502       0.30128397       0.76888902 </v>
   <v>       0.44874501       0.80128391       0.76888902 </v>
   <v>       0.94874497       0.30128397       0.76888902 </v>
   <v>       0.94874501       0.80128391       0.76888902 </v>
   <v>       0.30127600       0.05129450       0.76887296 </v>
   <v>       0.30127601       0.55129450       0.76887296 </v>
   <v>       0.80127594       0.05129450       0.76887296 </v>
   <v>       0.80127598       0.55129450       0.76887296 </v>
   <v>       0.07877100       0.17118050       0.74344197 </v>
   <v>       0.07877101       0.67118045       0.74344197 </v>
   <v>       0.57877100       0.17118050       0.74344197 </v>
   <v>       0.57877099       0.67118045       0.74344197 </v>
   <v>       0.17119950       0.42117448       0.74342103 </v>
   <v>       0.17119950       0.92117451       0.74342103 </v>
   <v>       0.67119951       0.42117448       0.74342103 </v>
   <v>       0.67119950       0.92117451       0.74342103 </v>
   <v>       0.05125600       0.19871499       0.76888902 </v>
   <v>       0.05125600       0.69871493       0.76888902 </v>
   <v>       0.55125603       0.19871499       0.76888902 </v>
   <v>       0.55125602       0.69871493       0.76888902 </v>
   <v>       0.19872349       0.44870397       0.76887205 </v>
   <v>       0.19872349       0.94870397       0.76887205 </v>
   <v>       0.69872352       0.44870397       0.76887205 </v>
   <v>       0.69872351       0.94870397       0.76887205 </v>
   <v>       0.42123152       0.32881747       0.74344197 </v>
   <v>       0.42123151       0.82881744       0.74344197 </v>
   <v>       0.92123147       0.32881747       0.74344197 </v>
   <v>       0.92123151       0.82881744       0.74344197 </v>
   <v>       0.32880050       0.07882500       0.74342103 </v>
   <v>       0.32880049       0.57882496       0.74342103 </v>
   <v>       0.82880048       0.07882500       0.74342103 </v>
   <v>       0.82880052       0.57882496       0.74342103 </v>
   <v>       0.00000350       0.25000148       0.72582199 </v>
   <v>       0.00000350       0.75000145       0.72582199 </v>
   <v>       0.50000351       0.25000148       0.72582199 </v>
   <v>       0.50000350       0.75000145       0.72582199 </v>
   <v>       0.25000050       0.00000000       0.72580398 </v>
   <v>       0.25000052       0.50000000       0.72580398 </v>
   <v>       0.75000050       0.00000000       0.72580398 </v>
   <v>       0.75000049       0.50000000       0.72580398 </v>
   <v>       0.77451496       0.55642723       0.52276899 </v>
   <v>       0.72418871       0.47371762       0.52713082 </v>
   <v>       0.87093850       0.50055073       0.54411994 </v>
   <v>       0.85292015       0.47886777       0.57091729 </v>
   <v>       0.74151921       0.63582362       0.56133609 </v>
   <v>       0.80235310       0.59465662       0.58038000 </v>
   <v>       0.66334592       0.54308889       0.57117662 </v>
   <v>       0.67622016       0.45232890       0.56072464 </v>
   <v>       0.61552352       0.54822616       0.53875656 </v>
   <v>       0.66707536       0.63064042       0.53957759 </v>
   <v>       0.61017141       0.64790616       0.50746417 </v>
   <v>       0.68892505       0.60352230       0.49771353 </v>
   <v>       0.82736541       0.38604535       0.53124511 </v>
   <v>       0.76111938       0.37491237       0.55159482 </v>
   <v>       0.85423505       0.36171548       0.55717260 </v>
   <v>       0.86294124       0.69092288       0.55840948 </v>
   <v>       0.84862356       0.63799403       0.53504671 </v>
   <v>       0.90759339       0.60459948       0.55579610 </v>
   <v>       0.75870153       0.51634960       0.60074906 </v>
   <v>       0.76614635       0.42307459       0.59085359 </v>
   <v>       0.67944508       0.45599744       0.60071170 </v>
   <v>       0.53736419       0.53600919       0.50645637 </v>
   <v>       0.57428055       0.55474509       0.48070079 </v>
   <v>       0.70193855       0.48666050       0.47191128 </v>
   <v>       0.55595278       0.41988123       0.52247944 </v>
   <v>       0.76817803       0.36631775       0.47407715 </v>
   <v>       0.62120997       0.29919854       0.52514788 </v>
   <v>       0.72735264       0.27221603       0.50113457 </v>
   <v>       0.02156287       0.24473528       0.55830277 </v>
   <v>       0.01565614       0.74607198       0.55742283 </v>
   <v>       0.47758812       0.22395447       0.55401260 </v>
   <v>       0.51096968       0.77306829       0.55792757 </v>
   <v>       0.23839074       0.51533858       0.55860971 </v>
   <v>       0.23678732       0.01458361       0.55640310 </v>
   <v>       0.77097878       0.98354197       0.56169309 </v>
   <v>       0.00734007       0.24558524       0.65237896 </v>
   <v>       0.01137662       0.76413809       0.65296288 </v>
   <v>       0.48636113       0.23215168       0.65248732 </v>
   <v>       0.49865006       0.75553756       0.65071224 </v>
   <v>       0.25069570       0.49787099       0.64938306 </v>
   <v>       0.25196285       0.99800398       0.64934820 </v>
   <v>       0.76858695       0.49584472       0.65182770 </v>
   <v>       0.75383607       0.00007982       0.64941383 </v>
   <v>       0.49998898       0.24999498       0.74327702 </v>
   <v>       0.49998903       0.74999496       0.74327702 </v>
   <v>       0.99998898       0.24999498       0.74327702 </v>
   <v>       0.99998903       0.74999496       0.74327702 </v>
   <v>       0.25000050       0.00000100       0.74325596 </v>
   <v>       0.25000052       0.50000100       0.74325596 </v>
   <v>       0.75000050       0.00000100       0.74325596 </v>
   <v>       0.75000049       0.50000100       0.74325596 </v>
   <v>       0.62556995       0.46280787       0.49727295 </v>
   <v>       0.68517581       0.44536525       0.48370878 </v>
   <v>       0.60283703       0.40780175       0.51196592 </v>
   <v>       0.72100543       0.37686369       0.48485384 </v>
   <v>       0.63906704       0.33941969       0.51321782 </v>
   <v>       0.69853468       0.32475896       0.49966726 </v>
   <v>       0.73051165       0.53157963       0.53260665 </v>
   <v>       0.83043045       0.47469353       0.55467967 </v>
   <v>       0.78931799       0.60076151       0.56331555 </v>
   <v>       0.70404955       0.49719269       0.56957602 </v>
   <v>       0.66168593       0.57697805       0.53117417 </v>
   <v>       0.63985266       0.59633817       0.50798564 </v>
   <v>       0.81642474       0.39656011       0.54817239 </v>
   <v>       0.85641201       0.63422612       0.55231347 </v>
   <v>       0.72973054       0.47230924       0.59148091 </v>
   <v>       0.58953755       0.53784518       0.49724338 </v>
   <v>       0.03005142       0.18371560       0.56885212 </v>
   <v>       0.03185093       0.68380533       0.56706740 </v>
   <v>       0.54700175       0.22353507       0.56004964 </v>
   <v>       0.50926578       0.71070180       0.56875237 </v>
   <v>       0.42651580       0.26799208       0.56188771 </v>
   <v>       0.47086156       0.83191672       0.56263945 </v>
   <v>       0.99620942       0.30665563       0.56633575 </v>
   <v>       0.98109620       0.80183069       0.56645436 </v>
   <v>       0.23011082       0.44997692       0.56727484 </v>
   <v>       0.17984712       0.97811976       0.56397749 </v>
   <v>       0.70474044       0.96555571       0.56825788 </v>
   <v>       0.30322202       0.01212309       0.56449761 </v>
   <v>       0.28442736       0.56556593       0.56545715 </v>
   <v>       0.81103897       0.03586565       0.57030590 </v>
   <v>       0.05629821       0.19450447       0.65667565 </v>
   <v>       0.05293571       0.71619867       0.66300614 </v>
   <v>       0.54804259       0.20501335       0.65984487 </v>
   <v>       0.53691689       0.71576953       0.66414315 </v>
   <v>       0.21109583       0.44595432       0.65858992 </v>
   <v>       0.20791696       0.95221636       0.65893581 </v>
   <v>       0.72097521       0.46425126       0.66471388 </v>
   <v>       0.70332453       0.95826351       0.65790216 </v>
   <v>       0.44867917       0.28730773       0.66079428 </v>
   <v>       0.44849086       0.80497252       0.65567967 </v>
   <v>       0.96801723       0.28348277       0.66591859 </v>
   <v>       0.94803755       0.79095895       0.65965983 </v>
   <v>       0.29458047       0.04747711       0.65883295 </v>
   <v>       0.29552092       0.54294998       0.65911932 </v>
   <v>       0.79392014       0.04953325       0.65970159 </v>
   <v>       0.80494153       0.55817341       0.65534189 </v>
   <v>       0.04586250       0.20411950       0.75272599 </v>
   <v>       0.04586250       0.70411946       0.75272599 </v>
   <v>       0.54586251       0.20411950       0.75272599 </v>
   <v>       0.54586250       0.70411946       0.75272599 </v>
   <v>       0.20411900       0.45410100       0.75270499 </v>
   <v>       0.20411899       0.95410095       0.75270499 </v>
   <v>       0.70411898       0.45410100       0.75270499 </v>
   <v>       0.70411896       0.95410095       0.75270499 </v>
   <v>       0.45414002       0.29588849       0.75272697 </v>
   <v>       0.45414001       0.79588852       0.75272697 </v>
   <v>       0.95414002       0.29588849       0.75272697 </v>
   <v>       0.95414006       0.79588852       0.75272697 </v>
   <v>       0.29588249       0.04590050       0.75270499 </v>
   <v>       0.29588248       0.54590053       0.75270499 </v>
   <v>       0.79588244       0.04590050       0.75270499 </v>
   <v>       0.79588248       0.54590053       0.75270499 </v>
   <v>       0.76376611       0.52577103       0.55506421 </v>
   <v>       0.50020197       0.02401348       0.55187924 </v>
   <v>       0.47060364       0.51073504       0.55733370 </v>
   <v>       0.98893365       0.99603555       0.55022089 </v>
   <v>       0.03671642       0.49386491       0.55283433 </v>
   <v>       0.22929224       0.23567020       0.55224131 </v>
   <v>       0.25871483       0.75977330       0.55295825 </v>
   <v>       0.74484627       0.20968524       0.55541852 </v>
   <v>       0.71614767       0.78737636       0.54732773 </v>
   <v>       0.00117652       0.99300908       0.65412742 </v>
   <v>       0.01425490       0.49843941       0.65561545 </v>
   <v>       0.49524228       0.00419338       0.65459656 </v>
   <v>       0.50435471       0.49151383       0.65588179 </v>
   <v>       0.25330789       0.24667364       0.65499838 </v>
   <v>       0.24609157       0.75221135       0.65420830 </v>
   <v>       0.74231559       0.26099686       0.65512578 </v>
   <v>       0.75214245       0.75530144       0.65367145 </v>
   <v>       0.14197692       0.10415057       0.61117052 </v>
   <v>       0.14643401       0.60544784       0.60910077 </v>
   <v>       0.65108246       0.10353840       0.61065198 </v>
   <v>       0.61732037       0.63644505       0.61463600 </v>
   <v>       0.35291181       0.39076858       0.60864646 </v>
   <v>       0.36105119       0.89217463       0.60816150 </v>
   <v>       0.89252941       0.36235132       0.61434010 </v>
   <v>       0.86382366       0.88468998       0.60873559 </v>
   <v>       0.11625362       0.35689317       0.61149944 </v>
   <v>       0.11468017       0.86562478       0.60740524 </v>
   <v>       0.57785948       0.32813173       0.60663568 </v>
   <v>       0.61434033       0.86419808       0.61154083 </v>
   <v>       0.38293441       0.13148968       0.60772238 </v>
   <v>       0.38870875       0.64005768       0.61257473 </v>
   <v>       0.88818164       0.14082495       0.61198428 </v>
   <v>       0.91377345       0.64856128       0.61520093 </v>
   <v>       0.00000000       0.00000000       0.75492797 </v>
   <v>       0.00000000       0.50000000       0.75492797 </v>
   <v>       0.50000000       0.00000000       0.75492797 </v>
   <v>       0.49999999       0.50000000       0.75492797 </v>
   <v>       0.25000050       0.25000000       0.75493902 </v>
   <v>       0.25000051       0.74999997       0.75493902 </v>
   <v>       0.75000047       0.25000000       0.75493902 </v>
   <v>       0.75000046       0.74999997       0.75493902 </v>
   <v>       0.13579050       0.11421000       0.70478299 </v>
   <v>       0.13579050       0.61420998       0.70478299 </v>
   <v>       0.63579045       0.11421000       0.70478299 </v>
   <v>       0.63579049       0.61420998       0.70478299 </v>
   <v>       0.36420952       0.38578999       0.70478299 </v>
   <v>       0.36420950       0.88578996       0.70478299 </v>
   <v>       0.86420954       0.38578999       0.70478299 </v>
   <v>       0.86420953       0.88578996       0.70478299 </v>
   <v>       0.11421799       0.36421899       0.70478098 </v>
   <v>       0.11421799       0.86421899       0.70478098 </v>
   <v>       0.61421800       0.36421899       0.70478098 </v>
   <v>       0.61421799       0.86421899       0.70478098 </v>
   <v>       0.38578201       0.13578149       0.70478202 </v>
   <v>       0.38578200       0.63578149       0.70478202 </v>
   <v>       0.88578199       0.13578149       0.70478202 </v>
   <v>       0.88578203       0.63578149       0.70478202 </v>
   <v>       0.13466700       0.11533200       0.80125603 </v>
   <v>       0.13466699       0.61533199       0.80125603 </v>
   <v>       0.63466699       0.11533200       0.80125603 </v>
   <v>       0.63466698       0.61533199       0.80125603 </v>
   <v>       0.36533300       0.38466799       0.80125603 </v>
   <v>       0.36533299       0.88466796       0.80125603 </v>
   <v>       0.86533295       0.38466799       0.80125603 </v>
   <v>       0.86533294       0.88466796       0.80125603 </v>
   <v>       0.11532850       0.36533700       0.80126500 </v>
   <v>       0.11532850       0.86533698       0.80126500 </v>
   <v>       0.61532850       0.36533700       0.80126500 </v>
   <v>       0.61532849       0.86533698       0.80126500 </v>
   <v>       0.38467151       0.13466300       0.80126500 </v>
   <v>       0.38467150       0.63466297       0.80126500 </v>
   <v>       0.88467149       0.13466300       0.80126500 </v>
   <v>       0.88467153       0.63466297       0.80126500 </v>
   <v>       0.99451661       0.00021084       0.60496200 </v>
   <v>       0.00603852       0.49925682       0.60646926 </v>
   <v>       0.50090952       0.00748961       0.60318693 </v>
   <v>       0.49634774       0.49557761       0.60556411 </v>
   <v>       0.24526577       0.24490587       0.60299414 </v>
   <v>       0.24822166       0.74631084       0.60224949 </v>
   <v>       0.74484811       0.24959731       0.60384801 </v>
   <v>       0.74055952       0.75473265       0.60302210 </v>
   <v>       0.00000050       0.00000050       0.70482896 </v>
   <v>       0.00000050       0.50000048       0.70482896 </v>
   <v>       0.50000048       0.00000050       0.70482896 </v>
   <v>       0.50000046       0.50000048       0.70482896 </v>
   <v>       0.24999999       0.24999947       0.70482499 </v>
   <v>       0.25000001       0.74999950       0.70482499 </v>
   <v>       0.74999999       0.24999947       0.70482499 </v>
   <v>       0.74999998       0.74999950       0.70482499 </v>
   <v>       0.00000000       0.00000000       0.80731797 </v>
   <v>       0.00000000       0.50000000       0.80731797 </v>
   <v>       0.50000000       0.00000000       0.80731797 </v>
   <v>       0.49999999       0.50000000       0.80731797 </v>
   <v>       0.24999999       0.25000000       0.80731797 </v>
   <v>       0.25000001       0.74999997       0.80731797 </v>
   <v>       0.74999999       0.25000000       0.80731797 </v>
   <v>       0.74999998       0.74999997       0.80731797 </v>
  </varray>
 </structure>
</modeling>
