<?xml version="1.0" encoding="ISO-8859-1"?>
<modeling>
 <generator>
  <i name="program" type="string">vasp </i>
  <i name="version" type="string">6.2.1  </i>
  <i name="subversion" type="string">16May21 (build Nov 15 2021 14:57:28) complex                          parallel </i>
  <i name="platform" type="string">LinuxPGI </i>
  <i name="date" type="string">2023 07 25 </i>
  <i name="time" type="string">00:32:54 </i>
 </generator>
 <incar>
  <i type="string" name="SYSTEM">PSC</i>
  <i type="int" name="ISTART">     1</i>
  <i type="string" name="PREC">Normal</i>
  <i name="BMIX">      0.01000000</i>
  <i name="AMIN">      0.01000000</i>
  <i type="int" name="ICHARG">     1</i>
  <i type="int" name="NELM">   600</i>
  <i type="int" name="ISYM">     0</i>
  <i name="ENCUT">    500.00000000</i>
  <i type="string" name="LREAL">Auto</i>
  <i type="int" name="ISMEAR">     0</i>
  <i name="SIGMA">      0.05000000</i>
  <i type="logical" name="LWAVE"> F  </i>
  <i type="logical" name="LVTOT"> T  </i>
  <i type="logical" name="GGA_COMPAT"> F  </i>
  <i type="logical" name="LDIPOL"> T  </i>
  <i type="int" name="IDIPOL">     3</i>
  <i type="int" name="IVDW">    12</i>
 </incar>
 <primitive_cell>
  <structure name="primitive_cell" >
   <crystal>
    <varray name="basis" >
     <v>      18.06080055       0.00000000       0.00000000 </v>
     <v>      -0.00491865      18.06279945       0.00000000 </v>
     <v>       0.00000000       0.00000000      62.48749924 </v>
    </varray>
    <i name="volume">  20385.21054034 </i>
    <varray name="rec_basis" >
     <v>       0.05536853       0.00001508      -0.00000000 </v>
     <v>       0.00000000       0.05536240       0.00000000 </v>
     <v>       0.00000000      -0.00000000       0.01600320 </v>
    </varray>
   </crystal>
   <varray name="positions" >
    <v>       0.44229444       0.32293277       0.57068574 </v>
    <v>       0.42015159       0.82848883       0.57006678 </v>
    <v>       0.96903661       0.32136753       0.57957076 </v>
    <v>       0.95081749       0.81154974       0.57784775 </v>
    <v>       0.32259708       0.95306168       0.57275146 </v>
    <v>       0.34011904       0.56302905       0.56994114 </v>
    <v>       0.79769651       0.07752538       0.57675507 </v>
    <v>       0.02128831       0.13660562       0.56197288 </v>
    <v>       0.06384181       0.64953001       0.56643873 </v>
    <v>       0.56222693       0.17513600       0.55286455 </v>
    <v>       0.51730854       0.65402505       0.56304242 </v>
    <v>       0.36091578       0.02016479       0.55617350 </v>
    <v>       0.28444583       0.62768644       0.55653795 </v>
    <v>       0.87037850       0.02487492       0.56561936 </v>
    <v>       0.97897288       0.18648820       0.58286603 </v>
    <v>       0.00012680       0.68506645       0.58446218 </v>
    <v>       0.56033173       0.25530213       0.56865732 </v>
    <v>       0.44275546       0.69264942       0.57632883 </v>
    <v>       0.28728832       0.43534407       0.57436287 </v>
    <v>       0.18753916       0.93262386       0.57105727 </v>
    <v>       0.67179278       0.02688472       0.57269517 </v>
    <v>       0.36585678       0.28227661       0.55789351 </v>
    <v>       0.48487661       0.87644736       0.55472503 </v>
    <v>       0.02054669       0.36252959       0.55931341 </v>
    <v>       0.99262032       0.86140619       0.55718273 </v>
    <v>       0.19911929       0.42179596       0.56360675 </v>
    <v>       0.13603524       0.99271773       0.55488296 </v>
    <v>       0.66596753       0.93800549       0.56089447 </v>
    <v>       0.43583829       0.18422264       0.54448500 </v>
    <v>       0.55525415       0.76914268       0.54830413 </v>
    <v>       0.05302242       0.24797853       0.54404265 </v>
    <v>       0.06812335       0.76280975       0.54667276 </v>
    <v>       0.18910292       0.54051210       0.55058443 </v>
    <v>       0.24232885       0.05803588       0.54369212 </v>
    <v>       0.79115605       0.92937615       0.55469499 </v>
    <v>       0.47894970       0.33190827       0.66930672 </v>
    <v>       0.43775735       0.81435208       0.67310173 </v>
    <v>       0.96823545       0.27981822       0.67969479 </v>
    <v>       0.91984426       0.74410252       0.67267977 </v>
    <v>       0.31040170       0.05347352       0.67081215 </v>
    <v>       0.29958465       0.54901232       0.67590826 </v>
    <v>       0.79075659       0.06353893       0.67512624 </v>
    <v>       0.76975635       0.59478999       0.66526435 </v>
    <v>       0.08449820       0.16410882       0.64523611 </v>
    <v>       0.10588668       0.70904596       0.65239355 </v>
    <v>       0.58435115       0.17436473       0.65015457 </v>
    <v>       0.56730133       0.67451267       0.65327458 </v>
    <v>       0.18319409       0.41323445       0.64764510 </v>
    <v>       0.16956224       0.92252472       0.65126680 </v>
    <v>       0.70821916       0.40441512       0.66168056 </v>
    <v>       0.67791505       0.91565601       0.65161904 </v>
    <v>       0.06571185       0.17663415       0.67256519 </v>
    <v>       0.04441361       0.67775017       0.67217265 </v>
    <v>       0.59531843       0.25632680       0.66434955 </v>
    <v>       0.53050009       0.70564441       0.67717811 </v>
    <v>       0.20366975       0.44342198       0.67387386 </v>
    <v>       0.20556185       0.95731716       0.67536036 </v>
    <v>       0.68326780       0.48996041       0.67259064 </v>
    <v>       0.69284690       0.95988028       0.67613133 </v>
    <v>       0.39729502       0.29326732       0.65866330 </v>
    <v>       0.42350395       0.84243502       0.64679105 </v>
    <v>       0.93519126       0.32458729       0.65723180 </v>
    <v>       0.90693762       0.81167007       0.65313918 </v>
    <v>       0.33306999       0.07302876       0.64414367 </v>
    <v>       0.33091760       0.58076216       0.65109757 </v>
    <v>       0.83181009       0.07794299       0.64993688 </v>
    <v>       0.84059121       0.57756183       0.64696937 </v>
    <v>       0.00501459       0.25630814       0.63352808 </v>
    <v>       0.02282686       0.79516017       0.63843714 </v>
    <v>       0.45915364       0.19207738       0.64398733 </v>
    <v>       0.50337789       0.75769645       0.63219768 </v>
    <v>       0.24628642       0.99268295       0.63002598 </v>
    <v>       0.26009785       0.49768920       0.63162792 </v>
    <v>       0.76534267       0.98522250       0.63347595 </v>
    <v>       0.80888305       0.45347630       0.64323699 </v>
    <v>       0.44874502       0.30128397       0.76888902 </v>
    <v>       0.44874501       0.80128391       0.76888902 </v>
    <v>       0.94874497       0.30128397       0.76888902 </v>
    <v>       0.94874501       0.80128391       0.76888902 </v>
    <v>       0.30127600       0.05129450       0.76887296 </v>
    <v>       0.30127601       0.55129450       0.76887296 </v>
    <v>       0.80127594       0.05129450       0.76887296 </v>
    <v>       0.80127598       0.55129450       0.76887296 </v>
    <v>       0.07877100       0.17118050       0.74344197 </v>
    <v>       0.07877101       0.67118045       0.74344197 </v>
    <v>       0.57877100       0.17118050       0.74344197 </v>
    <v>       0.57877099       0.67118045       0.74344197 </v>
    <v>       0.17119950       0.42117448       0.74342103 </v>
    <v>       0.17119950       0.92117451       0.74342103 </v>
    <v>       0.67119951       0.42117448       0.74342103 </v>
    <v>       0.67119950       0.92117451       0.74342103 </v>
    <v>       0.05125600       0.19871499       0.76888902 </v>
    <v>       0.05125600       0.69871493       0.76888902 </v>
    <v>       0.55125603       0.19871499       0.76888902 </v>
    <v>       0.55125602       0.69871493       0.76888902 </v>
    <v>       0.19872349       0.44870397       0.76887205 </v>
    <v>       0.19872349       0.94870397       0.76887205 </v>
    <v>       0.69872352       0.44870397       0.76887205 </v>
    <v>       0.69872351       0.94870397       0.76887205 </v>
    <v>       0.42123152       0.32881747       0.74344197 </v>
    <v>       0.42123151       0.82881744       0.74344197 </v>
    <v>       0.92123147       0.32881747       0.74344197 </v>
    <v>       0.92123151       0.82881744       0.74344197 </v>
    <v>       0.32880050       0.07882500       0.74342103 </v>
    <v>       0.32880049       0.57882496       0.74342103 </v>
    <v>       0.82880048       0.07882500       0.74342103 </v>
    <v>       0.82880052       0.57882496       0.74342103 </v>
    <v>       0.00000350       0.25000148       0.72582199 </v>
    <v>       0.00000350       0.75000145       0.72582199 </v>
    <v>       0.50000351       0.25000148       0.72582199 </v>
    <v>       0.50000350       0.75000145       0.72582199 </v>
    <v>       0.25000050       0.00000000       0.72580398 </v>
    <v>       0.25000052       0.50000000       0.72580398 </v>
    <v>       0.75000050       0.00000000       0.72580398 </v>
    <v>       0.75000049       0.50000000       0.72580398 </v>
    <v>       0.77491318       0.55517920       0.52048795 </v>
    <v>       0.72085906       0.47556591       0.52582673 </v>
    <v>       0.87298074       0.50095052       0.54194482 </v>
    <v>       0.85627481       0.48021966       0.56893954 </v>
    <v>       0.74351607       0.64062615       0.55954490 </v>
    <v>       0.80514474       0.59802115       0.57788695 </v>
    <v>       0.66848685       0.54901696       0.57032617 </v>
    <v>       0.67632187       0.45625372       0.56121735 </v>
    <v>       0.61632207       0.55251133       0.53759715 </v>
    <v>       0.67045776       0.63436002       0.53614019 </v>
    <v>       0.60647929       0.64442901       0.50507746 </v>
    <v>       0.68669826       0.60057265       0.49556857 </v>
    <v>       0.79669886       0.39014239       0.53033483 </v>
    <v>       0.77505524       0.37045461       0.55718469 </v>
    <v>       0.86733415       0.36488492       0.54835095 </v>
    <v>       0.86457276       0.69401889       0.55639211 </v>
    <v>       0.84595014       0.64759450       0.53201565 </v>
    <v>       0.90762501       0.60671651       0.55118507 </v>
    <v>       0.75638438       0.52692715       0.60017687 </v>
    <v>       0.77722584       0.43697934       0.59037345 </v>
    <v>       0.68771383       0.45863163       0.59959893 </v>
    <v>       0.53469038       0.52963340       0.50372114 </v>
    <v>       0.57528740       0.54675854       0.47830065 </v>
    <v>       0.69260040       0.47480509       0.46825473 </v>
    <v>       0.56132441       0.41998769       0.52392223 </v>
    <v>       0.75979869       0.35563799       0.47154127 </v>
    <v>       0.63017300       0.29979264       0.52696709 </v>
    <v>       0.72962460       0.26827521       0.50139322 </v>
    <v>       0.02104972       0.24936104       0.55886245 </v>
    <v>       0.03052497       0.75571855       0.56043485 </v>
    <v>       0.46355677       0.22757233       0.55394136 </v>
    <v>       0.50431156       0.76545154       0.55778985 </v>
    <v>       0.24010431       0.52413335       0.55879866 </v>
    <v>       0.24742332       0.01065226       0.55450587 </v>
    <v>       0.76908003       0.97934976       0.56241583 </v>
    <v>       0.00996412       0.24410907       0.65091437 </v>
    <v>       0.00683276       0.76068665       0.65225351 </v>
    <v>       0.49012933       0.23326603       0.65345022 </v>
    <v>       0.49539995       0.75863440       0.64972926 </v>
    <v>       0.25749246       0.49743144       0.64920321 </v>
    <v>       0.25097334       0.99772547       0.64757850 </v>
    <v>       0.77520658       0.48912879       0.65350351 </v>
    <v>       0.75483610       0.99596100       0.65059992 </v>
    <v>       0.49998898       0.24999498       0.74327702 </v>
    <v>       0.49998903       0.74999496       0.74327702 </v>
    <v>       0.99998898       0.24999498       0.74327702 </v>
    <v>       0.99998903       0.74999496       0.74327702 </v>
    <v>       0.25000050       0.00000100       0.74325596 </v>
    <v>       0.25000052       0.50000100       0.74325596 </v>
    <v>       0.75000050       0.00000100       0.74325596 </v>
    <v>       0.75000049       0.50000100       0.74325596 </v>
    <v>       0.62323605       0.45627474       0.49585534 </v>
    <v>       0.67864839       0.43684677       0.48109537 </v>
    <v>       0.60453659       0.40518528       0.51217983 </v>
    <v>       0.71704712       0.36972771       0.48306219 </v>
    <v>       0.64357877       0.33820492       0.51404386 </v>
    <v>       0.70007732       0.32084195       0.49954480 </v>
    <v>       0.73114192       0.53299571       0.53088035 </v>
    <v>       0.83227963       0.47602467       0.55282371 </v>
    <v>       0.79206845       0.60454822       0.56080370 </v>
    <v>       0.70704337       0.50211048       0.56865207 </v>
    <v>       0.66175253       0.57957210       0.52904045 </v>
    <v>       0.63701772       0.59238225       0.50561706 </v>
    <v>       0.81598325       0.39696132       0.54681927 </v>
    <v>       0.85685617       0.63898758       0.54916758 </v>
    <v>       0.73523538       0.48050693       0.59062436 </v>
    <v>       0.58790023       0.53208527       0.49525879 </v>
    <v>       0.00750437       0.18704133       0.56864108 </v>
    <v>       0.03338184       0.69400727       0.57148583 </v>
    <v>       0.53452358       0.22119225       0.55790816 </v>
    <v>       0.48644618       0.70036163       0.56594840 </v>
    <v>       0.42231535       0.28388029       0.56055853 </v>
    <v>       0.46466997       0.82667338       0.56020067 </v>
    <v>       0.00003037       0.31470950       0.56588876 </v>
    <v>       0.98573163       0.81121173       0.56480382 </v>
    <v>       0.24405549       0.45507306       0.56512353 </v>
    <v>       0.18729375       0.97465770       0.55973488 </v>
    <v>       0.69674323       0.98414020       0.56454468 </v>
    <v>       0.31391856       0.99458345       0.56175622 </v>
    <v>       0.29185458       0.57424260       0.56176910 </v>
    <v>       0.81547548       0.02989171       0.56914771 </v>
    <v>       0.05546805       0.19191284       0.65677125 </v>
    <v>       0.05402955       0.71223816       0.65941479 </v>
    <v>       0.56085884       0.22104885       0.65641938 </v>
    <v>       0.53291066       0.71042794       0.66099488 </v>
    <v>       0.21226672       0.44785081       0.65789489 </v>
    <v>       0.20623881       0.95756884       0.65913916 </v>
    <v>       0.71761284       0.45998980       0.66310803 </v>
    <v>       0.70596786       0.95530750       0.66044728 </v>
    <v>       0.45386100       0.29179495       0.66067175 </v>
    <v>       0.44977494       0.80824957       0.65724663 </v>
    <v>       0.96880689       0.28469899       0.66354873 </v>
    <v>       0.94076776       0.77379801       0.66024357 </v>
    <v>       0.30155453       0.04448994       0.65507170 </v>
    <v>       0.29809511       0.54446469       0.65980586 </v>
    <v>       0.79487996       0.04976082       0.65944275 </v>
    <v>       0.79678028       0.55920344       0.65532034 </v>
    <v>       0.04586250       0.20411950       0.75272599 </v>
    <v>       0.04586250       0.70411946       0.75272599 </v>
    <v>       0.54586251       0.20411950       0.75272599 </v>
    <v>       0.54586250       0.70411946       0.75272599 </v>
    <v>       0.20411900       0.45410100       0.75270499 </v>
    <v>       0.20411899       0.95410095       0.75270499 </v>
    <v>       0.70411898       0.45410100       0.75270499 </v>
    <v>       0.70411896       0.95410095       0.75270499 </v>
    <v>       0.45414002       0.29588849       0.75272697 </v>
    <v>       0.45414001       0.79588852       0.75272697 </v>
    <v>       0.95414002       0.29588849       0.75272697 </v>
    <v>       0.95414006       0.79588852       0.75272697 </v>
    <v>       0.29588249       0.04590050       0.75270499 </v>
    <v>       0.29588248       0.54590053       0.75270499 </v>
    <v>       0.79588244       0.04590050       0.75270499 </v>
    <v>       0.79588248       0.54590053       0.75270499 </v>
    <v>       0.76578317       0.52857343       0.55312510 </v>
    <v>       0.50577148       0.01997337       0.55201965 </v>
    <v>       0.47465395       0.50127850       0.55540454 </v>
    <v>       0.99817520       0.00153057       0.55004715 </v>
    <v>       0.03955765       0.50133446       0.55279520 </v>
    <v>       0.22995887       0.23840011       0.55248013 </v>
    <v>       0.24845132       0.76992921       0.55406083 </v>
    <v>       0.73645356       0.20308446       0.55531078 </v>
    <v>       0.70666247       0.79187579       0.55151113 </v>
    <v>       0.00195850       0.98330255       0.65418413 </v>
    <v>       0.00938237       0.49397082       0.65537535 </v>
    <v>       0.50155839       0.01026259       0.65471249 </v>
    <v>       0.51486814       0.48832838       0.65538872 </v>
    <v>       0.26025277       0.24483340       0.65452813 </v>
    <v>       0.25062973       0.75499390       0.65459663 </v>
    <v>       0.75194546       0.26270762       0.65465749 </v>
    <v>       0.74394654       0.75508656       0.65415177 </v>
    <v>       0.13516878       0.10717381       0.60804001 </v>
    <v>       0.14776851       0.60810277       0.61028326 </v>
    <v>       0.64924331       0.10585115       0.61129005 </v>
    <v>       0.61747703       0.63408256       0.61307154 </v>
    <v>       0.36006723       0.38520459       0.60654118 </v>
    <v>       0.37029779       0.88291914       0.60770175 </v>
    <v>       0.89292396       0.36353238       0.61280744 </v>
    <v>       0.87320915       0.87045756       0.60795131 </v>
    <v>       0.12429030       0.36196336       0.61055864 </v>
    <v>       0.12483770       0.87115338       0.60634930 </v>
    <v>       0.58351296       0.33166569       0.60290825 </v>
    <v>       0.61634954       0.87246826       0.61095044 </v>
    <v>       0.38657303       0.13419586       0.60626836 </v>
    <v>       0.38407625       0.62887560       0.61134396 </v>
    <v>       0.88744051       0.13701380       0.61235307 </v>
    <v>       0.90665204       0.64117324       0.61357811 </v>
    <v>       0.00000000       0.00000000       0.75492797 </v>
    <v>       0.00000000       0.50000000       0.75492797 </v>
    <v>       0.50000000       0.00000000       0.75492797 </v>
    <v>       0.49999999       0.50000000       0.75492797 </v>
    <v>       0.25000050       0.25000000       0.75493902 </v>
    <v>       0.25000051       0.74999997       0.75493902 </v>
    <v>       0.75000047       0.25000000       0.75493902 </v>
    <v>       0.75000046       0.74999997       0.75493902 </v>
    <v>       0.13579050       0.11421000       0.70478299 </v>
    <v>       0.13579050       0.61420998       0.70478299 </v>
    <v>       0.63579045       0.11421000       0.70478299 </v>
    <v>       0.63579049       0.61420998       0.70478299 </v>
    <v>       0.36420952       0.38578999       0.70478299 </v>
    <v>       0.36420950       0.88578996       0.70478299 </v>
    <v>       0.86420954       0.38578999       0.70478299 </v>
    <v>       0.86420953       0.88578996       0.70478299 </v>
    <v>       0.11421799       0.36421899       0.70478098 </v>
    <v>       0.11421799       0.86421899       0.70478098 </v>
    <v>       0.61421800       0.36421899       0.70478098 </v>
    <v>       0.61421799       0.86421899       0.70478098 </v>
    <v>       0.38578201       0.13578149       0.70478202 </v>
    <v>       0.38578200       0.63578149       0.70478202 </v>
    <v>       0.88578199       0.13578149       0.70478202 </v>
    <v>       0.88578203       0.63578149       0.70478202 </v>
    <v>       0.13466700       0.11533200       0.80125603 </v>
    <v>       0.13466699       0.61533199       0.80125603 </v>
    <v>       0.63466699       0.11533200       0.80125603 </v>
    <v>       0.63466698       0.61533199       0.80125603 </v>
    <v>       0.36533300       0.38466799       0.80125603 </v>
    <v>       0.36533299       0.88466796       0.80125603 </v>
    <v>       0.86533295       0.38466799       0.80125603 </v>
    <v>       0.86533294       0.88466796       0.80125603 </v>
    <v>       0.11532850       0.36533700       0.80126500 </v>
    <v>       0.11532850       0.86533698       0.80126500 </v>
    <v>       0.61532850       0.36533700       0.80126500 </v>
    <v>       0.61532849       0.86533698       0.80126500 </v>
    <v>       0.38467151       0.13466300       0.80126500 </v>
    <v>       0.38467150       0.63466297       0.80126500 </v>
    <v>       0.88467149       0.13466300       0.80126500 </v>
    <v>       0.88467153       0.63466297       0.80126500 </v>
    <v>       0.99509967       0.99670756       0.60547187 </v>
    <v>       0.00892903       0.50037101       0.60570660 </v>
    <v>       0.49938897       0.00703139       0.60415245 </v>
    <v>       0.49743236       0.49222686       0.60443706 </v>
    <v>       0.24395150       0.24124247       0.60308767 </v>
    <v>       0.24843685       0.74742582       0.60393903 </v>
    <v>       0.73990871       0.25058331       0.60257847 </v>
    <v>       0.73273177       0.75707048       0.60156838 </v>
    <v>       0.00000050       0.00000050       0.70482896 </v>
    <v>       0.00000050       0.50000048       0.70482896 </v>
    <v>       0.50000048       0.00000050       0.70482896 </v>
    <v>       0.50000046       0.50000048       0.70482896 </v>
    <v>       0.24999999       0.24999947       0.70482499 </v>
    <v>       0.25000001       0.74999950       0.70482499 </v>
    <v>       0.74999999       0.24999947       0.70482499 </v>
    <v>       0.74999998       0.74999950       0.70482499 </v>
    <v>       0.00000000       0.00000000       0.80731797 </v>
    <v>       0.00000000       0.50000000       0.80731797 </v>
    <v>       0.50000000       0.00000000       0.80731797 </v>
    <v>       0.49999999       0.50000000       0.80731797 </v>
    <v>       0.24999999       0.25000000       0.80731797 </v>
    <v>       0.25000001       0.74999997       0.80731797 </v>
    <v>       0.74999999       0.25000000       0.80731797 </v>
    <v>       0.74999998       0.74999997       0.80731797 </v>
   </varray>
  </structure>
  <varray name="primitive_index" >
   <v type="int" >        1 </v>
   <v type="int" >        2 </v>
   <v type="int" >        3 </v>
   <v type="int" >        4 </v>
   <v type="int" >        5 </v>
   <v type="int" >        6 </v>
   <v type="int" >        7 </v>
   <v type="int" >        8 </v>
   <v type="int" >        9 </v>
   <v type="int" >       10 </v>
   <v type="int" >       11 </v>
   <v type="int" >       12 </v>
   <v type="int" >       13 </v>
   <v type="int" >       14 </v>
   <v type="int" >       15 </v>
   <v type="int" >       16 </v>
   <v type="int" >       17 </v>
   <v type="int" >       18 </v>
   <v type="int" >       19 </v>
   <v type="int" >       20 </v>
   <v type="int" >       21 </v>
   <v type="int" >       22 </v>
   <v type="int" >       23 </v>
   <v type="int" >       24 </v>
   <v type="int" >       25 </v>
   <v type="int" >       26 </v>
   <v type="int" >       27 </v>
   <v type="int" >       28 </v>
   <v type="int" >       29 </v>
   <v type="int" >       30 </v>
   <v type="int" >       31 </v>
   <v type="int" >       32 </v>
   <v type="int" >       33 </v>
   <v type="int" >       34 </v>
   <v type="int" >       35 </v>
   <v type="int" >       36 </v>
   <v type="int" >       37 </v>
   <v type="int" >       38 </v>
   <v type="int" >       39 </v>
   <v type="int" >       40 </v>
   <v type="int" >       41 </v>
   <v type="int" >       42 </v>
   <v type="int" >       43 </v>
   <v type="int" >       44 </v>
   <v type="int" >       45 </v>
   <v type="int" >       46 </v>
   <v type="int" >       47 </v>
   <v type="int" >       48 </v>
   <v type="int" >       49 </v>
   <v type="int" >       50 </v>
   <v type="int" >       51 </v>
   <v type="int" >       52 </v>
   <v type="int" >       53 </v>
   <v type="int" >       54 </v>
   <v type="int" >       55 </v>
   <v type="int" >       56 </v>
   <v type="int" >       57 </v>
   <v type="int" >       58 </v>
   <v type="int" >       59 </v>
   <v type="int" >       60 </v>
   <v type="int" >       61 </v>
   <v type="int" >       62 </v>
   <v type="int" >       63 </v>
   <v type="int" >       64 </v>
   <v type="int" >       65 </v>
   <v type="int" >       66 </v>
   <v type="int" >       67 </v>
   <v type="int" >       68 </v>
   <v type="int" >       69 </v>
   <v type="int" >       70 </v>
   <v type="int" >       71 </v>
   <v type="int" >       72 </v>
   <v type="int" >       73 </v>
   <v type="int" >       74 </v>
   <v type="int" >       75 </v>
   <v type="int" >       76 </v>
   <v type="int" >       77 </v>
   <v type="int" >       78 </v>
   <v type="int" >       79 </v>
   <v type="int" >       80 </v>
   <v type="int" >       81 </v>
   <v type="int" >       82 </v>
   <v type="int" >       83 </v>
   <v type="int" >       84 </v>
   <v type="int" >       85 </v>
   <v type="int" >       86 </v>
   <v type="int" >       87 </v>
   <v type="int" >       88 </v>
   <v type="int" >       89 </v>
   <v type="int" >       90 </v>
   <v type="int" >       91 </v>
   <v type="int" >       92 </v>
   <v type="int" >       93 </v>
   <v type="int" >       94 </v>
   <v type="int" >       95 </v>
   <v type="int" >       96 </v>
   <v type="int" >       97 </v>
   <v type="int" >       98 </v>
   <v type="int" >       99 </v>
   <v type="int" >      100 </v>
   <v type="int" >      101 </v>
   <v type="int" >      102 </v>
   <v type="int" >      103 </v>
   <v type="int" >      104 </v>
   <v type="int" >      105 </v>
   <v type="int" >      106 </v>
   <v type="int" >      107 </v>
   <v type="int" >      108 </v>
   <v type="int" >      109 </v>
   <v type="int" >      110 </v>
   <v type="int" >      111 </v>
   <v type="int" >      112 </v>
   <v type="int" >      113 </v>
   <v type="int" >      114 </v>
   <v type="int" >      115 </v>
   <v type="int" >      116 </v>
   <v type="int" >      117 </v>
   <v type="int" >      118 </v>
   <v type="int" >      119 </v>
   <v type="int" >      120 </v>
   <v type="int" >      121 </v>
   <v type="int" >      122 </v>
   <v type="int" >      123 </v>
   <v type="int" >      124 </v>
   <v type="int" >      125 </v>
   <v type="int" >      126 </v>
   <v type="int" >      127 </v>
   <v type="int" >      128 </v>
   <v type="int" >      129 </v>
   <v type="int" >      130 </v>
   <v type="int" >      131 </v>
   <v type="int" >      132 </v>
   <v type="int" >      133 </v>
   <v type="int" >      134 </v>
   <v type="int" >      135 </v>
   <v type="int" >      136 </v>
   <v type="int" >      137 </v>
   <v type="int" >      138 </v>
   <v type="int" >      139 </v>
   <v type="int" >      140 </v>
   <v type="int" >      141 </v>
   <v type="int" >      142 </v>
   <v type="int" >      143 </v>
   <v type="int" >      144 </v>
   <v type="int" >      145 </v>
   <v type="int" >      146 </v>
   <v type="int" >      147 </v>
   <v type="int" >      148 </v>
   <v type="int" >      149 </v>
   <v type="int" >      150 </v>
   <v type="int" >      151 </v>
   <v type="int" >      152 </v>
   <v type="int" >      153 </v>
   <v type="int" >      154 </v>
   <v type="int" >      155 </v>
   <v type="int" >      156 </v>
   <v type="int" >      157 </v>
   <v type="int" >      158 </v>
   <v type="int" >      159 </v>
   <v type="int" >      160 </v>
   <v type="int" >      161 </v>
   <v type="int" >      162 </v>
   <v type="int" >      163 </v>
   <v type="int" >      164 </v>
   <v type="int" >      165 </v>
   <v type="int" >      166 </v>
   <v type="int" >      167 </v>
   <v type="int" >      168 </v>
   <v type="int" >      169 </v>
   <v type="int" >      170 </v>
   <v type="int" >      171 </v>
   <v type="int" >      172 </v>
   <v type="int" >      173 </v>
   <v type="int" >      174 </v>
   <v type="int" >      175 </v>
   <v type="int" >      176 </v>
   <v type="int" >      177 </v>
   <v type="int" >      178 </v>
   <v type="int" >      179 </v>
   <v type="int" >      180 </v>
   <v type="int" >      181 </v>
   <v type="int" >      182 </v>
   <v type="int" >      183 </v>
   <v type="int" >      184 </v>
   <v type="int" >      185 </v>
   <v type="int" >      186 </v>
   <v type="int" >      187 </v>
   <v type="int" >      188 </v>
   <v type="int" >      189 </v>
   <v type="int" >      190 </v>
   <v type="int" >      191 </v>
   <v type="int" >      192 </v>
   <v type="int" >      193 </v>
   <v type="int" >      194 </v>
   <v type="int" >      195 </v>
   <v type="int" >      196 </v>
   <v type="int" >      197 </v>
   <v type="int" >      198 </v>
   <v type="int" >      199 </v>
   <v type="int" >      200 </v>
   <v type="int" >      201 </v>
   <v type="int" >      202 </v>
   <v type="int" >      203 </v>
   <v type="int" >      204 </v>
   <v type="int" >      205 </v>
   <v type="int" >      206 </v>
   <v type="int" >      207 </v>
   <v type="int" >      208 </v>
   <v type="int" >      209 </v>
   <v type="int" >      210 </v>
   <v type="int" >      211 </v>
   <v type="int" >      212 </v>
   <v type="int" >      213 </v>
   <v type="int" >      214 </v>
   <v type="int" >      215 </v>
   <v type="int" >      216 </v>
   <v type="int" >      217 </v>
   <v type="int" >      218 </v>
   <v type="int" >      219 </v>
   <v type="int" >      220 </v>
   <v type="int" >      221 </v>
   <v type="int" >      222 </v>
   <v type="int" >      223 </v>
   <v type="int" >      224 </v>
   <v type="int" >      225 </v>
   <v type="int" >      226 </v>
   <v type="int" >      227 </v>
   <v type="int" >      228 </v>
   <v type="int" >      229 </v>
   <v type="int" >      230 </v>
   <v type="int" >      231 </v>
   <v type="int" >      232 </v>
   <v type="int" >      233 </v>
   <v type="int" >      234 </v>
   <v type="int" >      235 </v>
   <v type="int" >      236 </v>
   <v type="int" >      237 </v>
   <v type="int" >      238 </v>
   <v type="int" >      239 </v>
   <v type="int" >      240 </v>
   <v type="int" >      241 </v>
   <v type="int" >      242 </v>
   <v type="int" >      243 </v>
   <v type="int" >      244 </v>
   <v type="int" >      245 </v>
   <v type="int" >      246 </v>
   <v type="int" >      247 </v>
   <v type="int" >      248 </v>
   <v type="int" >      249 </v>
   <v type="int" >      250 </v>
   <v type="int" >      251 </v>
   <v type="int" >      252 </v>
   <v type="int" >      253 </v>
   <v type="int" >      254 </v>
   <v type="int" >      255 </v>
   <v type="int" >      256 </v>
   <v type="int" >      257 </v>
   <v type="int" >      258 </v>
   <v type="int" >      259 </v>
   <v type="int" >      260 </v>
   <v type="int" >      261 </v>
   <v type="int" >      262 </v>
   <v type="int" >      263 </v>
   <v type="int" >      264 </v>
   <v type="int" >      265 </v>
   <v type="int" >      266 </v>
   <v type="int" >      267 </v>
   <v type="int" >      268 </v>
   <v type="int" >      269 </v>
   <v type="int" >      270 </v>
   <v type="int" >      271 </v>
   <v type="int" >      272 </v>
   <v type="int" >      273 </v>
   <v type="int" >      274 </v>
   <v type="int" >      275 </v>
   <v type="int" >      276 </v>
   <v type="int" >      277 </v>
   <v type="int" >      278 </v>
   <v type="int" >      279 </v>
   <v type="int" >      280 </v>
   <v type="int" >      281 </v>
   <v type="int" >      282 </v>
   <v type="int" >      283 </v>
   <v type="int" >      284 </v>
   <v type="int" >      285 </v>
   <v type="int" >      286 </v>
   <v type="int" >      287 </v>
   <v type="int" >      288 </v>
   <v type="int" >      289 </v>
   <v type="int" >      290 </v>
   <v type="int" >      291 </v>
   <v type="int" >      292 </v>
   <v type="int" >      293 </v>
   <v type="int" >      294 </v>
   <v type="int" >      295 </v>
   <v type="int" >      296 </v>
   <v type="int" >      297 </v>
   <v type="int" >      298 </v>
   <v type="int" >      299 </v>
   <v type="int" >      300 </v>
   <v type="int" >      301 </v>
   <v type="int" >      302 </v>
   <v type="int" >      303 </v>
   <v type="int" >      304 </v>
   <v type="int" >      305 </v>
   <v type="int" >      306 </v>
   <v type="int" >      307 </v>
   <v type="int" >      308 </v>
   <v type="int" >      309 </v>
   <v type="int" >      310 </v>
   <v type="int" >      311 </v>
   <v type="int" >      312 </v>
   <v type="int" >      313 </v>
   <v type="int" >      314 </v>
   <v type="int" >      315 </v>
   <v type="int" >      316 </v>
   <v type="int" >      317 </v>
   <v type="int" >      318 </v>
   <v type="int" >      319 </v>
   <v type="int" >      320 </v>
   <v type="int" >      321 </v>
   <v type="int" >      322 </v>
   <v type="int" >      323 </v>
   <v type="int" >      324 </v>
   <v type="int" >      325 </v>
  </varray>
 </primitive_cell>
 <kpoints>
  <generation param="Gamma">
   <v type="int" name="divisions">       3        3        1 </v>
   <v name="usershift">      0.00000000       0.00000000       0.00000000 </v>
   <v name="genvec1">      0.33333333       0.00000000       0.00000000 </v>
   <v name="genvec2">      0.00000000       0.33333333       0.00000000 </v>
   <v name="genvec3">      0.00000000       0.00000000       1.00000000 </v>
   <v name="shift">      0.00000000       0.00000000       0.00000000 </v>
  </generation>
  <varray name="kpointlist" >
   <v>       0.00000000       0.00000000       0.00000000 </v>
   <v>       0.33333333       0.00000000       0.00000000 </v>
   <v>       0.00000000       0.33333333       0.00000000 </v>
   <v>       0.33333333       0.33333333       0.00000000 </v>
   <v>      -0.33333333       0.33333333       0.00000000 </v>
  </varray>
  <varray name="weights" >
   <v>       0.11111111 </v>
   <v>       0.22222222 </v>
   <v>       0.22222222 </v>
   <v>       0.22222222 </v>
   <v>       0.22222222 </v>
  </varray>
 </kpoints>
 <parameters>
  <separator name="general" >
   <i type="string" name="SYSTEM">PSC</i>
   <i type="logical" name="LCOMPAT"> F  </i>
  </separator>
  <separator name="electronic" >
   <i type="string" name="PREC">normal</i>
   <i name="ENMAX">    500.00000000</i>
   <i name="ENAUG">    644.87300000</i>
   <i name="EDIFF">      0.00010000</i>
   <i type="int" name="IALGO">    38</i>
   <i type="int" name="IWAVPR">    10</i>
   <i type="int" name="NBANDS">   732</i>
   <i type="int" name="NBANDSLOW">    -1</i>
   <i type="int" name="NBANDSHIGH">    -1</i>
   <i name="NELECT">   1134.00000000</i>
   <i type="int" name="TURBO">     0</i>
   <i type="int" name="IRESTART">     0</i>
   <i type="int" name="NREBOOT">     0</i>
   <i type="int" name="NMIN">     0</i>
   <i name="EREF">      0.00000000</i>
   <separator name="electronic smearing" >
    <i type="int" name="ISMEAR">     0</i>
    <i name="SIGMA">      0.05000000</i>
    <i name="KSPACING">      0.50000000</i>
    <i type="logical" name="KGAMMA"> T  </i>
    <i type="logical" name="KBLOWUP"> T  </i>
   </separator>
   <separator name="electronic projectors" >
    <i type="logical" name="LREAL"> T  </i>
    <v name="ROPT">     -0.00050000     -0.00050000     -0.00050000     -0.00050000     -0.00050000</v>
    <i type="int" name="LMAXPAW">  -100</i>
    <i type="int" name="LMAXMIX">     2</i>
    <i type="logical" name="NLSPLINE"> F  </i>
   </separator>
   <separator name="electronic startup" >
    <i type="int" name="ISTART">     0</i>
    <i type="int" name="ICHARG">     1</i>
    <i type="int" name="INIWAV">     1</i>
   </separator>
   <separator name="electronic spin" >
    <i type="int" name="ISPIN">     1</i>
    <i type="logical" name="LNONCOLLINEAR"> F  </i>
    <v name="MAGMOM">      1.00000000      1.00000000      1.00000000      1.00000000      1.00000000      1.00000000      1.00000000      1.00000000      1.00000000      1.00000000      1.00000000      1.00000000      1.00000000      1.00000000      1.00000000      1.00000000      1.00000000      1.00000000      1.00000000      1.00000000
      1.00000000      1.00000000      1.00000000      1.00000000      1.00000000      1.00000000      1.00000000      1.00000000      1.00000000      1.00000000      1.00000000      1.00000000      1.00000000      1.00000000      1.00000000      1.00000000      1.00000000      1.00000000      1.00000000      1.00000000
      1.00000000      1.00000000      1.00000000      1.00000000      1.00000000      1.00000000      1.00000000      1.00000000      1.00000000      1.00000000      1.00000000      1.00000000      1.00000000      1.00000000      1.00000000      1.00000000      1.00000000      1.00000000      1.00000000      1.00000000
      1.00000000      1.00000000      1.00000000      1.00000000      1.00000000      1.00000000      1.00000000      1.00000000      1.00000000      1.00000000      1.00000000      1.00000000      1.00000000      1.00000000      1.00000000      1.00000000      1.00000000      1.00000000      1.00000000      1.00000000
      1.00000000      1.00000000      1.00000000      1.00000000      1.00000000      1.00000000      1.00000000      1.00000000      1.00000000      1.00000000      1.00000000      1.00000000      1.00000000      1.00000000      1.00000000      1.00000000      1.00000000      1.00000000      1.00000000      1.00000000
      1.00000000      1.00000000      1.00000000      1.00000000      1.00000000      1.00000000      1.00000000      1.00000000      1.00000000      1.00000000      1.00000000      1.00000000      1.00000000      1.00000000      1.00000000      1.00000000      1.00000000      1.00000000      1.00000000      1.00000000
      1.00000000      1.00000000      1.00000000      1.00000000      1.00000000      1.00000000      1.00000000      1.00000000      1.00000000      1.00000000      1.00000000      1.00000000      1.00000000      1.00000000      1.00000000      1.00000000      1.00000000      1.00000000      1.00000000      1.00000000
      1.00000000      1.00000000      1.00000000      1.00000000      1.00000000      1.00000000      1.00000000      1.00000000      1.00000000      1.00000000      1.00000000      1.00000000      1.00000000      1.00000000      1.00000000      1.00000000      1.00000000      1.00000000      1.00000000      1.00000000
      1.00000000      1.00000000      1.00000000      1.00000000      1.00000000      1.00000000      1.00000000      1.00000000      1.00000000      1.00000000      1.00000000      1.00000000      1.00000000      1.00000000      1.00000000      1.00000000      1.00000000      1.00000000      1.00000000      1.00000000
      1.00000000      1.00000000      1.00000000      1.00000000      1.00000000      1.00000000      1.00000000      1.00000000      1.00000000      1.00000000      1.00000000      1.00000000      1.00000000      1.00000000      1.00000000      1.00000000      1.00000000      1.00000000      1.00000000      1.00000000
      1.00000000      1.00000000      1.00000000      1.00000000      1.00000000      1.00000000      1.00000000      1.00000000      1.00000000      1.00000000      1.00000000      1.00000000      1.00000000      1.00000000      1.00000000      1.00000000      1.00000000      1.00000000      1.00000000      1.00000000
      1.00000000      1.00000000      1.00000000      1.00000000      1.00000000      1.00000000      1.00000000      1.00000000      1.00000000      1.00000000      1.00000000      1.00000000      1.00000000      1.00000000      1.00000000      1.00000000      1.00000000      1.00000000      1.00000000      1.00000000
      1.00000000      1.00000000      1.00000000      1.00000000      1.00000000      1.00000000      1.00000000      1.00000000      1.00000000      1.00000000      1.00000000      1.00000000      1.00000000      1.00000000      1.00000000      1.00000000      1.00000000      1.00000000      1.00000000      1.00000000
      1.00000000      1.00000000      1.00000000      1.00000000      1.00000000      1.00000000      1.00000000      1.00000000      1.00000000      1.00000000      1.00000000      1.00000000      1.00000000      1.00000000      1.00000000      1.00000000      1.00000000      1.00000000      1.00000000      1.00000000
      1.00000000      1.00000000      1.00000000      1.00000000      1.00000000      1.00000000      1.00000000      1.00000000      1.00000000      1.00000000      1.00000000      1.00000000      1.00000000      1.00000000      1.00000000      1.00000000      1.00000000      1.00000000      1.00000000      1.00000000
      1.00000000      1.00000000      1.00000000      1.00000000      1.00000000      1.00000000      1.00000000      1.00000000      1.00000000      1.00000000      1.00000000      1.00000000      1.00000000      1.00000000      1.00000000      1.00000000      1.00000000      1.00000000      1.00000000      1.00000000
      1.00000000      1.00000000      1.00000000      1.00000000      1.00000000</v>
    <i name="NUPDOWN">     -1.00000000</i>
    <i type="logical" name="LSORBIT"> F  </i>
    <v name="SAXIS">      0.00000000      0.00000000      1.00000000</v>
    <i type="logical" name="LSPIRAL"> F  </i>
    <v name="QSPIRAL">      0.00000000      0.00000000      0.00000000</v>
    <i type="logical" name="LZEROZ"> F  </i>
   </separator>
   <separator name="electronic exchange-correlation" >
    <i type="logical" name="LASPH"> F  </i>
    <i type="logical" name="LMETAGGA"> F  </i>
   </separator>
   <separator name="electronic convergence" >
    <i type="int" name="NELM">   600</i>
    <i type="int" name="NELMDL">     0</i>
    <i type="int" name="NELMIN">     2</i>
    <i name="ENINI">    500.00000000</i>
    <separator name="electronic convergence detail" >
     <i type="logical" name="LDIAG"> T  </i>
     <i type="logical" name="LSUBROT"> F  </i>
     <i name="WEIMIN">      0.00000000</i>
     <i name="EBREAK">      0.00000003</i>
     <i name="DEPER">      0.30000000</i>
     <i type="int" name="NRMM">     4</i>
     <i name="TIME">      0.40000000</i>
    </separator>
   </separator>
   <separator name="electronic mixer" >
    <i name="AMIX">      0.40000000</i>
    <i name="BMIX">      0.01000000</i>
    <i name="AMIN">      0.01000000</i>
    <i name="AMIX_MAG">      1.60000000</i>
    <i name="BMIX_MAG">      0.01000000</i>
    <separator name="electronic mixer details" >
     <i type="int" name="IMIX">     4</i>
     <i type="logical" name="MIXFIRST"> F  </i>
     <i type="int" name="MAXMIX">   -45</i>
     <i name="WC">    100.00000000</i>
     <i type="int" name="INIMIX">     1</i>
     <i type="int" name="MIXPRE">     1</i>
     <i type="int" name="MREMOVE">     5</i>
    </separator>
   </separator>
   <separator name="electronic dipolcorrection" >
    <i type="logical" name="LDIPOL"> T  </i>
    <i type="logical" name="LMONO"> F  </i>
    <i type="int" name="IDIPOL">     3</i>
    <i name="EPSILON">      1.00000000</i>
    <v name="DIPOL">   -100.00000000   -100.00000000   -100.00000000</v>
    <i name="EFIELD">      0.00000000</i>
   </separator>
  </separator>
  <separator name="grids" >
   <i type="int" name="NGX">   100</i>
   <i type="int" name="NGY">   100</i>
   <i type="int" name="NGZ">   350</i>
   <i type="int" name="NGXF">   200</i>
   <i type="int" name="NGYF">   200</i>
   <i type="int" name="NGZF">   700</i>
   <i type="logical" name="ADDGRID"> F  </i>
  </separator>
  <separator name="ionic" >
   <i type="int" name="NSW">     0</i>
   <i type="int" name="IBRION">    -1</i>
   <i type="int" name="MDALGO">     0</i>
   <i type="int" name="ISIF">     2</i>
   <i name="PSTRESS">      0.00000000</i>
   <i name="EDIFFG">      0.00100000</i>
   <i type="int" name="NFREE">     0</i>
   <i name="POTIM">      0.50000000</i>
   <i name="SMASS">     -3.00000000</i>
   <i name="SCALEE">      1.00000000</i>
  </separator>
  <separator name="ionic md" >
   <i name="TEBEG">      0.00010000</i>
   <i name="TEEND">      0.00010000</i>
   <i type="int" name="NBLOCK">     1</i>
   <i type="int" name="KBLOCK">     1</i>
   <i type="int" name="NPACO">   256</i>
   <i name="APACO">     16.00000000</i>
  </separator>
  <separator name="symmetry" >
   <i type="int" name="ISYM">     0</i>
   <i name="SYMPREC">      0.00001000</i>
  </separator>
  <separator name="dos" >
   <i type="int" name="LORBIT">     0</i>
   <v name="RWIGS">     -1.00000000     -1.00000000     -1.00000000     -1.00000000     -1.00000000</v>
   <i type="int" name="NEDOS">   301</i>
   <i name="EMIN">     10.00000000</i>
   <i name="EMAX">    -10.00000000</i>
   <i name="EFERMI">      0.00000000</i>
  </separator>
  <separator name="writing" >
   <i type="int" name="NWRITE">     2</i>
   <i type="logical" name="LWAVE"> F  </i>
   <i type="logical" name="LDOWNSAMPLE"> F  </i>
   <i type="logical" name="LCHARG"> T  </i>
   <i type="logical" name="LPARD"> F  </i>
   <i type="logical" name="LVTOT"> T  </i>
   <i type="logical" name="LVHAR"> F  </i>
   <i type="logical" name="LELF"> F  </i>
   <i type="logical" name="LOPTICS"> F  </i>
   <v name="STM">      0.00000000      0.00000000      0.00000000      0.00000000      0.00000000      0.00000000      0.00000000</v>
  </separator>
  <separator name="performance" >
   <i type="int" name="NPAR">     4</i>
   <i type="int" name="NSIM">     4</i>
   <i type="int" name="NBLK">    -1</i>
   <i type="logical" name="LPLANE"> T  </i>
   <i type="logical" name="LSCALAPACK"> T  </i>
   <i type="logical" name="LSCAAWARE"> F  </i>
   <i type="logical" name="LSCALU"> F  </i>
   <i type="logical" name="LASYNC"> F  </i>
   <i type="logical" name="LORBITALREAL"> F  </i>
  </separator>
  <separator name="miscellaneous" >
   <i type="int" name="IDIOT">     3</i>
   <i type="int" name="PHON_NSTRUCT">    -1</i>
   <i type="logical" name="LMUSIC"> F  </i>
   <v name="POMASS">      1.00000000     12.01100000     14.00100000    126.90400000    207.20000000</v>
   <v name="DARWINR">      0.00000000      0.00000000      0.00000000      0.00000000      0.00000000</v>
   <v name="DARWINV">      1.00000000      1.00000000      1.00000000      1.00000000      1.00000000</v>
   <i type="logical" name="LCORR"> T  </i>
  </separator>
  <i type="logical" name="GGA_COMPAT"> F  </i>
  <i type="logical" name="LBERRY"> F  </i>
  <i type="int" name="ICORELEVEL">     0</i>
  <i type="logical" name="LDAU"> F  </i>
  <i type="int" name="I_CONSTRAINED_M">     0</i>
  <separator name="electronic exchange-correlation" >
   <i type="string" name="GGA">--</i>
   <i type="int" name="VOSKOWN">     0</i>
   <i type="logical" name="LHFCALC"> F  </i>
   <i type="string" name="PRECFOCK"></i>
   <i type="logical" name="LSYMGRAD"> F  </i>
   <i type="logical" name="LHFONE"> F  </i>
   <i type="logical" name="LRHFCALC"> F  </i>
   <i type="logical" name="LTHOMAS"> F  </i>
   <i type="logical" name="LMODELHF"> F  </i>
   <i type="logical" name="LFOCKACE"> F  </i>
   <i name="ENCUT4O">     -1.00000000</i>
   <i type="int" name="EXXOEP">     0</i>
   <i type="int" name="FOURORBIT">     0</i>
   <i name="AEXX">      0.00000000</i>
   <i name="HFALPHA">      0.00000000</i>
   <i name="MCALPHA">      0.00000000</i>
   <i name="ALDAX">      1.00000000</i>
   <i name="AGGAX">      1.00000000</i>
   <i name="ALDAC">      1.00000000</i>
   <i name="AGGAC">      1.00000000</i>
   <i type="int" name="NKREDX">     1</i>
   <i type="int" name="NKREDY">     1</i>
   <i type="int" name="NKREDZ">     1</i>
   <i type="logical" name="SHIFTRED"> F  </i>
   <i type="logical" name="ODDONLY"> F  </i>
   <i type="logical" name="EVENONLY"> F  </i>
   <i type="int" name="LMAXFOCK">     0</i>
   <i type="int" name="NMAXFOCKAE">     0</i>
   <i type="logical" name="LFOCKAEDFT"> F  </i>
   <i name="HFSCREEN">      0.00000000</i>
   <i name="HFSCREENC">      0.00000000</i>
   <i type="int" name="NBANDSGWLOW">     0</i>
  </separator>
  <separator name="vdW DFT" >
   <i type="logical" name="LUSE_VDW"> F  </i>
   <i name="Zab_VDW">     -0.84910000</i>
   <i name="PARAM1">      0.12340000</i>
   <i name="PARAM2">      1.00000000</i>
   <i name="PARAM3">      0.00000000</i>
  </separator>
  <separator name="model GW" >
   <i type="int" name="MODEL_GW">     0</i>
   <i name="MODEL_EPS0">     37.63423484</i>
   <i name="MODEL_ALPHA">      1.00000000</i>
  </separator>
  <separator name="linear response parameters" >
   <i type="logical" name="LEPSILON"> F  </i>
   <i type="logical" name="LRPA"> F  </i>
   <i type="logical" name="LNABLA"> F  </i>
   <i type="logical" name="LVEL"> F  </i>
   <i type="int" name="KINTER">     0</i>
   <i name="CSHIFT">      0.10000000</i>
   <i name="OMEGAMAX">     -1.00000000</i>
   <i name="DEG_THRESHOLD">      0.00200000</i>
   <i name="RTIME">     -0.10000000</i>
   <i name="WPLASMAI">      0.00000000</i>
   <v name="DFIELD">      0.00000000      0.00000000      0.00000000</v>
   <v name="WPLASMA">      0.00000000      0.00000000      0.00000000      0.00000000      0.00000000      0.00000000      0.00000000      0.00000000      0.00000000</v>
  </separator>
  <separator name="orbital magnetization" >
   <i type="logical" name="NUCIND"> F  </i>
   <v name="MAGPOS">      0.00000000      0.00000000      0.00000000</v>
   <i type="logical" name="LNICSALL"> T  </i>
   <i type="logical" name="ORBITALMAG"> F  </i>
   <i type="logical" name="LMAGBLOCH"> F  </i>
   <i type="logical" name="LCHIMAG"> F  </i>
   <i type="logical" name="LGAUGE"> T  </i>
   <i type="int" name="MAGATOM">     0</i>
   <v name="MAGDIPOL">      0.00000000      0.00000000      0.00000000</v>
   <v name="AVECCONST">      0.00000000      0.00000000      0.00000000</v>
  </separator>
  <separator name="response functions" >
   <i type="logical" name="LFINITE_TEMPERATURE"> F  </i>
   <i type="logical" name="LADDER"> F  </i>
   <i type="logical" name="LRPAFORCE"> F  </i>
   <i type="logical" name="LFXC"> F  </i>
   <i type="logical" name="LHARTREE"> T  </i>
   <i type="int" name="IBSE">     0</i>
   <v type="int" name="KPOINT">    -1     0     0     0</v>
   <i type="logical" name="LTCTC"> F  </i>
   <i type="logical" name="LTCTE"> F  </i>
   <i type="logical" name="LTETE"> F  </i>
   <i type="logical" name="LTRIPLET"> F  </i>
   <i type="logical" name="LFXCEPS"> F  </i>
   <i type="logical" name="LFXHEG"> F  </i>
   <i type="int" name="NATURALO">     2</i>
   <i type="logical" name="LHOLEGF"> F  </i>
   <i type="logical" name="L2ORDER"> F  </i>
   <i type="logical" name="LDMP1"> F  </i>
   <i type="logical" name="LMP2LT"> F  </i>
   <i type="logical" name="LSMP2LT"> F  </i>
   <i type="logical" name="LGWLF"> F  </i>
   <i name="ENCUTGW">     -2.00000000</i>
   <i name="ENCUTGWSOFT">     -2.00000000</i>
   <i name="ENCUTLF">     -1.00000000</i>
   <i type="logical" name="LESF_SPLINES"> F  </i>
   <i type="int" name="LMAXMP2">    -1</i>
   <i name="SCISSOR">      0.00000000</i>
   <i type="int" name="NOMEGA">     0</i>
   <i type="int" name="NOMEGAR">     0</i>
   <i type="int" name="NBANDSGW">    -1</i>
   <i type="int" name="NBANDSO">    -1</i>
   <i type="int" name="NBANDSV">    -1</i>
   <i type="int" name="NELM">   600</i>
   <i type="int" name="NELMHF">     1</i>
   <i type="int" name="DIM">     3</i>
   <i type="int" name="IESPILON">     4</i>
   <i type="int" name="ANTIRES">     0</i>
   <i name="OMEGAMAX">    -30.00000000</i>
   <i name="OMEGAMIN">    -30.00000000</i>
   <i name="OMEGATL">   -200.00000000</i>
   <i type="int" name="OMEGAGRID">     0</i>
   <i name="CSHIFT">     -0.10000000</i>
   <i type="logical" name="LSELFENERGY"> F  </i>
   <i type="logical" name="LSPECTRAL"> F  </i>
   <i type="logical" name="LSPECTRALGW"> F  </i>
   <i type="logical" name="LSINGLES"> F  </i>
   <i type="logical" name="LFERMIGW"> F  </i>
   <i type="logical" name="ODDONLYGW"> F  </i>
   <i type="logical" name="EVENONLYGW"> F  </i>
   <i type="int" name="NKREDLFX">     1</i>
   <i type="int" name="NKREDLFY">     1</i>
   <i type="int" name="NKREDLFZ">     1</i>
   <i type="int" name="MAXMEM">  2800</i>
   <i type="int" name="TELESCOPE">     0</i>
   <i type="int" name="NTAUPAR">    -1</i>
   <i type="int" name="NOMEGAPAR">    -1</i>
   <i name="DAMP_NEWTON">      0.80000001</i>
   <i name="LAMBDA">      1.00000000</i>
  </separator>
  <separator name="External order field" >
   <i name="OFIELD_KAPPA">      0.00000000</i>
   <v name="OFIELD_K">      0.00000000      0.00000000      0.00000000</v>
   <i name="OFIELD_Q6_NEAR">      0.00000000</i>
   <i name="OFIELD_Q6_FAR">      0.00000000</i>
   <i name="OFIELD_A">      0.00000000</i>
  </separator>
 </parameters>
 <atominfo>
  <atoms>     325 </atoms>
  <types>       5 </types>
  <array name="atoms" >
   <dimension dim="1">ion</dimension>
   <field type="string">element</field>
   <field type="int">atomtype</field>
   <set>
    <rc><c>H </c><c>   1</c></rc>
    <rc><c>H </c><c>   1</c></rc>
    <rc><c>H </c><c>   1</c></rc>
    <rc><c>H </c><c>   1</c></rc>
    <rc><c>H </c><c>   1</c></rc>
    <rc><c>H </c><c>   1</c></rc>
    <rc><c>H </c><c>   1</c></rc>
    <rc><c>H </c><c>   1</c></rc>
    <rc><c>H </c><c>   1</c></rc>
    <rc><c>H </c><c>   1</c></rc>
    <rc><c>H </c><c>   1</c></rc>
    <rc><c>H </c><c>   1</c></rc>
    <rc><c>H </c><c>   1</c></rc>
    <rc><c>H </c><c>   1</c></rc>
    <rc><c>H </c><c>   1</c></rc>
    <rc><c>H </c><c>   1</c></rc>
    <rc><c>H </c><c>   1</c></rc>
    <rc><c>H </c><c>   1</c></rc>
    <rc><c>H </c><c>   1</c></rc>
    <rc><c>H </c><c>   1</c></rc>
    <rc><c>H </c><c>   1</c></rc>
    <rc><c>H </c><c>   1</c></rc>
    <rc><c>H </c><c>   1</c></rc>
    <rc><c>H </c><c>   1</c></rc>
    <rc><c>H </c><c>   1</c></rc>
    <rc><c>H </c><c>   1</c></rc>
    <rc><c>H </c><c>   1</c></rc>
    <rc><c>H </c><c>   1</c></rc>
    <rc><c>H </c><c>   1</c></rc>
    <rc><c>H </c><c>   1</c></rc>
    <rc><c>H </c><c>   1</c></rc>
    <rc><c>H </c><c>   1</c></rc>
    <rc><c>H </c><c>   1</c></rc>
    <rc><c>H </c><c>   1</c></rc>
    <rc><c>H </c><c>   1</c></rc>
    <rc><c>H </c><c>   1</c></rc>
    <rc><c>H </c><c>   1</c></rc>
    <rc><c>H </c><c>   1</c></rc>
    <rc><c>H </c><c>   1</c></rc>
    <rc><c>H </c><c>   1</c></rc>
    <rc><c>H </c><c>   1</c></rc>
    <rc><c>H </c><c>   1</c></rc>
    <rc><c>H </c><c>   1</c></rc>
    <rc><c>H </c><c>   1</c></rc>
    <rc><c>H </c><c>   1</c></rc>
    <rc><c>H </c><c>   1</c></rc>
    <rc><c>H </c><c>   1</c></rc>
    <rc><c>H </c><c>   1</c></rc>
    <rc><c>H </c><c>   1</c></rc>
    <rc><c>H </c><c>   1</c></rc>
    <rc><c>H </c><c>   1</c></rc>
    <rc><c>H </c><c>   1</c></rc>
    <rc><c>H </c><c>   1</c></rc>
    <rc><c>H </c><c>   1</c></rc>
    <rc><c>H </c><c>   1</c></rc>
    <rc><c>H </c><c>   1</c></rc>
    <rc><c>H </c><c>   1</c></rc>
    <rc><c>H </c><c>   1</c></rc>
    <rc><c>H </c><c>   1</c></rc>
    <rc><c>H </c><c>   1</c></rc>
    <rc><c>H </c><c>   1</c></rc>
    <rc><c>H </c><c>   1</c></rc>
    <rc><c>H </c><c>   1</c></rc>
    <rc><c>H </c><c>   1</c></rc>
    <rc><c>H </c><c>   1</c></rc>
    <rc><c>H </c><c>   1</c></rc>
    <rc><c>H </c><c>   1</c></rc>
    <rc><c>H </c><c>   1</c></rc>
    <rc><c>H </c><c>   1</c></rc>
    <rc><c>H </c><c>   1</c></rc>
    <rc><c>H </c><c>   1</c></rc>
    <rc><c>H </c><c>   1</c></rc>
    <rc><c>H </c><c>   1</c></rc>
    <rc><c>H </c><c>   1</c></rc>
    <rc><c>H </c><c>   1</c></rc>
    <rc><c>H </c><c>   1</c></rc>
    <rc><c>H </c><c>   1</c></rc>
    <rc><c>H </c><c>   1</c></rc>
    <rc><c>H </c><c>   1</c></rc>
    <rc><c>H </c><c>   1</c></rc>
    <rc><c>H </c><c>   1</c></rc>
    <rc><c>H </c><c>   1</c></rc>
    <rc><c>H </c><c>   1</c></rc>
    <rc><c>H </c><c>   1</c></rc>
    <rc><c>H </c><c>   1</c></rc>
    <rc><c>H </c><c>   1</c></rc>
    <rc><c>H </c><c>   1</c></rc>
    <rc><c>H </c><c>   1</c></rc>
    <rc><c>H </c><c>   1</c></rc>
    <rc><c>H </c><c>   1</c></rc>
    <rc><c>H </c><c>   1</c></rc>
    <rc><c>H </c><c>   1</c></rc>
    <rc><c>H </c><c>   1</c></rc>
    <rc><c>H </c><c>   1</c></rc>
    <rc><c>H </c><c>   1</c></rc>
    <rc><c>H </c><c>   1</c></rc>
    <rc><c>H </c><c>   1</c></rc>
    <rc><c>H </c><c>   1</c></rc>
    <rc><c>H </c><c>   1</c></rc>
    <rc><c>H </c><c>   1</c></rc>
    <rc><c>H </c><c>   1</c></rc>
    <rc><c>H </c><c>   1</c></rc>
    <rc><c>H </c><c>   1</c></rc>
    <rc><c>H </c><c>   1</c></rc>
    <rc><c>H </c><c>   1</c></rc>
    <rc><c>H </c><c>   1</c></rc>
    <rc><c>H </c><c>   1</c></rc>
    <rc><c>H </c><c>   1</c></rc>
    <rc><c>H </c><c>   1</c></rc>
    <rc><c>H </c><c>   1</c></rc>
    <rc><c>H </c><c>   1</c></rc>
    <rc><c>H </c><c>   1</c></rc>
    <rc><c>H </c><c>   1</c></rc>
    <rc><c>H </c><c>   1</c></rc>
    <rc><c>H </c><c>   1</c></rc>
    <rc><c>H </c><c>   1</c></rc>
    <rc><c>H </c><c>   1</c></rc>
    <rc><c>H </c><c>   1</c></rc>
    <rc><c>H </c><c>   1</c></rc>
    <rc><c>H </c><c>   1</c></rc>
    <rc><c>H </c><c>   1</c></rc>
    <rc><c>H </c><c>   1</c></rc>
    <rc><c>H </c><c>   1</c></rc>
    <rc><c>H </c><c>   1</c></rc>
    <rc><c>H </c><c>   1</c></rc>
    <rc><c>H </c><c>   1</c></rc>
    <rc><c>H </c><c>   1</c></rc>
    <rc><c>H </c><c>   1</c></rc>
    <rc><c>H </c><c>   1</c></rc>
    <rc><c>H </c><c>   1</c></rc>
    <rc><c>H </c><c>   1</c></rc>
    <rc><c>H </c><c>   1</c></rc>
    <rc><c>H </c><c>   1</c></rc>
    <rc><c>H </c><c>   1</c></rc>
    <rc><c>H </c><c>   1</c></rc>
    <rc><c>H </c><c>   1</c></rc>
    <rc><c>H </c><c>   1</c></rc>
    <rc><c>H </c><c>   1</c></rc>
    <rc><c>H </c><c>   1</c></rc>
    <rc><c>H </c><c>   1</c></rc>
    <rc><c>H </c><c>   1</c></rc>
    <rc><c>H </c><c>   1</c></rc>
    <rc><c>H </c><c>   1</c></rc>
    <rc><c>C </c><c>   2</c></rc>
    <rc><c>C </c><c>   2</c></rc>
    <rc><c>C </c><c>   2</c></rc>
    <rc><c>C </c><c>   2</c></rc>
    <rc><c>C </c><c>   2</c></rc>
    <rc><c>C </c><c>   2</c></rc>
    <rc><c>C </c><c>   2</c></rc>
    <rc><c>C </c><c>   2</c></rc>
    <rc><c>C </c><c>   2</c></rc>
    <rc><c>C </c><c>   2</c></rc>
    <rc><c>C </c><c>   2</c></rc>
    <rc><c>C </c><c>   2</c></rc>
    <rc><c>C </c><c>   2</c></rc>
    <rc><c>C </c><c>   2</c></rc>
    <rc><c>C </c><c>   2</c></rc>
    <rc><c>C </c><c>   2</c></rc>
    <rc><c>C </c><c>   2</c></rc>
    <rc><c>C </c><c>   2</c></rc>
    <rc><c>C </c><c>   2</c></rc>
    <rc><c>C </c><c>   2</c></rc>
    <rc><c>C </c><c>   2</c></rc>
    <rc><c>C </c><c>   2</c></rc>
    <rc><c>C </c><c>   2</c></rc>
    <rc><c>C </c><c>   2</c></rc>
    <rc><c>C </c><c>   2</c></rc>
    <rc><c>C </c><c>   2</c></rc>
    <rc><c>C </c><c>   2</c></rc>
    <rc><c>C </c><c>   2</c></rc>
    <rc><c>C </c><c>   2</c></rc>
    <rc><c>C </c><c>   2</c></rc>
    <rc><c>C </c><c>   2</c></rc>
    <rc><c>C </c><c>   2</c></rc>
    <rc><c>C </c><c>   2</c></rc>
    <rc><c>C </c><c>   2</c></rc>
    <rc><c>C </c><c>   2</c></rc>
    <rc><c>C </c><c>   2</c></rc>
    <rc><c>C </c><c>   2</c></rc>
    <rc><c>C </c><c>   2</c></rc>
    <rc><c>C </c><c>   2</c></rc>
    <rc><c>N </c><c>   3</c></rc>
    <rc><c>N </c><c>   3</c></rc>
    <rc><c>N </c><c>   3</c></rc>
    <rc><c>N </c><c>   3</c></rc>
    <rc><c>N </c><c>   3</c></rc>
    <rc><c>N </c><c>   3</c></rc>
    <rc><c>N </c><c>   3</c></rc>
    <rc><c>N </c><c>   3</c></rc>
    <rc><c>N </c><c>   3</c></rc>
    <rc><c>N </c><c>   3</c></rc>
    <rc><c>N </c><c>   3</c></rc>
    <rc><c>N </c><c>   3</c></rc>
    <rc><c>N </c><c>   3</c></rc>
    <rc><c>N </c><c>   3</c></rc>
    <rc><c>N </c><c>   3</c></rc>
    <rc><c>N </c><c>   3</c></rc>
    <rc><c>N </c><c>   3</c></rc>
    <rc><c>N </c><c>   3</c></rc>
    <rc><c>N </c><c>   3</c></rc>
    <rc><c>N </c><c>   3</c></rc>
    <rc><c>N </c><c>   3</c></rc>
    <rc><c>N </c><c>   3</c></rc>
    <rc><c>N </c><c>   3</c></rc>
    <rc><c>N </c><c>   3</c></rc>
    <rc><c>N </c><c>   3</c></rc>
    <rc><c>N </c><c>   3</c></rc>
    <rc><c>N </c><c>   3</c></rc>
    <rc><c>N </c><c>   3</c></rc>
    <rc><c>N </c><c>   3</c></rc>
    <rc><c>N </c><c>   3</c></rc>
    <rc><c>N </c><c>   3</c></rc>
    <rc><c>N </c><c>   3</c></rc>
    <rc><c>N </c><c>   3</c></rc>
    <rc><c>N </c><c>   3</c></rc>
    <rc><c>N </c><c>   3</c></rc>
    <rc><c>N </c><c>   3</c></rc>
    <rc><c>N </c><c>   3</c></rc>
    <rc><c>N </c><c>   3</c></rc>
    <rc><c>N </c><c>   3</c></rc>
    <rc><c>N </c><c>   3</c></rc>
    <rc><c>N </c><c>   3</c></rc>
    <rc><c>N </c><c>   3</c></rc>
    <rc><c>N </c><c>   3</c></rc>
    <rc><c>N </c><c>   3</c></rc>
    <rc><c>N </c><c>   3</c></rc>
    <rc><c>N </c><c>   3</c></rc>
    <rc><c>N </c><c>   3</c></rc>
    <rc><c>I </c><c>   4</c></rc>
    <rc><c>I </c><c>   4</c></rc>
    <rc><c>I </c><c>   4</c></rc>
    <rc><c>I </c><c>   4</c></rc>
    <rc><c>I </c><c>   4</c></rc>
    <rc><c>I </c><c>   4</c></rc>
    <rc><c>I </c><c>   4</c></rc>
    <rc><c>I </c><c>   4</c></rc>
    <rc><c>I </c><c>   4</c></rc>
    <rc><c>I </c><c>   4</c></rc>
    <rc><c>I </c><c>   4</c></rc>
    <rc><c>I </c><c>   4</c></rc>
    <rc><c>I </c><c>   4</c></rc>
    <rc><c>I </c><c>   4</c></rc>
    <rc><c>I </c><c>   4</c></rc>
    <rc><c>I </c><c>   4</c></rc>
    <rc><c>I </c><c>   4</c></rc>
    <rc><c>I </c><c>   4</c></rc>
    <rc><c>I </c><c>   4</c></rc>
    <rc><c>I </c><c>   4</c></rc>
    <rc><c>I </c><c>   4</c></rc>
    <rc><c>I </c><c>   4</c></rc>
    <rc><c>I </c><c>   4</c></rc>
    <rc><c>I </c><c>   4</c></rc>
    <rc><c>I </c><c>   4</c></rc>
    <rc><c>I </c><c>   4</c></rc>
    <rc><c>I </c><c>   4</c></rc>
    <rc><c>I </c><c>   4</c></rc>
    <rc><c>I </c><c>   4</c></rc>
    <rc><c>I </c><c>   4</c></rc>
    <rc><c>I </c><c>   4</c></rc>
    <rc><c>I </c><c>   4</c></rc>
    <rc><c>I </c><c>   4</c></rc>
    <rc><c>I </c><c>   4</c></rc>
    <rc><c>I </c><c>   4</c></rc>
    <rc><c>I </c><c>   4</c></rc>
    <rc><c>I </c><c>   4</c></rc>
    <rc><c>I </c><c>   4</c></rc>
    <rc><c>I </c><c>   4</c></rc>
    <rc><c>I </c><c>   4</c></rc>
    <rc><c>I </c><c>   4</c></rc>
    <rc><c>I </c><c>   4</c></rc>
    <rc><c>I </c><c>   4</c></rc>
    <rc><c>I </c><c>   4</c></rc>
    <rc><c>I </c><c>   4</c></rc>
    <rc><c>I </c><c>   4</c></rc>
    <rc><c>I </c><c>   4</c></rc>
    <rc><c>I </c><c>   4</c></rc>
    <rc><c>I </c><c>   4</c></rc>
    <rc><c>I </c><c>   4</c></rc>
    <rc><c>I </c><c>   4</c></rc>
    <rc><c>I </c><c>   4</c></rc>
    <rc><c>I </c><c>   4</c></rc>
    <rc><c>I </c><c>   4</c></rc>
    <rc><c>I </c><c>   4</c></rc>
    <rc><c>I </c><c>   4</c></rc>
    <rc><c>I </c><c>   4</c></rc>
    <rc><c>I </c><c>   4</c></rc>
    <rc><c>I </c><c>   4</c></rc>
    <rc><c>I </c><c>   4</c></rc>
    <rc><c>I </c><c>   4</c></rc>
    <rc><c>I </c><c>   4</c></rc>
    <rc><c>I </c><c>   4</c></rc>
    <rc><c>I </c><c>   4</c></rc>
    <rc><c>I </c><c>   4</c></rc>
    <rc><c>I </c><c>   4</c></rc>
    <rc><c>I </c><c>   4</c></rc>
    <rc><c>I </c><c>   4</c></rc>
    <rc><c>I </c><c>   4</c></rc>
    <rc><c>I </c><c>   4</c></rc>
    <rc><c>I </c><c>   4</c></rc>
    <rc><c>I </c><c>   4</c></rc>
    <rc><c>Pb</c><c>   5</c></rc>
    <rc><c>Pb</c><c>   5</c></rc>
    <rc><c>Pb</c><c>   5</c></rc>
    <rc><c>Pb</c><c>   5</c></rc>
    <rc><c>Pb</c><c>   5</c></rc>
    <rc><c>Pb</c><c>   5</c></rc>
    <rc><c>Pb</c><c>   5</c></rc>
    <rc><c>Pb</c><c>   5</c></rc>
    <rc><c>Pb</c><c>   5</c></rc>
    <rc><c>Pb</c><c>   5</c></rc>
    <rc><c>Pb</c><c>   5</c></rc>
    <rc><c>Pb</c><c>   5</c></rc>
    <rc><c>Pb</c><c>   5</c></rc>
    <rc><c>Pb</c><c>   5</c></rc>
    <rc><c>Pb</c><c>   5</c></rc>
    <rc><c>Pb</c><c>   5</c></rc>
    <rc><c>Pb</c><c>   5</c></rc>
    <rc><c>Pb</c><c>   5</c></rc>
    <rc><c>Pb</c><c>   5</c></rc>
    <rc><c>Pb</c><c>   5</c></rc>
    <rc><c>Pb</c><c>   5</c></rc>
    <rc><c>Pb</c><c>   5</c></rc>
    <rc><c>Pb</c><c>   5</c></rc>
    <rc><c>Pb</c><c>   5</c></rc>
   </set>
  </array>
  <array name="atomtypes" >
   <dimension dim="1">type</dimension>
   <field type="int">atomspertype</field>
   <field type="string">element</field>
   <field>mass</field>
   <field>valence</field>
   <field type="string">pseudopotential</field>
   <set>
    <rc><c> 143</c><c>H </c><c>      1.00000000</c><c>      1.00000000</c><c>  PAW_PBE H 15Jun2001                   </c></rc>
    <rc><c>  39</c><c>C </c><c>     12.01100000</c><c>      4.00000000</c><c>  PAW_PBE C 08Apr2002                   </c></rc>
    <rc><c>  47</c><c>N </c><c>     14.00100000</c><c>      5.00000000</c><c>  PAW_PBE N 08Apr2002                   </c></rc>
    <rc><c>  72</c><c>I </c><c>    126.90400000</c><c>      7.00000000</c><c>  PAW_PBE I 08Apr2002                   </c></rc>
    <rc><c>  24</c><c>Pb</c><c>    207.20000000</c><c>      4.00000000</c><c>  PAW_PBE Pb 08Apr2002                  </c></rc>
   </set>
  </array>
 </atominfo>
 <structure name="initialpos" >
  <crystal>
   <varray name="basis" >
    <v>      18.06080055       0.00000000       0.00000000 </v>
    <v>      -0.00491865      18.06279945       0.00000000 </v>
    <v>       0.00000000       0.00000000      62.48749924 </v>
   </varray>
   <i name="volume">  20385.21054034 </i>
   <varray name="rec_basis" >
    <v>       0.05536853       0.00001508      -0.00000000 </v>
    <v>       0.00000000       0.05536240       0.00000000 </v>
    <v>       0.00000000      -0.00000000       0.01600320 </v>
   </varray>
  </crystal>
  <varray name="positions" >
   <v>       0.44229444       0.32293277       0.57068574 </v>
   <v>       0.42015159       0.82848883       0.57006678 </v>
   <v>       0.96903661       0.32136753       0.57957076 </v>
   <v>       0.95081749       0.81154974       0.57784775 </v>
   <v>       0.32259708       0.95306168       0.57275146 </v>
   <v>       0.34011904       0.56302905       0.56994114 </v>
   <v>       0.79769651       0.07752538       0.57675507 </v>
   <v>       0.02128831       0.13660562       0.56197288 </v>
   <v>       0.06384181       0.64953001       0.56643873 </v>
   <v>       0.56222693       0.17513600       0.55286455 </v>
   <v>       0.51730854       0.65402505       0.56304242 </v>
   <v>       0.36091578       0.02016479       0.55617350 </v>
   <v>       0.28444583       0.62768644       0.55653795 </v>
   <v>       0.87037850       0.02487492       0.56561936 </v>
   <v>       0.97897288       0.18648820       0.58286603 </v>
   <v>       0.00012680       0.68506645       0.58446218 </v>
   <v>       0.56033173       0.25530213       0.56865732 </v>
   <v>       0.44275546       0.69264942       0.57632883 </v>
   <v>       0.28728832       0.43534407       0.57436287 </v>
   <v>       0.18753916       0.93262386       0.57105727 </v>
   <v>       0.67179278       0.02688472       0.57269517 </v>
   <v>       0.36585678       0.28227661       0.55789351 </v>
   <v>       0.48487661       0.87644736       0.55472503 </v>
   <v>       0.02054669       0.36252959       0.55931341 </v>
   <v>       0.99262032       0.86140619       0.55718273 </v>
   <v>       0.19911929       0.42179596       0.56360675 </v>
   <v>       0.13603524       0.99271773       0.55488296 </v>
   <v>       0.66596753       0.93800549       0.56089447 </v>
   <v>       0.43583829       0.18422264       0.54448500 </v>
   <v>       0.55525415       0.76914268       0.54830413 </v>
   <v>       0.05302242       0.24797853       0.54404265 </v>
   <v>       0.06812335       0.76280975       0.54667276 </v>
   <v>       0.18910292       0.54051210       0.55058443 </v>
   <v>       0.24232885       0.05803588       0.54369212 </v>
   <v>       0.79115605       0.92937615       0.55469499 </v>
   <v>       0.47894970       0.33190827       0.66930672 </v>
   <v>       0.43775735       0.81435208       0.67310173 </v>
   <v>       0.96823545       0.27981822       0.67969479 </v>
   <v>       0.91984426       0.74410252       0.67267977 </v>
   <v>       0.31040170       0.05347352       0.67081215 </v>
   <v>       0.29958465       0.54901232       0.67590826 </v>
   <v>       0.79075659       0.06353893       0.67512624 </v>
   <v>       0.76975635       0.59478999       0.66526435 </v>
   <v>       0.08449820       0.16410882       0.64523611 </v>
   <v>       0.10588668       0.70904596       0.65239355 </v>
   <v>       0.58435115       0.17436473       0.65015457 </v>
   <v>       0.56730133       0.67451267       0.65327458 </v>
   <v>       0.18319409       0.41323445       0.64764510 </v>
   <v>       0.16956224       0.92252472       0.65126680 </v>
   <v>       0.70821916       0.40441512       0.66168056 </v>
   <v>       0.67791505       0.91565601       0.65161904 </v>
   <v>       0.06571185       0.17663415       0.67256519 </v>
   <v>       0.04441361       0.67775017       0.67217265 </v>
   <v>       0.59531843       0.25632680       0.66434955 </v>
   <v>       0.53050009       0.70564441       0.67717811 </v>
   <v>       0.20366975       0.44342198       0.67387386 </v>
   <v>       0.20556185       0.95731716       0.67536036 </v>
   <v>       0.68326780       0.48996041       0.67259064 </v>
   <v>       0.69284690       0.95988028       0.67613133 </v>
   <v>       0.39729502       0.29326732       0.65866330 </v>
   <v>       0.42350395       0.84243502       0.64679105 </v>
   <v>       0.93519126       0.32458729       0.65723180 </v>
   <v>       0.90693762       0.81167007       0.65313918 </v>
   <v>       0.33306999       0.07302876       0.64414367 </v>
   <v>       0.33091760       0.58076216       0.65109757 </v>
   <v>       0.83181009       0.07794299       0.64993688 </v>
   <v>       0.84059121       0.57756183       0.64696937 </v>
   <v>       0.00501459       0.25630814       0.63352808 </v>
   <v>       0.02282686       0.79516017       0.63843714 </v>
   <v>       0.45915364       0.19207738       0.64398733 </v>
   <v>       0.50337789       0.75769645       0.63219768 </v>
   <v>       0.24628642       0.99268295       0.63002598 </v>
   <v>       0.26009785       0.49768920       0.63162792 </v>
   <v>       0.76534267       0.98522250       0.63347595 </v>
   <v>       0.80888305       0.45347630       0.64323699 </v>
   <v>       0.44874502       0.30128397       0.76888902 </v>
   <v>       0.44874501       0.80128391       0.76888902 </v>
   <v>       0.94874497       0.30128397       0.76888902 </v>
   <v>       0.94874501       0.80128391       0.76888902 </v>
   <v>       0.30127600       0.05129450       0.76887296 </v>
   <v>       0.30127601       0.55129450       0.76887296 </v>
   <v>       0.80127594       0.05129450       0.76887296 </v>
   <v>       0.80127598       0.55129450       0.76887296 </v>
   <v>       0.07877100       0.17118050       0.74344197 </v>
   <v>       0.07877101       0.67118045       0.74344197 </v>
   <v>       0.57877100       0.17118050       0.74344197 </v>
   <v>       0.57877099       0.67118045       0.74344197 </v>
   <v>       0.17119950       0.42117448       0.74342103 </v>
   <v>       0.17119950       0.92117451       0.74342103 </v>
   <v>       0.67119951       0.42117448       0.74342103 </v>
   <v>       0.67119950       0.92117451       0.74342103 </v>
   <v>       0.05125600       0.19871499       0.76888902 </v>
   <v>       0.05125600       0.69871493       0.76888902 </v>
   <v>       0.55125603       0.19871499       0.76888902 </v>
   <v>       0.55125602       0.69871493       0.76888902 </v>
   <v>       0.19872349       0.44870397       0.76887205 </v>
   <v>       0.19872349       0.94870397       0.76887205 </v>
   <v>       0.69872352       0.44870397       0.76887205 </v>
   <v>       0.69872351       0.94870397       0.76887205 </v>
   <v>       0.42123152       0.32881747       0.74344197 </v>
   <v>       0.42123151       0.82881744       0.74344197 </v>
   <v>       0.92123147       0.32881747       0.74344197 </v>
   <v>       0.92123151       0.82881744       0.74344197 </v>
   <v>       0.32880050       0.07882500       0.74342103 </v>
   <v>       0.32880049       0.57882496       0.74342103 </v>
   <v>       0.82880048       0.07882500       0.74342103 </v>
   <v>       0.82880052       0.57882496       0.74342103 </v>
   <v>       0.00000350       0.25000148       0.72582199 </v>
   <v>       0.00000350       0.75000145       0.72582199 </v>
   <v>       0.50000351       0.25000148       0.72582199 </v>
   <v>       0.50000350       0.75000145       0.72582199 </v>
   <v>       0.25000050       0.00000000       0.72580398 </v>
   <v>       0.25000052       0.50000000       0.72580398 </v>
   <v>       0.75000050       0.00000000       0.72580398 </v>
   <v>       0.75000049       0.50000000       0.72580398 </v>
   <v>       0.77491318       0.55517920       0.52048795 </v>
   <v>       0.72085906       0.47556591       0.52582673 </v>
   <v>       0.87298074       0.50095052       0.54194482 </v>
   <v>       0.85627481       0.48021966       0.56893954 </v>
   <v>       0.74351607       0.64062615       0.55954490 </v>
   <v>       0.80514474       0.59802115       0.57788695 </v>
   <v>       0.66848685       0.54901696       0.57032617 </v>
   <v>       0.67632187       0.45625372       0.56121735 </v>
   <v>       0.61632207       0.55251133       0.53759715 </v>
   <v>       0.67045776       0.63436002       0.53614019 </v>
   <v>       0.60647929       0.64442901       0.50507746 </v>
   <v>       0.68669826       0.60057265       0.49556857 </v>
   <v>       0.79669886       0.39014239       0.53033483 </v>
   <v>       0.77505524       0.37045461       0.55718469 </v>
   <v>       0.86733415       0.36488492       0.54835095 </v>
   <v>       0.86457276       0.69401889       0.55639211 </v>
   <v>       0.84595014       0.64759450       0.53201565 </v>
   <v>       0.90762501       0.60671651       0.55118507 </v>
   <v>       0.75638438       0.52692715       0.60017687 </v>
   <v>       0.77722584       0.43697934       0.59037345 </v>
   <v>       0.68771383       0.45863163       0.59959893 </v>
   <v>       0.53469038       0.52963340       0.50372114 </v>
   <v>       0.57528740       0.54675854       0.47830065 </v>
   <v>       0.69260040       0.47480509       0.46825473 </v>
   <v>       0.56132441       0.41998769       0.52392223 </v>
   <v>       0.75979869       0.35563799       0.47154127 </v>
   <v>       0.63017300       0.29979264       0.52696709 </v>
   <v>       0.72962460       0.26827521       0.50139322 </v>
   <v>       0.02104972       0.24936104       0.55886245 </v>
   <v>       0.03052497       0.75571855       0.56043485 </v>
   <v>       0.46355677       0.22757233       0.55394136 </v>
   <v>       0.50431156       0.76545154       0.55778985 </v>
   <v>       0.24010431       0.52413335       0.55879866 </v>
   <v>       0.24742332       0.01065226       0.55450587 </v>
   <v>       0.76908003       0.97934976       0.56241583 </v>
   <v>       0.00996412       0.24410907       0.65091437 </v>
   <v>       0.00683276       0.76068665       0.65225351 </v>
   <v>       0.49012933       0.23326603       0.65345022 </v>
   <v>       0.49539995       0.75863440       0.64972926 </v>
   <v>       0.25749246       0.49743144       0.64920321 </v>
   <v>       0.25097334       0.99772547       0.64757850 </v>
   <v>       0.77520658       0.48912879       0.65350351 </v>
   <v>       0.75483610       0.99596100       0.65059992 </v>
   <v>       0.49998898       0.24999498       0.74327702 </v>
   <v>       0.49998903       0.74999496       0.74327702 </v>
   <v>       0.99998898       0.24999498       0.74327702 </v>
   <v>       0.99998903       0.74999496       0.74327702 </v>
   <v>       0.25000050       0.00000100       0.74325596 </v>
   <v>       0.25000052       0.50000100       0.74325596 </v>
   <v>       0.75000050       0.00000100       0.74325596 </v>
   <v>       0.75000049       0.50000100       0.74325596 </v>
   <v>       0.62323605       0.45627474       0.49585534 </v>
   <v>       0.67864839       0.43684677       0.48109537 </v>
   <v>       0.60453659       0.40518528       0.51217983 </v>
   <v>       0.71704712       0.36972771       0.48306219 </v>
   <v>       0.64357877       0.33820492       0.51404386 </v>
   <v>       0.70007732       0.32084195       0.49954480 </v>
   <v>       0.73114192       0.53299571       0.53088035 </v>
   <v>       0.83227963       0.47602467       0.55282371 </v>
   <v>       0.79206845       0.60454822       0.56080370 </v>
   <v>       0.70704337       0.50211048       0.56865207 </v>
   <v>       0.66175253       0.57957210       0.52904045 </v>
   <v>       0.63701772       0.59238225       0.50561706 </v>
   <v>       0.81598325       0.39696132       0.54681927 </v>
   <v>       0.85685617       0.63898758       0.54916758 </v>
   <v>       0.73523538       0.48050693       0.59062436 </v>
   <v>       0.58790023       0.53208527       0.49525879 </v>
   <v>       0.00750437       0.18704133       0.56864108 </v>
   <v>       0.03338184       0.69400727       0.57148583 </v>
   <v>       0.53452358       0.22119225       0.55790816 </v>
   <v>       0.48644618       0.70036163       0.56594840 </v>
   <v>       0.42231535       0.28388029       0.56055853 </v>
   <v>       0.46466997       0.82667338       0.56020067 </v>
   <v>       0.00003037       0.31470950       0.56588876 </v>
   <v>       0.98573163       0.81121173       0.56480382 </v>
   <v>       0.24405549       0.45507306       0.56512353 </v>
   <v>       0.18729375       0.97465770       0.55973488 </v>
   <v>       0.69674323       0.98414020       0.56454468 </v>
   <v>       0.31391856       0.99458345       0.56175622 </v>
   <v>       0.29185458       0.57424260       0.56176910 </v>
   <v>       0.81547548       0.02989171       0.56914771 </v>
   <v>       0.05546805       0.19191284       0.65677125 </v>
   <v>       0.05402955       0.71223816       0.65941479 </v>
   <v>       0.56085884       0.22104885       0.65641938 </v>
   <v>       0.53291066       0.71042794       0.66099488 </v>
   <v>       0.21226672       0.44785081       0.65789489 </v>
   <v>       0.20623881       0.95756884       0.65913916 </v>
   <v>       0.71761284       0.45998980       0.66310803 </v>
   <v>       0.70596786       0.95530750       0.66044728 </v>
   <v>       0.45386100       0.29179495       0.66067175 </v>
   <v>       0.44977494       0.80824957       0.65724663 </v>
   <v>       0.96880689       0.28469899       0.66354873 </v>
   <v>       0.94076776       0.77379801       0.66024357 </v>
   <v>       0.30155453       0.04448994       0.65507170 </v>
   <v>       0.29809511       0.54446469       0.65980586 </v>
   <v>       0.79487996       0.04976082       0.65944275 </v>
   <v>       0.79678028       0.55920344       0.65532034 </v>
   <v>       0.04586250       0.20411950       0.75272599 </v>
   <v>       0.04586250       0.70411946       0.75272599 </v>
   <v>       0.54586251       0.20411950       0.75272599 </v>
   <v>       0.54586250       0.70411946       0.75272599 </v>
   <v>       0.20411900       0.45410100       0.75270499 </v>
   <v>       0.20411899       0.95410095       0.75270499 </v>
   <v>       0.70411898       0.45410100       0.75270499 </v>
   <v>       0.70411896       0.95410095       0.75270499 </v>
   <v>       0.45414002       0.29588849       0.75272697 </v>
   <v>       0.45414001       0.79588852       0.75272697 </v>
   <v>       0.95414002       0.29588849       0.75272697 </v>
[...]
   <v>       0.56222693       0.17513600       0.55286455 </v>
   <v>       0.51730854       0.65402505       0.56304242 </v>
   <v>       0.36091578       0.02016479       0.55617350 </v>
   <v>       0.28444583       0.62768644       0.55653795 </v>
   <v>       0.87037850       0.02487492       0.56561936 </v>
   <v>       0.97897288       0.18648820       0.58286603 </v>
   <v>       0.00012680       0.68506645       0.58446218 </v>
   <v>       0.56033173       0.25530213       0.56865732 </v>
   <v>       0.44275546       0.69264942       0.57632883 </v>
   <v>       0.28728832       0.43534407       0.57436287 </v>
   <v>       0.18753916       0.93262386       0.57105727 </v>
   <v>       0.67179278       0.02688472       0.57269517 </v>
   <v>       0.36585678       0.28227661       0.55789351 </v>
   <v>       0.48487661       0.87644736       0.55472503 </v>
   <v>       0.02054669       0.36252959       0.55931341 </v>
   <v>       0.99262032       0.86140619       0.55718273 </v>
   <v>       0.19911929       0.42179596       0.56360675 </v>
   <v>       0.13603524       0.99271773       0.55488296 </v>
   <v>       0.66596753       0.93800549       0.56089447 </v>
   <v>       0.43583829       0.18422264       0.54448500 </v>
   <v>       0.55525415       0.76914268       0.54830413 </v>
   <v>       0.05302242       0.24797853       0.54404265 </v>
   <v>       0.06812335       0.76280975       0.54667276 </v>
   <v>       0.18910292       0.54051210       0.55058443 </v>
   <v>       0.24232885       0.05803588       0.54369212 </v>
   <v>       0.79115605       0.92937615       0.55469499 </v>
   <v>       0.47894970       0.33190827       0.66930672 </v>
   <v>       0.43775735       0.81435208       0.67310173 </v>
   <v>       0.96823545       0.27981822       0.67969479 </v>
   <v>       0.91984426       0.74410252       0.67267977 </v>
   <v>       0.31040170       0.05347352       0.67081215 </v>
   <v>       0.29958465       0.54901232       0.67590826 </v>
   <v>       0.79075659       0.06353893       0.67512624 </v>
   <v>       0.76975635       0.59478999       0.66526435 </v>
   <v>       0.08449820       0.16410882       0.64523611 </v>
   <v>       0.10588668       0.70904596       0.65239355 </v>
   <v>       0.58435115       0.17436473       0.65015457 </v>
   <v>       0.56730133       0.67451267       0.65327458 </v>
   <v>       0.18319409       0.41323445       0.64764510 </v>
   <v>       0.16956224       0.92252472       0.65126680 </v>
   <v>       0.70821916       0.40441512       0.66168056 </v>
   <v>       0.67791505       0.91565601       0.65161904 </v>
   <v>       0.06571185       0.17663415       0.67256519 </v>
   <v>       0.04441361       0.67775017       0.67217265 </v>
   <v>       0.59531843       0.25632680       0.66434955 </v>
   <v>       0.53050009       0.70564441       0.67717811 </v>
   <v>       0.20366975       0.44342198       0.67387386 </v>
   <v>       0.20556185       0.95731716       0.67536036 </v>
   <v>       0.68326780       0.48996041       0.67259064 </v>
   <v>       0.69284690       0.95988028       0.67613133 </v>
   <v>       0.39729502       0.29326732       0.65866330 </v>
   <v>       0.42350395       0.84243502       0.64679105 </v>
   <v>       0.93519126       0.32458729       0.65723180 </v>
   <v>       0.90693762       0.81167007       0.65313918 </v>
   <v>       0.33306999       0.07302876       0.64414367 </v>
   <v>       0.33091760       0.58076216       0.65109757 </v>
   <v>       0.83181009       0.07794299       0.64993688 </v>
   <v>       0.84059121       0.57756183       0.64696937 </v>
   <v>       0.00501459       0.25630814       0.63352808 </v>
   <v>       0.02282686       0.79516017       0.63843714 </v>
   <v>       0.45915364       0.19207738       0.64398733 </v>
   <v>       0.50337789       0.75769645       0.63219768 </v>
   <v>       0.24628642       0.99268295       0.63002598 </v>
   <v>       0.26009785       0.49768920       0.63162792 </v>
   <v>       0.76534267       0.98522250       0.63347595 </v>
   <v>       0.80888305       0.45347630       0.64323699 </v>
   <v>       0.44874502       0.30128397       0.76888902 </v>
   <v>       0.44874501       0.80128391       0.76888902 </v>
   <v>       0.94874497       0.30128397       0.76888902 </v>
   <v>       0.94874501       0.80128391       0.76888902 </v>
   <v>       0.30127600       0.05129450       0.76887296 </v>
   <v>       0.30127601       0.55129450       0.76887296 </v>
   <v>       0.80127594       0.05129450       0.76887296 </v>
   <v>       0.80127598       0.55129450       0.76887296 </v>
   <v>       0.07877100       0.17118050       0.74344197 </v>
   <v>       0.07877101       0.67118045       0.74344197 </v>
   <v>       0.57877100       0.17118050       0.74344197 </v>
   <v>       0.57877099       0.67118045       0.74344197 </v>
   <v>       0.17119950       0.42117448       0.74342103 </v>
   <v>       0.17119950       0.92117451       0.74342103 </v>
   <v>       0.67119951       0.42117448       0.74342103 </v>
   <v>       0.67119950       0.92117451       0.74342103 </v>
   <v>       0.05125600       0.19871499       0.76888902 </v>
   <v>       0.05125600       0.69871493       0.76888902 </v>
   <v>       0.55125603       0.19871499       0.76888902 </v>
   <v>       0.55125602       0.69871493       0.76888902 </v>
   <v>       0.19872349       0.44870397       0.76887205 </v>
   <v>       0.19872349       0.94870397       0.76887205 </v>
   <v>       0.69872352       0.44870397       0.76887205 </v>
   <v>       0.69872351       0.94870397       0.76887205 </v>
   <v>       0.42123152       0.32881747       0.74344197 </v>
   <v>       0.42123151       0.82881744       0.74344197 </v>
   <v>       0.92123147       0.32881747       0.74344197 </v>
   <v>       0.92123151       0.82881744       0.74344197 </v>
   <v>       0.32880050       0.07882500       0.74342103 </v>
   <v>       0.32880049       0.57882496       0.74342103 </v>
   <v>       0.82880048       0.07882500       0.74342103 </v>
   <v>       0.82880052       0.57882496       0.74342103 </v>
   <v>       0.00000350       0.25000148       0.72582199 </v>
   <v>       0.00000350       0.75000145       0.72582199 </v>
   <v>       0.50000351       0.25000148       0.72582199 </v>
   <v>       0.50000350       0.75000145       0.72582199 </v>
   <v>       0.25000050       0.00000000       0.72580398 </v>
   <v>       0.25000052       0.50000000       0.72580398 </v>
   <v>       0.75000050       0.00000000       0.72580398 </v>
   <v>       0.75000049       0.50000000       0.72580398 </v>
   <v>       0.77491318       0.55517920       0.52048795 </v>
   <v>       0.72085906       0.47556591       0.52582673 </v>
   <v>       0.87298074       0.50095052       0.54194482 </v>
   <v>       0.85627481       0.48021966       0.56893954 </v>
   <v>       0.74351607       0.64062615       0.55954490 </v>
   <v>       0.80514474       0.59802115       0.57788695 </v>
   <v>       0.66848685       0.54901696       0.57032617 </v>
   <v>       0.67632187       0.45625372       0.56121735 </v>
   <v>       0.61632207       0.55251133       0.53759715 </v>
   <v>       0.67045776       0.63436002       0.53614019 </v>
   <v>       0.60647929       0.64442901       0.50507746 </v>
   <v>       0.68669826       0.60057265       0.49556857 </v>
   <v>       0.79669886       0.39014239       0.53033483 </v>
   <v>       0.77505524       0.37045461       0.55718469 </v>
   <v>       0.86733415       0.36488492       0.54835095 </v>
   <v>       0.86457276       0.69401889       0.55639211 </v>
   <v>       0.84595014       0.64759450       0.53201565 </v>
   <v>       0.90762501       0.60671651       0.55118507 </v>
   <v>       0.75638438       0.52692715       0.60017687 </v>
   <v>       0.77722584       0.43697934       0.59037345 </v>
   <v>       0.68771383       0.45863163       0.59959893 </v>
   <v>       0.53469038       0.52963340       0.50372114 </v>
   <v>       0.57528740       0.54675854       0.47830065 </v>
   <v>       0.69260040       0.47480509       0.46825473 </v>
   <v>       0.56132441       0.41998769       0.52392223 </v>
   <v>       0.75979869       0.35563799       0.47154127 </v>
   <v>       0.63017300       0.29979264       0.52696709 </v>
   <v>       0.72962460       0.26827521       0.50139322 </v>
   <v>       0.02104972       0.24936104       0.55886245 </v>
   <v>       0.03052497       0.75571855       0.56043485 </v>
   <v>       0.46355677       0.22757233       0.55394136 </v>
   <v>       0.50431156       0.76545154       0.55778985 </v>
   <v>       0.24010431       0.52413335       0.55879866 </v>
   <v>       0.24742332       0.01065226       0.55450587 </v>
   <v>       0.76908003       0.97934976       0.56241583 </v>
   <v>       0.00996412       0.24410907       0.65091437 </v>
   <v>       0.00683276       0.76068665       0.65225351 </v>
   <v>       0.49012933       0.23326603       0.65345022 </v>
   <v>       0.49539995       0.75863440       0.64972926 </v>
   <v>       0.25749246       0.49743144       0.64920321 </v>
   <v>       0.25097334       0.99772547       0.64757850 </v>
   <v>       0.77520658       0.48912879       0.65350351 </v>
   <v>       0.75483610       0.99596100       0.65059992 </v>
   <v>       0.49998898       0.24999498       0.74327702 </v>
   <v>       0.49998903       0.74999496       0.74327702 </v>
   <v>       0.99998898       0.24999498       0.74327702 </v>
   <v>       0.99998903       0.74999496       0.74327702 </v>
   <v>       0.25000050       0.00000100       0.74325596 </v>
   <v>       0.25000052       0.50000100       0.74325596 </v>
   <v>       0.75000050       0.00000100       0.74325596 </v>
   <v>       0.75000049       0.50000100       0.74325596 </v>
   <v>       0.62323605       0.45627474       0.49585534 </v>
   <v>       0.67864839       0.43684677       0.48109537 </v>
   <v>       0.60453659       0.40518528       0.51217983 </v>
   <v>       0.71704712       0.36972771       0.48306219 </v>
   <v>       0.64357877       0.33820492       0.51404386 </v>
   <v>       0.70007732       0.32084195       0.49954480 </v>
   <v>       0.73114192       0.53299571       0.53088035 </v>
   <v>       0.83227963       0.47602467       0.55282371 </v>
   <v>       0.79206845       0.60454822       0.56080370 </v>
   <v>       0.70704337       0.50211048       0.56865207 </v>
   <v>       0.66175253       0.57957210       0.52904045 </v>
   <v>       0.63701772       0.59238225       0.50561706 </v>
   <v>       0.81598325       0.39696132       0.54681927 </v>
   <v>       0.85685617       0.63898758       0.54916758 </v>
   <v>       0.73523538       0.48050693       0.59062436 </v>
   <v>       0.58790023       0.53208527       0.49525879 </v>
   <v>       0.00750437       0.18704133       0.56864108 </v>
   <v>       0.03338184       0.69400727       0.57148583 </v>
   <v>       0.53452358       0.22119225       0.55790816 </v>
   <v>       0.48644618       0.70036163       0.56594840 </v>
   <v>       0.42231535       0.28388029       0.56055853 </v>
   <v>       0.46466997       0.82667338       0.56020067 </v>
   <v>       0.00003037       0.31470950       0.56588876 </v>
   <v>       0.98573163       0.81121173       0.56480382 </v>
   <v>       0.24405549       0.45507306       0.56512353 </v>
   <v>       0.18729375       0.97465770       0.55973488 </v>
   <v>       0.69674323       0.98414020       0.56454468 </v>
   <v>       0.31391856       0.99458345       0.56175622 </v>
   <v>       0.29185458       0.57424260       0.56176910 </v>
   <v>       0.81547548       0.02989171       0.56914771 </v>
   <v>       0.05546805       0.19191284       0.65677125 </v>
   <v>       0.05402955       0.71223816       0.65941479 </v>
   <v>       0.56085884       0.22104885       0.65641938 </v>
   <v>       0.53291066       0.71042794       0.66099488 </v>
   <v>       0.21226672       0.44785081       0.65789489 </v>
   <v>       0.20623881       0.95756884       0.65913916 </v>
   <v>       0.71761284       0.45998980       0.66310803 </v>
   <v>       0.70596786       0.95530750       0.66044728 </v>
   <v>       0.45386100       0.29179495       0.66067175 </v>
   <v>       0.44977494       0.80824957       0.65724663 </v>
   <v>       0.96880689       0.28469899       0.66354873 </v>
   <v>       0.94076776       0.77379801       0.66024357 </v>
   <v>       0.30155453       0.04448994       0.65507170 </v>
   <v>       0.29809511       0.54446469       0.65980586 </v>
   <v>       0.79487996       0.04976082       0.65944275 </v>
   <v>       0.79678028       0.55920344       0.65532034 </v>
   <v>       0.04586250       0.20411950       0.75272599 </v>
   <v>       0.04586250       0.70411946       0.75272599 </v>
   <v>       0.54586251       0.20411950       0.75272599 </v>
   <v>       0.54586250       0.70411946       0.75272599 </v>
   <v>       0.20411900       0.45410100       0.75270499 </v>
   <v>       0.20411899       0.95410095       0.75270499 </v>
   <v>       0.70411898       0.45410100       0.75270499 </v>
   <v>       0.70411896       0.95410095       0.75270499 </v>
   <v>       0.45414002       0.29588849       0.75272697 </v>
   <v>       0.45414001       0.79588852       0.75272697 </v>
   <v>       0.95414002       0.29588849       0.75272697 </v>
   <v>       0.95414006       0.79588852       0.75272697 </v>
   <v>       0.29588249       0.04590050       0.75270499 </v>
   <v>       0.29588248       0.54590053       0.75270499 </v>
   <v>       0.79588244       0.04590050       0.75270499 </v>
   <v>       0.79588248       0.54590053       0.75270499 </v>
   <v>       0.76578317       0.52857343       0.55312510 </v>
   <v>       0.50577148       0.01997337       0.55201965 </v>
   <v>       0.47465395       0.50127850       0.55540454 </v>
   <v>       0.99817520       0.00153057       0.55004715 </v>
   <v>       0.03955765       0.50133446       0.55279520 </v>
   <v>       0.22995887       0.23840011       0.55248013 </v>
   <v>       0.24845132       0.76992921       0.55406083 </v>
   <v>       0.73645356       0.20308446       0.55531078 </v>
   <v>       0.70666247       0.79187579       0.55151113 </v>
   <v>       0.00195850       0.98330255       0.65418413 </v>
   <v>       0.00938237       0.49397082       0.65537535 </v>
   <v>       0.50155839       0.01026259       0.65471249 </v>
   <v>       0.51486814       0.48832838       0.65538872 </v>
   <v>       0.26025277       0.24483340       0.65452813 </v>
   <v>       0.25062973       0.75499390       0.65459663 </v>
   <v>       0.75194546       0.26270762       0.65465749 </v>
   <v>       0.74394654       0.75508656       0.65415177 </v>
   <v>       0.13516878       0.10717381       0.60804001 </v>
   <v>       0.14776851       0.60810277       0.61028326 </v>
   <v>       0.64924331       0.10585115       0.61129005 </v>
   <v>       0.61747703       0.63408256       0.61307154 </v>
   <v>       0.36006723       0.38520459       0.60654118 </v>
   <v>       0.37029779       0.88291914       0.60770175 </v>
   <v>       0.89292396       0.36353238       0.61280744 </v>
   <v>       0.87320915       0.87045756       0.60795131 </v>
   <v>       0.12429030       0.36196336       0.61055864 </v>
   <v>       0.12483770       0.87115338       0.60634930 </v>
   <v>       0.58351296       0.33166569       0.60290825 </v>
   <v>       0.61634954       0.87246826       0.61095044 </v>
   <v>       0.38657303       0.13419586       0.60626836 </v>
   <v>       0.38407625       0.62887560       0.61134396 </v>
   <v>       0.88744051       0.13701380       0.61235307 </v>
   <v>       0.90665204       0.64117324       0.61357811 </v>
   <v>       0.00000000       0.00000000       0.75492797 </v>
   <v>       0.00000000       0.50000000       0.75492797 </v>
   <v>       0.50000000       0.00000000       0.75492797 </v>
   <v>       0.49999999       0.50000000       0.75492797 </v>
   <v>       0.25000050       0.25000000       0.75493902 </v>
   <v>       0.25000051       0.74999997       0.75493902 </v>
   <v>       0.75000047       0.25000000       0.75493902 </v>
   <v>       0.75000046       0.74999997       0.75493902 </v>
   <v>       0.13579050       0.11421000       0.70478299 </v>
   <v>       0.13579050       0.61420998       0.70478299 </v>
   <v>       0.63579045       0.11421000       0.70478299 </v>
   <v>       0.63579049       0.61420998       0.70478299 </v>
   <v>       0.36420952       0.38578999       0.70478299 </v>
   <v>       0.36420950       0.88578996       0.70478299 </v>
   <v>       0.86420954       0.38578999       0.70478299 </v>
   <v>       0.86420953       0.88578996       0.70478299 </v>
   <v>       0.11421799       0.36421899       0.70478098 </v>
   <v>       0.11421799       0.86421899       0.70478098 </v>
   <v>       0.61421800       0.36421899       0.70478098 </v>
   <v>       0.61421799       0.86421899       0.70478098 </v>
   <v>       0.38578201       0.13578149       0.70478202 </v>
   <v>       0.38578200       0.63578149       0.70478202 </v>
   <v>       0.88578199       0.13578149       0.70478202 </v>
   <v>       0.88578203       0.63578149       0.70478202 </v>
   <v>       0.13466700       0.11533200       0.80125603 </v>
   <v>       0.13466699       0.61533199       0.80125603 </v>
   <v>       0.63466699       0.11533200       0.80125603 </v>
   <v>       0.63466698       0.61533199       0.80125603 </v>
   <v>       0.36533300       0.38466799       0.80125603 </v>
   <v>       0.36533299       0.88466796       0.80125603 </v>
   <v>       0.86533295       0.38466799       0.80125603 </v>
   <v>       0.86533294       0.88466796       0.80125603 </v>
   <v>       0.11532850       0.36533700       0.80126500 </v>
   <v>       0.11532850       0.86533698       0.80126500 </v>
   <v>       0.61532850       0.36533700       0.80126500 </v>
   <v>       0.61532849       0.86533698       0.80126500 </v>
   <v>       0.38467151       0.13466300       0.80126500 </v>
   <v>       0.38467150       0.63466297       0.80126500 </v>
   <v>       0.88467149       0.13466300       0.80126500 </v>
   <v>       0.88467153       0.63466297       0.80126500 </v>
   <v>       0.99509967       0.99670756       0.60547187 </v>
   <v>       0.00892903       0.50037101       0.60570660 </v>
   <v>       0.49938897       0.00703139       0.60415245 </v>
   <v>       0.49743236       0.49222686       0.60443706 </v>
   <v>       0.24395150       0.24124247       0.60308767 </v>
   <v>       0.24843685       0.74742582       0.60393903 </v>
   <v>       0.73990871       0.25058331       0.60257847 </v>
   <v>       0.73273177       0.75707048       0.60156838 </v>
   <v>       0.00000050       0.00000050       0.70482896 </v>
   <v>       0.00000050       0.50000048       0.70482896 </v>
   <v>       0.50000048       0.00000050       0.70482896 </v>
   <v>       0.50000046       0.50000048       0.70482896 </v>
   <v>       0.24999999       0.24999947       0.70482499 </v>
   <v>       0.25000001       0.74999950       0.70482499 </v>
   <v>       0.74999999       0.24999947       0.70482499 </v>
   <v>       0.74999998       0.74999950       0.70482499 </v>
   <v>       0.00000000       0.00000000       0.80731797 </v>
   <v>       0.00000000       0.50000000       0.80731797 </v>
   <v>       0.50000000       0.00000000       0.80731797 </v>
   <v>       0.49999999       0.50000000       0.80731797 </v>
   <v>       0.24999999       0.25000000       0.80731797 </v>
   <v>       0.25000001       0.74999997       0.80731797 </v>
   <v>       0.74999999       0.25000000       0.80731797 </v>
   <v>       0.74999998       0.74999997       0.80731797 </v>
  </varray>
 </structure>
</modeling>
