 vasp.6.2.1 16May21 (build Nov 15 2021 14:57:28) complex                         
 executed on             LinuxPGI date 2023.07.30  14:18:28
 running on    4 total cores
 distrk:  each k-point on    4 cores,    1 groups
 distr:  one band on NCORE=   1 cores,    4 groups


--------------------------------------------------------------------------------------------------------


 INCAR:
   SYSTEM = PSC
   ISTART = 1
   ICHARG = 1
   PREC = Normal
   ENCUT = 500
   GGA_COMPAT = F
   NELM = 600
   ISYM = 0
   LREAL = Auto
   ISMEAR = 0
   SIGMA = 0.05
   AMIN = 0.01
   BMIX = 0.01
   LVTOT = T
   LWAVE = F
   LDIPOL = T
   IDIPOL = 3
   LVDW = T
   IVDW = 12

 POTCAR:    PAW_PBE H 15Jun2001                   
 POTCAR:    PAW_PBE C 08Apr2002                   
 POTCAR:    PAW_PBE N 08Apr2002                   
 POTCAR:    PAW_PBE I 08Apr2002                   
 POTCAR:    PAW_PBE Pb 08Apr2002                  
 WARNING: For LVTOT=.TRUE., VASP.5.x writes the TOTAL local potential to the
     file LOCPOT. If you want only the Hartree contributions, use LVHAR=.TRUE.
     instead. 

 POTCAR:    PAW_PBE H 15Jun2001                   
   SHA256 =  030f79b5d3ab3cf0e668861823c8fb652ff669f3e15e46930bd03bfd63a607b6 H/POTCAR              
   COPYR  = (c) Copyright 15Jun2001 Georg Kresse                                                    
   COPYR  = This file is part of the software VASP. Any use, copying, and all other rights are regul
   COPYR  = If you do not have a valid VASP license, you may not use, copy or distribute this file. 
   VRHFIN =H: ultrasoft test                                                                        
   LEXCH  = PE                                                                                      
   EATOM  =    12.4884 eV,    0.9179 Ry                                                             
                                                                                                    
   TITEL  = PAW_PBE H 15Jun2001                                                                     
   LULTRA =        F    use ultrasoft PP ?                                                          
   IUNSCR =        0    unscreen: 0-lin 1-nonlin 2-no                                               
   RPACOR =    0.000    partial core radius                                                         
   POMASS =    1.000; ZVAL   =    1.000    mass and valenz                                          
   RCORE  =    1.100    outmost cutoff radius                                                       
   RWIGS  =    0.700; RWIGS  =    0.370    wigner-seitz radius (au A)                               
   ENMAX  =  250.000; ENMIN  =  200.000 eV                                                          
   RCLOC  =    0.701    cutoff for local pot                                                        
   LCOR   =        T    correct aug charges                                                         
   LPAW   =        T    paw PP                                                                      
   EAUG   =  400.000                                                                                
   RMAX   =    1.123    core radius for proj-oper                                                   
   RAUG   =    1.200    factor for augmentation sphere                                              
   RDEP   =    1.112    radius for radial grids                                                     
   RDEPT  =    0.926    core radius for aug-charge                                                  
                                                                                                    
   Atomic configuration                                                                             
    2 entries                                                                                       
     n  l   j            E        occ.                                                              
     1  0  0.50        -6.4927   1.0000                                                             
     2  1  0.50        -3.4015   0.0000                                                             
   Description                                                                                      
     l       E           TYP  RCUT    TYP  RCUT                                                     
     0     -6.4927494     23  1.100                                                                 
     0      6.8029130     23  1.100                                                                 
     1     -4.0817478     23  1.100                                                                 
  local pseudopotential read in
  atomic valenz-charges read in
  non local Contribution for L=            0  read in
    real space projection operators read in
  non local Contribution for L=            0  read in
    real space projection operators read in
  non local Contribution for L=            1  read in
    real space projection operators read in
    PAW grid and wavefunctions read in
 
   number of l-projection  operators is LMAX  =            3
   number of lm-projection operators is LMMAX =            5
 
 POTCAR:    PAW_PBE C 08Apr2002                   
   SHA256 =  253f7b50bb8d59471dbedb8285d89021f4a42ed1a2c5d38a03a736e69125dd95 C/POTCAR              
   COPYR  = (c) Copyright 08Apr2002 Georg Kresse                                                    
   COPYR  = This file is part of the software VASP. Any use, copying, and all other rights are regul
   COPYR  = If you do not have a valid VASP license, you may not use, copy or distribute this file. 
   VRHFIN =C: s2p2                                                                                  
   LEXCH  = PE                                                                                      
   EATOM  =   147.1560 eV,   10.8157 Ry                                                             
                                                                                                    
   TITEL  = PAW_PBE C 08Apr2002                                                                     
   LULTRA =        F    use ultrasoft PP ?                                                          
   IUNSCR =        1    unscreen: 0-lin 1-nonlin 2-no                                               
   RPACOR =    1.200    partial core radius                                                         
   POMASS =   12.011; ZVAL   =    4.000    mass and valenz                                          
   RCORE  =    1.500    outmost cutoff radius                                                       
   RWIGS  =    1.630; RWIGS  =    0.863    wigner-seitz radius (au A)                               
   ENMAX  =  400.000; ENMIN  =  300.000 eV                                                          
   ICORE  =        2    local potential                                                             
   LCOR   =        T    correct aug charges                                                         
   LPAW   =        T    paw PP                                                                      
   EAUG   =  644.873                                                                                
   DEXC   =    0.000                                                                                
   RMAX   =    1.529    core radius for proj-oper                                                   
   RAUG   =    1.300    factor for augmentation sphere                                              
   RDEP   =    1.501    radius for radial grids                                                     
   RDEPT  =    1.300    core radius for aug-charge                                                  
                                                                                                    
   Atomic configuration                                                                             
    4 entries                                                                                       
     n  l   j            E        occ.                                                              
     1  0  0.50      -273.3789   2.0000                                                             
     2  0  0.50       -13.7508   2.0000                                                             
     2  1  0.50        -5.2854   2.0000                                                             
     3  2  1.50        -5.4423   0.0000                                                             
   Description                                                                                      
     l       E           TYP  RCUT    TYP  RCUT                                                     
     0    -13.7508458     23  1.200                                                                 
     0     -8.2022199     23  1.200                                                                 
     1     -5.2854383     23  1.500                                                                 
     1     34.0145650     23  1.500                                                                 
     2     -5.4423304      7  1.500                                                                 
  local pseudopotential read in
  partial core-charges read in
  partial kinetic energy density read in
  atomic valenz-charges read in
  non local Contribution for L=            0  read in
    real space projection operators read in
  non local Contribution for L=            0  read in
    real space projection operators read in
  non local Contribution for L=            1  read in
    real space projection operators read in
  non local Contribution for L=            1  read in
    real space projection operators read in
    PAW grid and wavefunctions read in
 
   number of l-projection  operators is LMAX  =            4
   number of lm-projection operators is LMMAX =            8
 
 POTCAR:    PAW_PBE N 08Apr2002                   
   SHA256 =  e053789ff3a61a86a1b75d8a110fcc91f86041011e7b0817c7c99e4e8a6349d7 N/POTCAR              
   COPYR  = (c) Copyright 08Apr2002 Georg Kresse                                                    
   COPYR  = This file is part of the software VASP. Any use, copying, and all other rights are regul
   COPYR  = If you do not have a valid VASP license, you may not use, copy or distribute this file. 
   VRHFIN =N: s2p3                                                                                  
   LEXCH  = PE                                                                                      
   EATOM  =   264.5486 eV,   19.4438 Ry                                                             
                                                                                                    
   TITEL  = PAW_PBE N 08Apr2002                                                                     
   LULTRA =        F    use ultrasoft PP ?                                                          
   IUNSCR =        1    unscreen: 0-lin 1-nonlin 2-no                                               
   RPACOR =    1.200    partial core radius                                                         
   POMASS =   14.001; ZVAL   =    5.000    mass and valenz                                          
   RCORE  =    1.500    outmost cutoff radius                                                       
   RWIGS  =    1.400; RWIGS  =    0.741    wigner-seitz radius (au A)                               
   ENMAX  =  400.000; ENMIN  =  300.000 eV                                                          
   ICORE  =        2    local potential                                                             
   LCOR   =        T    correct aug charges                                                         
   LPAW   =        T    paw PP                                                                      
   EAUG   =  627.112                                                                                
   DEXC   =    0.000                                                                                
   RMAX   =    1.529    core radius for proj-oper                                                   
   RAUG   =    1.300    factor for augmentation sphere                                              
   RDEP   =    1.514    radius for radial grids                                                     
   RDEPT  =    1.338    core radius for aug-charge                                                  
                                                                                                    
   Atomic configuration                                                                             
    4 entries                                                                                       
     n  l   j            E        occ.                                                              
     1  0  0.50      -384.7179   2.0000                                                             
     2  0  0.50       -18.5828   2.0000                                                             
     2  1  0.50        -7.0898   3.0000                                                             
     3  2  1.50        -6.8029   0.0000                                                             
   Description                                                                                      
     l       E           TYP  RCUT    TYP  RCUT                                                     
     0    -18.5828119     23  1.200                                                                 
     0    -13.5018863     23  1.200                                                                 
     1     -7.0897853     23  1.500                                                                 
     1      9.5240782     23  1.500                                                                 
     2     -6.8029130      7  1.500                                                                 
  local pseudopotential read in
  partial core-charges read in
  partial kinetic energy density read in
  atomic valenz-charges read in
  non local Contribution for L=            0  read in
    real space projection operators read in
  non local Contribution for L=            0  read in
    real space projection operators read in
  non local Contribution for L=            1  read in
    real space projection operators read in
  non local Contribution for L=            1  read in
    real space projection operators read in
    PAW grid and wavefunctions read in
 
   number of l-projection  operators is LMAX  =            4
   number of lm-projection operators is LMMAX =            8
 
 POTCAR:    PAW_PBE I 08Apr2002                   
   SHA256 =  e40f3f59b681c1fc3e3091736183c4589116986673d2b852a5012aec72758799 I/POTCAR              
   COPYR  = (c) Copyright 08Apr2002 Georg Kresse                                                    
   COPYR  = This file is part of the software VASP. Any use, copying, and all other rights are regul
   COPYR  = If you do not have a valid VASP license, you may not use, copy or distribute this file. 
   VRHFIN =I : s2p5                                                                                 
   LEXCH  = PE                                                                                      
   EATOM  =   315.8678 eV,   23.2156 Ry                                                             
                                                                                                    
   TITEL  = PAW_PBE I 08Apr2002                                                                     
   LULTRA =        F    use ultrasoft PP ?                                                          
   IUNSCR =        1    unscreen: 0-lin 1-nonlin 2-no                                               
   RPACOR =    2.200    partial core radius                                                         
   POMASS =  126.904; ZVAL   =    7.000    mass and valenz                                          
   RCORE  =    2.300    outmost cutoff radius                                                       
   RWIGS  =    2.810; RWIGS  =    1.487    wigner-seitz radius (au A)                               
   ENMAX  =  175.647; ENMIN  =  131.735 eV                                                          
   ICORE  =        3    local potential                                                             
   LCOR   =        T    correct aug charges                                                         
   LPAW   =        T    paw PP                                                                      
   EAUG   =  370.139                                                                                
   DEXC   =    0.000                                                                                
   RMAX   =    2.359    core radius for proj-oper                                                   
   RAUG   =    1.300    factor for augmentation sphere                                              
   RDEP   =    2.392    radius for radial grids                                                     
   RDEPT  =    2.170    core radius for aug-charge                                                  
                                                                                                    
   Atomic configuration                                                                             
   13 entries                                                                                       
     n  l   j            E        occ.                                                              
     1  0  0.50    -32976.3739   2.0000                                                             
     2  0  0.50     -5094.5933   2.0000                                                             
     2  1  1.50     -4572.0131   6.0000                                                             
     3  0  0.50     -1028.2813   2.0000                                                             
     3  1  1.50      -859.0250   6.0000                                                             
     3  2  2.50      -605.7620  10.0000                                                             
     4  0  0.50      -180.5540   2.0000                                                             
     4  1  1.50      -127.5306   6.0000                                                             
     4  2  2.50       -50.2720  10.0000                                                             
     5  0  0.50       -17.4058   2.0000                                                             
     5  1  0.50        -7.0851   5.0000                                                             
     5  2  1.50        -7.0750   0.0000                                                             
     4  3  2.50        -7.0750   0.0000                                                             
   Description                                                                                      
     l       E           TYP  RCUT    TYP  RCUT                                                     
     0    -17.4058016     23  2.300                                                                 
     0    -18.7663842     23  2.300                                                                 
     1     -7.0850686     23  2.300                                                                 
     1     -4.2150896     23  2.300                                                                 
     2     -7.0750295     23  2.300                                                                 
     3     -1.3605826     23  2.300                                                                 
  local pseudopotential read in
  partial core-charges read in
  partial kinetic energy density read in
  atomic valenz-charges read in
  non local Contribution for L=            0  read in
    real space projection operators read in
  non local Contribution for L=            0  read in
    real space projection operators read in
  non local Contribution for L=            1  read in
    real space projection operators read in
  non local Contribution for L=            1  read in
    real space projection operators read in
  non local Contribution for L=            2  read in
    real space projection operators read in
    PAW grid and wavefunctions read in
 
   number of l-projection  operators is LMAX  =            5
   number of lm-projection operators is LMMAX =           13
 
 POTCAR:    PAW_PBE Pb 08Apr2002                  
   SHA256 =  797118a27cf1bcd06b9881c67a26cdde129e3cd1a551dd4a281f9681ce847303 Pb/POTCAR             
   COPYR  = (c) Copyright 08Apr2002 Georg Kresse                                                    
   COPYR  = This file is part of the software VASP. Any use, copying, and all other rights are regul
   COPYR  = If you do not have a valid VASP license, you may not use, copy or distribute this file. 
   VRHFIN =Pb:                                                                                      
   LEXCH  = PE                                                                                      
   EATOM  =    96.9868 eV,    7.1283 Ry                                                             
                                                                                                    
   TITEL  = PAW_PBE Pb 08Apr2002                                                                    
   LULTRA =        F    use ultrasoft PP ?                                                          
   IUNSCR =        1    unscreen: 0-lin 1-nonlin 2-no                                               
   RPACOR =    2.200    partial core radius                                                         
   POMASS =  207.200; ZVAL   =    4.000    mass and valenz                                          
   RCORE  =    3.100    outmost cutoff radius                                                       
   RWIGS  =    3.260; RWIGS  =    1.725    wigner-seitz radius (au A)                               
   ENMAX  =   97.973; ENMIN  =   73.480 eV                                                          
   ICORE  =        3    local potential                                                             
   LCOR   =        T    correct aug charges                                                         
   LPAW   =        T    paw PP                                                                      
   EAUG   =  234.873                                                                                
   DEXC   =    0.000                                                                                
   RMAX   =    3.158    core radius for proj-oper                                                   
   RAUG   =    1.300    factor for augmentation sphere                                              
   RDEP   =    3.202    radius for radial grids                                                     
   RDEPT  =    2.659    core radius for aug-charge                                                  
                                                                                                    
   Atomic configuration                                                                             
   17 entries                                                                                       
     n  l   j            E        occ.                                                              
     1  0  0.50    -88091.8466   2.0000                                                             
     2  0  0.50    -15753.4197   2.0000                                                             
     2  1  1.50    -13508.1797   6.0000                                                             
     3  0  0.50     -3781.7194   2.0000                                                             
     3  1  1.50     -3138.2529   6.0000                                                             
     3  2  2.50     -2483.2977  10.0000                                                             
     4  0  0.50      -856.2895   2.0000                                                             
     4  1  1.50      -645.4943   6.0000                                                             
     4  2  2.50      -401.8768  10.0000                                                             
     4  3  3.50      -132.9059  14.0000                                                             
     5  0  0.50      -144.0950   2.0000                                                             
     5  1  1.50       -85.7879   6.0000                                                             
     5  2  2.50       -21.1769  10.0000                                                             
     6  0  0.50       -12.0372   2.0000                                                             
     6  1  1.50        -3.4971   2.0000                                                             
     6  2  2.50        -1.3606   0.0000                                                             
     5  3  2.50        -2.7212   0.0000                                                             
   Description                                                                                      
     l       E           TYP  RCUT    TYP  RCUT                                                     
     0    -12.0371566     23  3.100                                                                 
     0    -13.3977392     23  3.100                                                                 
     1     -3.4971341     23  3.100                                                                 
     1     -5.4423304     23  3.100                                                                 
     2     -1.3605826     23  3.100                                                                 
     3     -1.3605826     23  3.100                                                                 
  local pseudopotential read in
  partial core-charges read in
  partial kinetic energy density read in
  atomic valenz-charges read in
  non local Contribution for L=            0  read in
    real space projection operators read in
  non local Contribution for L=            0  read in
    real space projection operators read in
  non local Contribution for L=            1  read in
    real space projection operators read in
  non local Contribution for L=            1  read in
    real space projection operators read in
  non local Contribution for L=            2  read in
    real space projection operators read in
    PAW grid and wavefunctions read in
 
   number of l-projection  operators is LMAX  =            5
   number of lm-projection operators is LMMAX =           13
 
 Optimization of the real space projectors (new method)

 maximal supplied QI-value         = 34.20
 optimisation between [QCUT,QGAM] = [ 11.29, 22.57] = [ 35.68,142.71] Ry 
 Optimized for a Real-space Cutoff    1.16 Angstroem

   l    n(q)    QCUT    max X(q) W(low)/X(q) W(high)/X(q)  e(spline) 
   0      8    11.287    19.460    0.40E-03    0.73E-03    0.16E-06
   0      8    11.287    12.209    0.38E-03    0.70E-03    0.15E-06
   1      7    11.287     4.655    0.22E-03    0.25E-04    0.22E-06
 Optimization of the real space projectors (new method)

 maximal supplied QI-value         = 25.13
 optimisation between [QCUT,QGAM] = [ 11.31, 22.87] = [ 35.82,146.48] Ry 
 Optimized for a Real-space Cutoff    1.00 Angstroem

   l    n(q)    QCUT    max X(q) W(low)/X(q) W(high)/X(q)  e(spline) 
   0      7    11.310   115.676    0.43E-03    0.13E-02    0.19E-06
   0      7    11.310    87.132    0.43E-03    0.13E-02    0.18E-06
   1      6    11.310     4.429    0.42E-03    0.74E-03    0.11E-06
   1      6    11.310     2.733    0.34E-03    0.55E-03    0.92E-07
 Optimization of the real space projectors (new method)

 maximal supplied QI-value         = 25.13
 optimisation between [QCUT,QGAM] = [ 11.31, 22.87] = [ 35.82,146.48] Ry 
 Optimized for a Real-space Cutoff    1.27 Angstroem

   l    n(q)    QCUT    max X(q) W(low)/X(q) W(high)/X(q)  e(spline) 
   0      9    11.310    79.467    0.75E-04    0.16E-03    0.36E-06
   0      9    11.310    66.151    0.74E-04    0.16E-03    0.36E-06
   1      8    11.310    17.416    0.35E-03    0.12E-03    0.95E-06
   1      8    11.310    12.382    0.37E-03    0.13E-03    0.98E-06
 Optimization of the real space projectors (new method)

 maximal supplied QI-value         = 16.25
 optimisation between [QCUT,QGAM] = [ 11.38, 22.75] = [ 36.24,144.96] Ry 
 Optimized for a Real-space Cutoff    1.31 Angstroem

   l    n(q)    QCUT    max X(q) W(low)/X(q) W(high)/X(q)  e(spline) 
   0      9    11.376   194.483    0.24E-03    0.23E-03    0.67E-07
   0      9    11.376   190.334    0.23E-03    0.22E-03    0.65E-07
   1      8    11.376   116.687    0.25E-03    0.63E-04    0.16E-06
   1      8    11.376    88.696    0.25E-03    0.61E-04    0.16E-06
   2      8    11.376     4.877    0.17E-03    0.14E-03    0.29E-07
 Optimization of the real space projectors (new method)

 maximal supplied QI-value         = 12.09
 optimisation between [QCUT,QGAM] = [ 11.37, 22.86] = [ 36.19,146.31] Ry 
 Optimized for a Real-space Cutoff    1.66 Angstroem

   l    n(q)    QCUT    max X(q) W(low)/X(q) W(high)/X(q)  e(spline) 
   0     11    11.369   135.111    0.12E-03    0.69E-04    0.19E-05
   0     11    11.369   146.850    0.11E-03    0.65E-04    0.18E-05
   1     11    11.369   148.016    0.17E-03    0.32E-03    0.89E-06
   1     11    11.369   122.989    0.17E-03    0.32E-03    0.91E-06
   2     10    11.369     8.916    0.12E-03    0.45E-04    0.33E-06
  PAW_PBE H 15Jun2001                   :
 energy of atom  1       EATOM=  -12.4884
 kinetic energy error for atom=    0.0020 (will be added to EATOM!!)
  PAW_PBE C 08Apr2002                   :
 energy of atom  2       EATOM= -147.1560
 kinetic energy error for atom=    0.0076 (will be added to EATOM!!)
  PAW_PBE N 08Apr2002                   :
 energy of atom  3       EATOM= -264.5486
 kinetic energy error for atom=    0.0138 (will be added to EATOM!!)
  PAW_PBE I 08Apr2002                   :
 energy of atom  4       EATOM= -315.8678
 kinetic energy error for atom=    0.0009 (will be added to EATOM!!)
  PAW_PBE Pb 08Apr2002                  :
 energy of atom  5       EATOM=  -96.9868
 kinetic energy error for atom=    0.0000 (will be added to EATOM!!)
 
 
 POSCAR:  H  C  N  I Pb
  positions in cartesian coordinates
  No initial velocities read in
 exchange correlation table for  LEXCH =        8
   RHO(1)=    0.500       N(1)  =     2000
   RHO(2)=  100.500       N(2)  =     4000
 


--------------------------------------------------------------------------------------------------------


 ion  position               nearest neighbor table
   1  0.408  0.284  0.562- 187 1.03
   2  0.416  0.695  0.571- 188 1.03
   3  0.926  0.293  0.580- 189 1.03
   4  0.928  0.815  0.573- 190 1.03
   5  0.323  0.092  0.563- 194 1.02
   6  0.324  0.573  0.569- 195 1.02
   7  0.800  0.103  0.565- 196 1.02
   8  0.110  0.241  0.562- 183 1.03
   9  0.078  0.682  0.569- 184 1.02
  10  0.585  0.186  0.565- 185 1.02
  11  0.599  0.761  0.559- 186 1.03
  12  0.378  0.017  0.554- 194 1.03
  13  0.255  0.622  0.555- 195 1.04
  14  0.875  0.048  0.556- 196 1.03
  15  0.064  0.289  0.582- 183 1.03
  16  0.992  0.694  0.581- 184 1.03
  17  0.491  0.173  0.570- 185 1.03
  18  0.552  0.694  0.574- 186 1.03
  19  0.308  0.437  0.572- 191 1.02
  20  0.190  0.068  0.569- 192 1.02
  21  0.683  0.033  0.573- 193 1.02
  22  0.456  0.365  0.555- 187 1.03
  23  0.374  0.761  0.555- 188 1.02
  24  0.885  0.244  0.559- 189 1.02
  25  0.974  0.873  0.555- 190 1.03
  26  0.234  0.398  0.559- 191 1.02
  27  0.155  0.984  0.560- 192 1.02
  28  0.682  0.940  0.565- 193 1.02
  29  0.571  0.307  0.555- 146 1.09
  30  0.491  0.812  0.545- 147 1.09
  31  1.000  0.204  0.545- 144 1.10
  32  0.071  0.791  0.550- 145 1.09
  33  0.189  0.513  0.547- 148 1.10
  34  0.273  0.940  0.551- 149 1.10
  35  0.803  0.941  0.554- 150 1.10
  36  0.455  0.296  0.673- 205 1.02
  37  0.442  0.815  0.671- 206 1.02
  38  0.958  0.284  0.677- 207 1.02
  39  0.913  0.739  0.665- 208 1.02
  40  0.297  0.042  0.675- 209 1.02
  41  0.301  0.561  0.673- 210 1.03
  42  0.798  0.052  0.675- 211 1.02
  43  0.833  0.476  0.666- 212 1.02
  44  0.091  0.171  0.647- 197 1.02
  45  0.108  0.700  0.654- 198 1.02
  46  0.577  0.164  0.646- 199 1.02
  47  0.574  0.674  0.652- 200 1.02
  48  0.185  0.411  0.651- 201 1.02
  49  0.164  0.929  0.645- 202 1.03
  50  0.635  0.481  0.654- 203 1.03
  51  0.673  0.918  0.650- 204 1.02
  52  0.063  0.189  0.673- 197 1.02
  53  0.025  0.656  0.661- 198 1.02
  54  0.547  0.188  0.672- 199 1.02
  55  0.543  0.714  0.676- 200 1.02
  56  0.214  0.447  0.676- 201 1.02
  57  0.184  0.953  0.671- 202 1.02
  58  0.699  0.435  0.670- 203 1.02
  59  0.697  0.948  0.675- 204 1.02
  60  0.437  0.337  0.648- 205 1.02
  61  0.417  0.830  0.644- 206 1.02
  62  0.927  0.319  0.653- 207 1.02
  63  0.928  0.831  0.658- 208 1.02
  64  0.342  0.062  0.651- 209 1.03
  65  0.320  0.589  0.647- 210 1.02
  66  0.827  0.079  0.650- 211 1.02
  67  0.848  0.548  0.648- 212 1.02
  68  0.007  0.252  0.632- 151 1.09
  69  0.052  0.815  0.650- 152 1.10
  70  0.512  0.256  0.629- 153 1.09
  71  0.497  0.742  0.630- 154 1.10
  72  0.261  0.994  0.630- 156 1.09
  73  0.249  0.497  0.631- 155 1.09
  74  0.752  0.997  0.632- 158 1.09
  75  0.725  0.555  0.638- 157 1.10
  76  0.449  0.301  0.769- 221 1.02
  77  0.449  0.801  0.769- 222 1.02
  78  0.949  0.301  0.769- 223 1.02
  79  0.949  0.801  0.769- 224 1.02
  80  0.301  0.051  0.769- 225 1.02
  81  0.301  0.551  0.769- 226 1.02
  82  0.801  0.051  0.769- 227 1.02
  83  0.801  0.551  0.769- 228 1.02
  84  0.079  0.171  0.743- 213 1.02
  85  0.079  0.671  0.743- 214 1.02
  86  0.579  0.171  0.743- 215 1.02
  87  0.579  0.671  0.743- 216 1.02
  88  0.171  0.421  0.743- 217 1.02
  89  0.171  0.921  0.743- 218 1.02
  90  0.671  0.421  0.743- 219 1.02
  91  0.671  0.921  0.743- 220 1.02
  92  0.051  0.199  0.769- 213 1.02
  93  0.051  0.699  0.769- 214 1.02
  94  0.551  0.199  0.769- 215 1.02
  95  0.551  0.699  0.769- 216 1.02
  96  0.199  0.449  0.769- 217 1.02
  97  0.199  0.949  0.769- 218 1.02
  98  0.699  0.449  0.769- 219 1.02
  99  0.699  0.949  0.769- 220 1.02
 100  0.421  0.329  0.743- 221 1.02
 101  0.421  0.829  0.743- 222 1.02
 102  0.921  0.329  0.743- 223 1.02
 103  0.921  0.829  0.743- 224 1.02
 104  0.329  0.079  0.743- 225 1.02
 105  0.329  0.579  0.743- 226 1.02
 106  0.829  0.079  0.743- 227 1.02
 107  0.829  0.579  0.743- 228 1.02
 108  0.000  0.250  0.726- 161 1.09
 109  0.000  0.750  0.726- 162 1.09
 110  0.500  0.250  0.726- 159 1.09
 111  0.500  0.750  0.726- 160 1.09
 112  0.250  0.000  0.726- 163 1.09
 113  0.250  0.500  0.726- 164 1.09
 114  0.750  0.000  0.726- 165 1.09
 115  0.750  0.500  0.726- 166 1.09
 116  0.799  0.508  0.514- 173 1.11
 117  0.878  0.500  0.531- 173 1.10
 118  0.758  0.619  0.532- 174 1.09
 119  0.756  0.621  0.560- 174 1.10
 120  0.687  0.443  0.550- 175 1.09
 121  0.669  0.535  0.557- 175 1.10
 122  0.796  0.423  0.566- 176 1.10
 123  0.864  0.493  0.569- 176 1.10
 124  0.857  0.374  0.539- 177 1.10
 125  0.763  0.376  0.532- 177 1.10
 126  0.785  0.383  0.495- 178 1.10
 127  0.878  0.409  0.497- 178 1.11
 128  0.896  0.617  0.532- 179 1.10
 129  0.898  0.605  0.560- 179 1.09
 130  0.863  0.688  0.549- 179 1.10
 131  0.601  0.507  0.525- 180 1.10
 132  0.681  0.482  0.511- 180 1.10
 133  0.667  0.575  0.519- 180 1.09
 134  0.705  0.501  0.587- 181 1.10
 135  0.776  0.570  0.591- 181 1.09
 136  0.786  0.480  0.601- 181 1.10
 137  0.821  0.258  0.512- 182 1.10
 138  0.848  0.274  0.486- 182 1.10
 139  0.924  0.159  0.499- 168 1.09
 140  0.974  0.385  0.517- 169 1.09
 141  0.056  0.126  0.504- 170 1.09
 142  0.103  0.351  0.522- 171 1.09
 143  0.147  0.223  0.515- 172 1.09
 144  0.997  0.238  0.559-  31 1.10 183 1.31 189 1.31
 145  0.025  0.775  0.560-  32 1.09 184 1.31 190 1.32
 146  0.521  0.275  0.559-  29 1.09 187 1.31 185 1.31
 147  0.487  0.763  0.555-  30 1.09 188 1.31 186 1.31
 148  0.241  0.510  0.556-  33 1.10 195 1.31 191 1.32
 149  0.267  0.996  0.556-  34 1.10 194 1.31 192 1.31
 150  0.778  0.993  0.560-  35 1.10 196 1.31 193 1.32
 151  0.009  0.245  0.649-  68 1.09 197 1.31 207 1.32
 152  0.019  0.767  0.655-  69 1.10 208 1.31 198 1.31
 153  0.507  0.251  0.647-  70 1.09 205 1.31 199 1.32
 154  0.495  0.751  0.648-  71 1.10 206 1.31 200 1.32
 155  0.253  0.500  0.649-  73 1.09 201 1.31 210 1.31
 156  0.252  0.996  0.648-  72 1.09 209 1.31 202 1.31
 157  0.741  0.515  0.650-  75 1.10 203 1.30 212 1.32
 158  0.750  0.998  0.650-  74 1.09 204 1.31 211 1.31
 159  0.500  0.250  0.743- 110 1.09 221 1.31 215 1.31
 160  0.500  0.750  0.743- 111 1.09 222 1.31 216 1.31
 161  1.000  0.250  0.743- 108 1.09 223 1.31 213 1.31
 162  1.000  0.750  0.743- 109 1.09 224 1.31 214 1.31
 163  0.250  0.000  0.743- 112 1.09 225 1.31 218 1.31
 164  0.250  0.500  0.743- 113 1.09 226 1.31 217 1.31
 165  0.750  0.000  0.743- 114 1.09 227 1.31 220 1.31
 166  0.750  0.500  0.743- 115 1.09 228 1.31 219 1.31
 167  0.939  0.275  0.507- 169 1.40 168 1.41 182 1.52
 168  0.964  0.202  0.504- 139 1.09 170 1.39 167 1.41
 169  0.990  0.328  0.513- 140 1.09 171 1.40 167 1.40
 170  0.038  0.183  0.506- 141 1.09 168 1.39 172 1.40
 171  0.065  0.309  0.516- 142 1.09 172 1.40 169 1.40
 172  0.090  0.237  0.512- 143 1.09 171 1.40 170 1.40
 173  0.821  0.482  0.529- 117 1.10 116 1.11 229 1.51 177 1.52
 174  0.788  0.600  0.547- 118 1.09 119 1.10 179 1.51 229 1.52
 175  0.695  0.501  0.545- 120 1.09 121 1.10 180 1.52 229 1.52
 176  0.804  0.483  0.568- 123 1.10 122 1.10 181 1.51 229 1.53
 177  0.818  0.398  0.527- 125 1.10 124 1.10 173 1.52 178 1.54
 178  0.835  0.374  0.504- 126 1.10 127 1.11 182 1.53 177 1.54
 179  0.867  0.628  0.547- 129 1.09 128 1.10 130 1.10 174 1.51
 180  0.660  0.517  0.523- 133 1.09 131 1.10 132 1.10 175 1.52
 181  0.765  0.511  0.588- 135 1.09 136 1.10 134 1.10 176 1.51
 182  0.858  0.292  0.502- 138 1.10 137 1.10 167 1.52 178 1.53
 183  0.060  0.257  0.569-  15 1.03   8 1.03 144 1.31
 184  0.030  0.712  0.570-   9 1.02  16 1.03 145 1.31
 185  0.532  0.205  0.564-  10 1.02  17 1.03 146 1.31
 186  0.550  0.736  0.562-  18 1.03  11 1.03 147 1.31
 187  0.457  0.309  0.558-  22 1.03   1 1.03 146 1.31
 188  0.422  0.737  0.560-  23 1.02   2 1.03 147 1.31
 189  0.932  0.260  0.566-  24 1.02   3 1.03 144 1.31
 190  0.969  0.821  0.562-   4 1.03  25 1.03 145 1.32
 191  0.263  0.444  0.562-  26 1.02  19 1.02 148 1.32
 192  0.200  0.018  0.562-  27 1.02  20 1.02 149 1.31
 193  0.708  0.990  0.566-  21 1.02  28 1.02 150 1.32
 194  0.326  0.039  0.557-   5 1.02  12 1.03 149 1.31
 195  0.277  0.572  0.559-   6 1.02  13 1.04 148 1.31
 196  0.820  0.052  0.561-   7 1.02  14 1.03 150 1.31
 197  0.057  0.198  0.657-  44 1.02  52 1.02 151 1.31
 198  0.052  0.703  0.657-  45 1.02  53 1.02 152 1.31
 199  0.546  0.198  0.656-  54 1.02  46 1.02 153 1.32
 200  0.540  0.710  0.660-  55 1.02  47 1.02 154 1.32
 201  0.215  0.450  0.660-  56 1.02  48 1.02 155 1.31
 202  0.197  0.958  0.655-  57 1.02  49 1.03 156 1.31
 203  0.689  0.474  0.658-  58 1.02  50 1.03 157 1.30
 204  0.705  0.952  0.659-  59 1.02  51 1.02 158 1.31
 205  0.464  0.297  0.657-  60 1.02  36 1.02 153 1.31
 206  0.448  0.801  0.655-  37 1.02  61 1.02 154 1.31
 207  0.962  0.285  0.661-  38 1.02  62 1.02 151 1.32
 208  0.948  0.779  0.659-  39 1.02  63 1.02 152 1.31
 209  0.299  0.036  0.659-  40 1.02  64 1.03 156 1.31
 210  0.294  0.553  0.657-  65 1.02  41 1.03 155 1.31
 211  0.794  0.046  0.659-  42 1.02  66 1.02 158 1.31
 212  0.812  0.513  0.655-  67 1.02  43 1.02 157 1.32
 213  0.046  0.204  0.753-  92 1.02  84 1.02 161 1.31
 214  0.046  0.704  0.753-  93 1.02  85 1.02 162 1.31
 215  0.546  0.204  0.753-  94 1.02  86 1.02 159 1.31
 216  0.546  0.704  0.753-  95 1.02  87 1.02 160 1.31
 217  0.204  0.454  0.753-  96 1.02  88 1.02 164 1.31
 218  0.204  0.954  0.753-  97 1.02  89 1.02 163 1.31
 219  0.704  0.454  0.753-  98 1.02  90 1.02 166 1.31
 220  0.704  0.954  0.753-  99 1.02  91 1.02 165 1.31
 221  0.454  0.296  0.753-  76 1.02 100 1.02 159 1.31
 222  0.454  0.796  0.753-  77 1.02 101 1.02 160 1.31
 223  0.954  0.296  0.753-  78 1.02 102 1.02 161 1.31
 224  0.954  0.796  0.753-  79 1.02 103 1.02 162 1.31
 225  0.296  0.046  0.753-  80 1.02 104 1.02 163 1.31
 226  0.296  0.546  0.753-  81 1.02 105 1.02 164 1.31
 227  0.796  0.046  0.753-  82 1.02 106 1.02 165 1.31
 228  0.796  0.546  0.753-  83 1.02 107 1.02 166 1.31
 229  0.777  0.516  0.547- 173 1.51 175 1.52 174 1.52 176 1.53
 230  0.512  0.982  0.553- 304 3.16
 231  0.474  0.511  0.553- 305 3.13
 232  0.007  0.013  0.551- 302 3.31
 233  0.031  0.489  0.554- 303 3.12
 234  0.258  0.240  0.554- 306 3.21
 235  0.230  0.766  0.551- 307 3.28
 236  0.735  0.230  0.555- 308 3.23
 237  0.732  0.795  0.554- 309 3.25
 238  0.996  0.984  0.654- 302 3.15 310 3.18
 239  0.010  0.505  0.655- 311 3.12 303 3.20
 240  0.497  0.002  0.654- 312 3.15 304 3.19
 241  0.494  0.502  0.654- 313 3.18 305 3.21
 242  0.263  0.242  0.655- 306 3.10 314 3.11
 243  0.246  0.756  0.654- 307 3.16 315 3.21
 244  0.744  0.265  0.655- 316 3.10 308 3.11
 245  0.749  0.734  0.655- 317 3.14 309 3.16
 246  0.135  0.118  0.609- 306 3.21 302 3.22
 247  0.147  0.609  0.606- 303 3.15 307 3.19
 248  0.638  0.113  0.609- 308 3.19 304 3.28
 249  0.619  0.631  0.607- 305 3.20 309 3.31
 250  0.367  0.384  0.608- 306 3.19 305 3.19
 251  0.364  0.885  0.606- 304 3.17 307 3.19
 252  0.887  0.366  0.611- 308 3.28 303 3.33
 253  0.862  0.890  0.606- 309 3.13 302 3.22
 254  0.127  0.369  0.611- 306 3.21 303 3.22
 255  0.116  0.873  0.606- 307 3.14 302 3.23
 256  0.614  0.366  0.602- 305 3.18 308 3.19
 257  0.616  0.863  0.612- 309 3.14 304 3.18
 258  0.396  0.139  0.604- 306 3.21 304 3.25
 259  0.379  0.634  0.607- 305 3.27 307 3.31
 260  0.882  0.135  0.612- 302 3.15 308 3.24
 261  0.902  0.647  0.610- 303 3.31 309 3.39
 262  0.000  0.000  0.755- 310 3.13 318 3.27
 263  0.000  0.500  0.755- 311 3.13 319 3.27
 264  0.500  0.000  0.755- 312 3.13 320 3.27
 265  0.500  0.500  0.755- 313 3.13 321 3.27
 266  0.250  0.250  0.755- 314 3.13 322 3.27
 267  0.250  0.750  0.755- 315 3.13 323 3.27
 268  0.750  0.250  0.755- 316 3.13 324 3.27
 269  0.750  0.750  0.755- 317 3.13 325 3.27
 270  0.136  0.114  0.705- 310 3.20 314 3.20
 271  0.136  0.614  0.705- 311 3.20 315 3.20
 272  0.636  0.114  0.705- 312 3.20 316 3.20
 273  0.636  0.614  0.705- 313 3.20 317 3.20
 274  0.364  0.386  0.705- 313 3.20 314 3.20
 275  0.364  0.886  0.705- 312 3.20 315 3.20
 276  0.864  0.386  0.705- 311 3.20 316 3.20
 277  0.864  0.886  0.705- 310 3.20 317 3.20
 278  0.114  0.364  0.705- 314 3.21 311 3.21
 279  0.114  0.864  0.705- 315 3.21 310 3.21
 280  0.614  0.364  0.705- 316 3.21 313 3.21
 281  0.614  0.864  0.705- 317 3.21 312 3.21
 282  0.386  0.136  0.705- 314 3.21 312 3.21
 283  0.386  0.636  0.705- 315 3.21 313 3.21
 284  0.886  0.136  0.705- 316 3.21 310 3.21
 285  0.886  0.636  0.705- 317 3.21 311 3.21
 286  0.135  0.115  0.801- 318 3.22 322 3.22
 287  0.135  0.615  0.801- 319 3.22 323 3.22
 288  0.635  0.115  0.801- 320 3.22 324 3.22
 289  0.635  0.615  0.801- 321 3.22 325 3.22
 290  0.365  0.385  0.801- 321 3.22 322 3.22
 291  0.365  0.885  0.801- 320 3.22 323 3.22
 292  0.865  0.385  0.801- 319 3.22 324 3.22
 293  0.865  0.885  0.801- 318 3.22 325 3.22
 294  0.115  0.365  0.801- 319 3.23 322 3.23
 295  0.115  0.865  0.801- 318 3.23 323 3.23
 296  0.615  0.365  0.801- 321 3.23 324 3.23
 297  0.615  0.865  0.801- 320 3.23 325 3.23
 298  0.385  0.135  0.801- 320 3.23 322 3.23
 299  0.385  0.635  0.801- 321 3.23 323 3.23
 300  0.885  0.135  0.801- 318 3.23 324 3.23
 301  0.885  0.635  0.801- 319 3.23 325 3.23
 302  0.997  0.007  0.604- 260 3.15 238 3.15 246 3.22 253 3.22 255 3.23 232 3.31
 303  0.010  0.501  0.604- 233 3.12 247 3.15 239 3.20 254 3.22 261 3.31 252 3.33
 304  0.502  0.994  0.603- 230 3.16 251 3.17 257 3.18 240 3.19 258 3.25 248 3.28
 305  0.500  0.500  0.603- 231 3.13 256 3.18 250 3.19 249 3.20 241 3.21 259 3.27
 306  0.255  0.248  0.606- 242 3.10 250 3.19 254 3.21 246 3.21 234 3.21 258 3.21
 307  0.244  0.756  0.603- 255 3.14 243 3.16 251 3.19 247 3.19 235 3.28 259 3.31
 308  0.748  0.251  0.606- 244 3.11 256 3.19 248 3.19 236 3.23 260 3.24 252 3.28
 309  0.751  0.757  0.605- 253 3.13 257 3.14 245 3.16 237 3.25 249 3.31 261 3.39
 310  0.000  0.000  0.705- 262 3.13 238 3.18 270 3.20 277 3.20 279 3.21 284 3.21
 311  0.000  0.500  0.705- 239 3.12 263 3.13 271 3.20 276 3.20 278 3.21 285 3.21
 312  0.500  0.000  0.705- 264 3.13 240 3.15 272 3.20 275 3.20 281 3.21 282 3.21
 313  0.500  0.500  0.705- 265 3.13 241 3.18 273 3.20 274 3.20 280 3.21 283 3.21
 314  0.250  0.250  0.705- 242 3.11 266 3.13 270 3.20 274 3.20 282 3.21 278 3.21
 315  0.250  0.750  0.705- 267 3.13 271 3.20 275 3.20 283 3.21 279 3.21 243 3.21
 316  0.750  0.250  0.705- 244 3.10 268 3.13 272 3.20 276 3.20 284 3.21 280 3.21
 317  0.750  0.750  0.705- 269 3.13 245 3.14 273 3.20 277 3.20 285 3.21 281 3.21
 318  0.000  0.000  0.807- 286 3.22 293 3.22 300 3.23 295 3.23 262 3.27
 319  0.000  0.500  0.807- 287 3.22 292 3.22 301 3.23 294 3.23 263 3.27
 320  0.500  0.000  0.807- 288 3.22 291 3.22 298 3.23 297 3.23 264 3.27
 321  0.500  0.500  0.807- 289 3.22 290 3.22 299 3.23 296 3.23 265 3.27
 322  0.250  0.250  0.807- 290 3.22 286 3.22 294 3.23 298 3.23 266 3.27
 323  0.250  0.750  0.807- 291 3.22 287 3.22 299 3.23 295 3.23 267 3.27
 324  0.750  0.250  0.807- 292 3.22 288 3.22 296 3.23 300 3.23 268 3.27
 325  0.750  0.750  0.807- 293 3.22 289 3.22 297 3.23 301 3.23 269 3.27
 

IMPORTANT INFORMATION: All symmetrisations will be switched off!
NOSYMM: (Re-)initialisation of all symmetry stuff for point group C_1.


----------------------------------------------------------------------------------------

                                     Primitive cell                                     

  volume of cell :   20385.2105

  direct lattice vectors                    reciprocal lattice vectors
    18.060800552  0.000000000  0.000000000     0.055368531  0.000015077 -0.000000000
    -0.004918649 18.062799454  0.000000000     0.000000000  0.055362404  0.000000000
     0.000000000  0.000000000 62.487499237     0.000000000 -0.000000000  0.016003201

  length of vectors
    18.060800552 18.062800123 62.487499237     0.055368533  0.055362404  0.016003201

  position of ions in fractional coordinates (direct lattice)
     0.407821560  0.283653467  0.561704572
     0.415659375  0.695471879  0.571427342
     0.925561244  0.292725379  0.579712935
     0.927598706  0.815394047  0.572892967
     0.323001913  0.091543495  0.563304684
     0.323938106  0.573209611  0.568578139
     0.799779197  0.102761812  0.565354106
     0.109903256  0.241445663  0.562007306
     0.078452311  0.681994209  0.569287876
     0.584886038  0.186356052  0.565011752
     0.599252790  0.761491235  0.558915074
     0.378024343  0.017281832  0.554171693
     0.254868963  0.622291729  0.554805487
     0.874935881  0.047783911  0.556202617
     0.063662797  0.288859162  0.582021868
     0.992470685  0.694300562  0.581490939
     0.490569227  0.173117411  0.570342042
     0.552161760  0.694082138  0.573639515
     0.308159423  0.437365188  0.571944230
     0.190131719  0.068285031  0.568921836
     0.682938745  0.033401764  0.573400820
     0.455965028  0.365157465  0.554991193
     0.374375907  0.760937229  0.554555864
     0.884728200  0.243834126  0.558823014
     0.974318285  0.873382820  0.555240449
     0.233546878  0.397525044  0.558556787
     0.155449470  0.983911905  0.560356036
     0.681698680  0.939851042  0.565394275
     0.571193652  0.306746443  0.554952001
     0.490774178  0.811865576  0.544868136
     0.999881983  0.203772747  0.544904337
     0.071037184  0.790845966  0.549667802
     0.188871750  0.512935120  0.546675260
     0.272857991  0.939587978  0.550535773
     0.802706399  0.941002811  0.554212351
     0.454678483  0.296182415  0.672882448
     0.442184224  0.814779640  0.670619850
     0.957791599  0.284018853  0.676835998
     0.913282374  0.739087322  0.664610713
     0.297469709  0.041810210  0.674899576
     0.301239595  0.560767252  0.673262163
     0.797680072  0.051870549  0.675473665
     0.832598183  0.475800067  0.666466859
     0.091072836  0.170862197  0.647090974
     0.107888164  0.700055036  0.654321241
     0.577434260  0.163925410  0.646401749
     0.573878214  0.673501329  0.651913411
     0.185417026  0.411435787  0.651285966
     0.163699117  0.929201250  0.644752982
     0.635275973  0.481016058  0.653564925
     0.672715907  0.918356985  0.649671935
     0.063401985  0.188561504  0.673257462
     0.025332268  0.655786327  0.661362383
     0.546697089  0.187910298  0.671797637
     0.543315687  0.713663275  0.675691726
     0.213527501  0.446840316  0.675869008
     0.184459428  0.952863980  0.671154991
     0.698627404  0.435285301  0.670016214
     0.697115643  0.948057237  0.675153533
     0.437023333  0.337309212  0.648284938
     0.417238332  0.829641929  0.643922310
     0.926532708  0.319375257  0.652584260
     0.927638327  0.831022800  0.658045008
     0.342110173  0.062083261  0.651195433
     0.320038904  0.588514662  0.647082366
     0.826932256  0.079289775  0.649987183
     0.848462136  0.547628755  0.648222365
     0.006719713  0.251953964  0.632031077
     0.051864420  0.814729957  0.649858862
     0.512087261  0.256132638  0.629313309
     0.497230223  0.742329523  0.630391894
     0.260783846  0.994334901  0.630300262
     0.249436834  0.496975220  0.631393865
     0.751931733  0.997264797  0.632145724
     0.725339224  0.555438802  0.637948032
     0.448745018  0.301283966  0.768889017
     0.448745007  0.801283913  0.768889017
     0.948744965  0.301283966  0.768889017
     0.948745007  0.801283913  0.768889017
     0.301275995  0.051294496  0.768872961
     0.301276011  0.551294499  0.768872961
     0.801275943  0.051294496  0.768872961
     0.801275984  0.551294499  0.768872961
     0.078771004  0.171180501  0.743441971
     0.078771006  0.671180448  0.743441971
     0.578771004  0.171180501  0.743441971
     0.578770992  0.671180448  0.743441971
     0.171199499  0.421174482  0.743421032
     0.171199501  0.921174508  0.743421032
     0.671199512  0.421174482  0.743421032
     0.671199501  0.921174508  0.743421032
     0.051256000  0.198714991  0.768889017
     0.051256002  0.698714925  0.768889017
     0.551256027  0.198714991  0.768889017
     0.551256016  0.698714925  0.768889017
     0.198723491  0.448703970  0.768872046
     0.198723493  0.948703970  0.768872046
     0.698723518  0.448703970  0.768872046
     0.698723507  0.948703970  0.768872046
     0.421231519  0.328817467  0.743441971
     0.421231508  0.828817440  0.743441971
     0.921231466  0.328817467  0.743441971
     0.921231508  0.828817440  0.743441971
     0.328800503  0.078824997  0.743421032
     0.328800492  0.578824964  0.743421032
     0.828800477  0.078824997  0.743421032
     0.828800519  0.578824964  0.743421032
     0.000003500  0.250001478  0.725821992
     0.000003500  0.750001452  0.725821992
     0.500003506  0.250001478  0.725821992
     0.500003495  0.750001452  0.725821992
     0.250000502  0.000000000  0.725803983
     0.250000517  0.500000000  0.725803983
     0.750000502  0.000000000  0.725803983
     0.750000490  0.500000000  0.725803983
     0.799195606  0.508164267  0.513980732
     0.878241559  0.500389647  0.530847692
     0.758361010  0.618572500  0.532095622
     0.756431303  0.621087783  0.560357012
     0.687328989  0.443085080  0.549562068
     0.668551685  0.535205719  0.557335900
     0.796291528  0.422699095  0.566318654
     0.864245737  0.492711541  0.568553415
     0.857451520  0.373526482  0.538770175
     0.763185896  0.376263753  0.532068212
     0.784946496  0.383029857  0.494683690
     0.878217326  0.409469231  0.497342333
     0.896448482  0.617096751  0.531833729
     0.898355199  0.605391237  0.560157265
     0.863262445  0.688404062  0.548940850
     0.600670761  0.507438668  0.525044774
     0.680637751  0.481576664  0.510509854
     0.666549417  0.575306208  0.518788701
     0.704867190  0.500979820  0.587286654
     0.775781372  0.569504585  0.590698164
     0.786066371  0.480037136  0.601368023
     0.821229070  0.258129869  0.512060640
     0.847901380  0.274310729  0.485560222
     0.924477783  0.159191528  0.498615079
     0.973542020  0.384590030  0.516933044
     0.055970936  0.126107749  0.503726789
     0.103437247  0.351172093  0.521873912
     0.147441320  0.222526715  0.515139838
     0.997334903  0.238496489  0.559335202
     0.025245984  0.775464886  0.560223929
     0.521354442  0.275134927  0.558760563
     0.487086691  0.763376536  0.555311081
     0.241190916  0.509929294  0.555586588
     0.267131142  0.996443788  0.556472874
     0.778310911  0.992824753  0.560148658
     0.008614006  0.245136962  0.649377381
     0.018772407  0.767447714  0.655363808
     0.507096784  0.250848512  0.646710099
     0.495359026  0.751256770  0.647730201
     0.252863725  0.499765525  0.648837417
     0.252235297  0.995990185  0.647577277
     0.741240499  0.514970683  0.650229053
     0.750134453  0.998406491  0.649627675
     0.499988984  0.249994984  0.743277021
     0.499989025  0.749994958  0.743277021
     0.999988984  0.249994984  0.743277021
     0.999989025  0.749994958  0.743277021
     0.250000502  0.000001000  0.743255960
     0.250000517  0.500001003  0.743255960
     0.750000502  0.000001000  0.743255960
     0.750000491  0.500001003  0.743255960
     0.938545108  0.274502120  0.506920207
     0.963973684  0.201883091  0.503538031
     0.990487336  0.327675188  0.513499740
     0.038171676  0.183005536  0.506243253
     0.065015221  0.308709541  0.516335573
     0.089572273  0.236667234  0.512460225
     0.820571494  0.482022065  0.528728372
     0.787514099  0.600103388  0.546500908
     0.694843617  0.501046239  0.544997068
     0.804343613  0.482680875  0.567945627
     0.817706170  0.397902178  0.527488378
     0.834869170  0.373662172  0.504420470
     0.866534319  0.628134375  0.546778002
     0.660270762  0.517343359  0.523402722
     0.764793827  0.511052935  0.587590975
     0.857993182  0.292491459  0.502107508
     0.060045753  0.256670858  0.568548897
     0.030413855  0.711825492  0.570178313
     0.531739395  0.205239876  0.563761624
     0.549679461  0.735946439  0.562499225
     0.457217177  0.308998555  0.557659268
     0.421745408  0.736585556  0.560183149
     0.932181253  0.259870478  0.566336907
     0.968513654  0.820875663  0.561517218
     0.263189853  0.444210991  0.562143564
     0.200184862  0.018243908  0.561821844
     0.708294930  0.989878881  0.565975385
     0.326230653  0.038661375  0.557464710
     0.277053292  0.571593791  0.559413586
     0.820165426  0.052328826  0.560773111
     0.056991957  0.198373627  0.657274163
     0.052403661  0.703367300  0.657220441
     0.545946962  0.197606094  0.655766476
     0.539692188  0.710120866  0.659505933
     0.215453665  0.449930249  0.659645792
     0.196936616  0.957713036  0.655287987
     0.689205850  0.473568256  0.658386507
     0.704683795  0.952046539  0.659080616
     0.463805807  0.297419518  0.656790057
     0.448480908  0.801181275  0.654847774
     0.961655181  0.285008018  0.660593430
     0.948492063  0.778944149  0.659322424
     0.298803655  0.035593578  0.658756759
     0.293645457  0.552679066  0.657145903
     0.793638353  0.046330994  0.659217545
     0.812072707  0.512644099  0.655496708
     0.045862501  0.204119496  0.752725994
     0.045862500  0.704119456  0.752725994
     0.545862507  0.204119496  0.752725994
     0.545862496  0.704119456  0.752725994
     0.204119002  0.454101003  0.752704994
     0.204118991  0.954100951  0.752704994
     0.704118976  0.454101003  0.752704994
     0.704118964  0.954100951  0.752704994
     0.454140018  0.295888490  0.752726971
     0.454140007  0.795888516  0.752726971
     0.954140018  0.295888490  0.752726971
     0.954140060  0.795888516  0.752726971
     0.295882492  0.045900498  0.752704994
     0.295882481  0.545900528  0.752704994
     0.795882439  0.045900498  0.752704994
     0.795882481  0.545900528  0.752704994
     0.777383080  0.516446484  0.546922563
     0.511961617  0.981882317  0.553018447
     0.473995137  0.510652676  0.553127112
     0.007439790  0.012864046  0.551198198
     0.031312121  0.488579910  0.554362100
     0.258444230  0.240008959  0.554291407
     0.229976335  0.766132628  0.550770866
     0.734593066  0.229974359  0.554568379
     0.731710457  0.795315978  0.554151731
     0.996173750  0.984266893  0.654180832
     0.009601859  0.504922013  0.655028902
     0.497391125  0.001706823  0.654472638
     0.493664420  0.502368927  0.653947875
     0.262802331  0.241607462  0.655220713
     0.245894472  0.755879526  0.653572190
     0.744493204  0.265069995  0.655376445
     0.748945024  0.733724395  0.654856199
     0.135482444  0.117701866  0.608802554
     0.147314286  0.608554928  0.606343505
     0.638252034  0.112823305  0.608693829
     0.618839537  0.630653934  0.607248288
     0.367474978  0.384475802  0.608030366
     0.364188113  0.885380622  0.605547325
     0.887314065  0.366065850  0.611468493
     0.861940313  0.890495769  0.606257489
     0.126781888  0.368992479  0.611412695
     0.115506041  0.872840429  0.605824480
     0.614168494  0.366038237  0.601888146
     0.615729937  0.863325913  0.612322850
     0.395774105  0.139072462  0.603698506
     0.379149964  0.633685367  0.607298469
     0.882193306  0.134649651  0.612074021
     0.902021335  0.647218580  0.610007751
     0.000000000  0.000000000  0.754927972
     0.000000000  0.500000000  0.754927972
     0.500000000  0.000000000  0.754927972
     0.499999989  0.500000000  0.754927972
     0.250000496  0.250000000  0.754939022
     0.250000511  0.749999974  0.754939022
     0.750000470  0.250000000  0.754939022
     0.750000458  0.749999974  0.754939022
     0.135790500  0.114209997  0.704782994
     0.135790502  0.614209984  0.704782994
     0.635790447  0.114209997  0.704782994
     0.635790488  0.614209984  0.704782994
     0.364209516  0.385789989  0.704782994
     0.364209505  0.885789963  0.704782994
     0.864209542  0.385789989  0.704782994
     0.864209531  0.885789963  0.704782994
     0.114217990  0.364218986  0.704780979
     0.114217992  0.864218986  0.704780979
     0.614218004  0.364218986  0.704780979
     0.614217992  0.864218986  0.704780979
     0.385782012  0.135781489  0.704782017
     0.385782001  0.635781489  0.704782017
     0.885781985  0.135781489  0.704782017
     0.885782027  0.635781489  0.704782017
     0.134667000  0.115332001  0.801256025
     0.134666989  0.615331988  0.801256025
     0.634666987  0.115332001  0.801256025
     0.634666976  0.615331988  0.801256025
     0.365333002  0.384667985  0.801256025
     0.365332990  0.884667959  0.801256025
     0.865332949  0.384667985  0.801256025
     0.865332938  0.884667959  0.801256025
     0.115328503  0.365337004  0.801264999
     0.115328505  0.865336978  0.801264999
     0.615328503  0.365337004  0.801264999
     0.615328492  0.865336978  0.801264999
     0.384671513  0.134662996  0.801264999
     0.384671501  0.634662970  0.801264999
     0.884671486  0.134662996  0.801264999
     0.884671528  0.634662970  0.801264999
     0.997133495  0.006582463  0.604124006
     0.010194027  0.500992544  0.603778661
     0.501804223  0.993910183  0.603447235
     0.499998355  0.500013094  0.602558752
     0.255444881  0.248240754  0.605655745
     0.243945286  0.756185964  0.602973690
     0.747650356  0.251214453  0.605758244
     0.751110946  0.757474333  0.604706886
     0.000000500  0.000000500  0.704828963
     0.000000500  0.500000475  0.704828963
     0.500000475  0.000000500  0.704828963
     0.500000464  0.500000475  0.704828963
     0.249999994  0.249999472  0.704824995
     0.250000010  0.749999498  0.704824995
     0.749999994  0.249999472  0.704824995
     0.749999983  0.749999498  0.704824995
     0.000000000  0.000000000  0.807317968
     0.000000000  0.500000000  0.807317968
     0.500000000  0.000000000  0.807317968
     0.499999989  0.500000000  0.807317968
     0.249999994  0.250000000  0.807317968
     0.250000010  0.749999974  0.807317968
     0.749999994  0.250000000  0.807317968
     0.749999983  0.749999974  0.807317968

  ion indices of the primitive-cell ions
   primitive index   ion index
                 1           1
                 2           2
                 3           3
                 4           4
                 5           5
                 6           6
                 7           7
                 8           8
                 9           9
                10          10
                11          11
                12          12
                13          13
                14          14
                15          15
                16          16
                17          17
                18          18
                19          19
                20          20
                21          21
                22          22
                23          23
                24          24
                25          25
                26          26
                27          27
                28          28
                29          29
                30          30
                31          31
                32          32
                33          33
                34          34
                35          35
                36          36
                37          37
                38          38
                39          39
                40          40
                41          41
                42          42
                43          43
                44          44
                45          45
                46          46
                47          47
                48          48
                49          49
                50          50
                51          51
                52          52
                53          53
                54          54
                55          55
                56          56
                57          57
                58          58
                59          59
                60          60
                61          61
                62          62
                63          63
                64          64
                65          65
                66          66
                67          67
                68          68
                69          69
                70          70
                71          71
                72          72
                73          73
                74          74
                75          75
                76          76
                77          77
                78          78
                79          79
                80          80
                81          81
                82          82
                83          83
                84          84
                85          85
                86          86
                87          87
                88          88
                89          89
                90          90
                91          91
                92          92
                93          93
                94          94
                95          95
                96          96
                97          97
                98          98
                99          99
               100         100
               101         101
               102         102
               103         103
               104         104
               105         105
               106         106
               107         107
               108         108
               109         109
               110         110
               111         111
               112         112
               113         113
               114         114
               115         115
               116         116
               117         117
               118         118
               119         119
               120         120
               121         121
               122         122
               123         123
               124         124
               125         125
               126         126
               127         127
               128         128
               129         129
               130         130
               131         131
               132         132
               133         133
               134         134
               135         135
               136         136
               137         137
               138         138
               139         139
               140         140
               141         141
               142         142
               143         143
               144         144
               145         145
               146         146
               147         147
               148         148
               149         149
               150         150
               151         151
               152         152
               153         153
               154         154
               155         155
               156         156
               157         157
               158         158
               159         159
               160         160
               161         161
               162         162
               163         163
               164         164
               165         165
               166         166
               167         167
               168         168
               169         169
               170         170
               171         171
               172         172
               173         173
               174         174
               175         175
               176         176
               177         177
               178         178
               179         179
               180         180
               181         181
               182         182
               183         183
               184         184
               185         185
               186         186
               187         187
               188         188
               189         189
               190         190
               191         191
               192         192
               193         193
               194         194
               195         195
               196         196
               197         197
               198         198
               199         199
               200         200
               201         201
               202         202
               203         203
               204         204
               205         205
               206         206
               207         207
               208         208
               209         209
               210         210
               211         211
               212         212
               213         213
               214         214
               215         215
               216         216
               217         217
               218         218
               219         219
               220         220
               221         221
               222         222
               223         223
               224         224
               225         225
               226         226
               227         227
               228         228
               229         229
               230         230
               231         231
               232         232
               233         233
               234         234
               235         235
               236         236
               237         237
               238         238
               239         239
               240         240
               241         241
               242         242
               243         243
               244         244
               245         245
               246         246
               247         247
               248         248
               249         249
               250         250
               251         251
               252         252
               253         253
               254         254
               255         255
               256         256
               257         257
               258         258
               259         259
               260         260
               261         261
               262         262
               263         263
               264         264
               265         265
               266         266
               267         267
               268         268
               269         269
               270         270
               271         271
               272         272
               273         273
               274         274
               275         275
               276         276
               277         277
               278         278
               279         279
               280         280
               281         281
               282         282
               283         283
               284         284
               285         285
               286         286
               287         287
               288         288
               289         289
               290         290
               291         291
               292         292
               293         293
               294         294
               295         295
               296         296
               297         297
               298         298
               299         299
               300         300
               301         301
               302         302
               303         303
               304         304
               305         305
               306         306
               307         307
               308         308
               309         309
               310         310
               311         311
               312         312
               313         313
               314         314
               315         315
               316         316
               317         317
               318         318
               319         319
               320         320
               321         321
               322         322
               323         323
               324         324
               325         325

----------------------------------------------------------------------------------------

 
 
 KPOINTS: Automatic Mesh                          

Automatic generation of k-mesh.
 Grid dimensions read from file:
 generate k-points for:    3    3    1

 Generating k-lattice:

  Cartesian coordinates                     Fractional coordinates (reciprocal lattice)
     0.018456177  0.000005026 -0.000000000     0.333333333  0.000000000  0.000000000
     0.000000000  0.018454135  0.000000000     0.000000000  0.333333333  0.000000000
     0.000000000 -0.000000000  0.016003201     0.000000000  0.000000000  1.000000000

  Length of vectors
     0.018456178  0.018454135  0.016003201

  Shift w.r.t. Gamma in fractional coordinates (k-lattice)
     0.000000000  0.000000000  0.000000000

 
 Subroutine IBZKPT returns following result:
 ===========================================
 
 Found      5 irreducible k-points:
 
 Following reciprocal coordinates:
            Coordinates               Weight
  0.000000  0.000000  0.000000      1.000000
  0.333333  0.000000  0.000000      2.000000
  0.000000  0.333333  0.000000      2.000000
  0.333333  0.333333  0.000000      2.000000
 -0.333333  0.333333  0.000000      2.000000
 
 Following cartesian coordinates:
            Coordinates               Weight
  0.000000  0.000000  0.000000      1.000000
  0.018456  0.000005  0.000000      2.000000
  0.000000  0.018454  0.000000      2.000000
  0.018456  0.018459  0.000000      2.000000
 -0.018456  0.018449  0.000000      2.000000
 


--------------------------------------------------------------------------------------------------------




 Dimension of arrays:
   k-points           NKPTS =      5   k-points in BZ     NKDIM =      5   number of bands    NBANDS=    732
   number of dos      NEDOS =    301   number of ions     NIONS =    325
   non local maximal  LDIM  =      5   non local SUM 2l+1 LMDIM =     13
   total plane-waves  NPLWV = ******
   max r-space proj   IRMAX =   3336   max aug-charges    IRDMAX=  19845
   dimension x,y,z NGX =   100 NGY =  100 NGZ =  350
   dimension x,y,z NGXF=   200 NGYF=  200 NGZF=  700
   support grid    NGXF=   200 NGYF=  200 NGZF=  700
   ions per type =             143  39  47  72  24
   NGX,Y,Z   is equivalent  to a cutoff of   9.20,  9.20,  9.31 a.u.
   NGXF,Y,Z  is equivalent  to a cutoff of  18.41, 18.41, 18.62 a.u.

 SYSTEM =  PSC                                     
 POSCAR =   H  C  N  I Pb                          

 Startparameter for this run:
   NWRITE =      2    write-flag & timer
   PREC   = normal    normal or accurate (medium, high low for compatibility)
   ISTART =      0    job   : 0-new  1-cont  2-samecut
   ICHARG =      1    charge: 1-file 2-atom 10-const
   ISPIN  =      1    spin polarized calculation?
   LNONCOLLINEAR =      F non collinear calculations
   LSORBIT =      F    spin-orbit coupling
   INIWAV =      1    electr: 0-lowe 1-rand  2-diag
   LASPH  =      F    aspherical Exc in radial PAW
 Electronic Relaxation 1
   ENCUT  =  500.0 eV  36.75 Ry    6.06 a.u.  32.93 32.93113.93*2*pi/ulx,y,z
   ENINI  =  500.0     initial cutoff
   ENAUG  =  644.9 eV  augmentation charge cutoff
   NELM   =    600;   NELMIN=  2; NELMDL=  0     # of ELM steps 
   EDIFF  = 0.1E-03   stopping-criterion for ELM
   LREAL  =      T    real-space projection
   NLSPLINE    = F    spline interpolate recip. space projectors
   LCOMPAT=      F    compatible to vasp.4.4
   GGA_COMPAT  = F    GGA compatible to vasp.4.4-vasp.4.6
   LMAXPAW     = -100 max onsite density
   LMAXMIX     =    2 max onsite mixed and CHGCAR
   VOSKOWN=      0    Vosko Wilk Nusair interpolation
   ROPT   =   -0.00050  -0.00050  -0.00050  -0.00050
   ROPT   =   -0.00050
 Ionic relaxation
   EDIFFG = 0.1E-02   stopping-criterion for IOM
   NSW    =      0    number of steps for IOM
   NBLOCK =      1;   KBLOCK =      1    inner block; outer block 
   IBRION =     -1    ionic relax: 0-MD 1-quasi-New 2-CG
   NFREE  =      0    steps in history (QN), initial steepest desc. (CG)
   ISIF   =      2    stress and relaxation
   IWAVPR =     10    prediction:  0-non 1-charg 2-wave 3-comb
   ISYM   =      0    0-nonsym 1-usesym 2-fastsym
   LCORR  =      T    Harris-Foulkes like correction to forces

   POTIM  = 0.5000    time-step for ionic-motion
   TEIN   =    0.0    initial temperature
   TEBEG  =    0.0;   TEEND  =   0.0 temperature during run
   SMASS  =  -3.00    Nose mass-parameter (am)
   estimated Nose-frequenzy (Omega)   =  0.10E-29 period in steps = 0.13E+47 mass=  -0.745E-26a.u.
   SCALEE = 1.0000    scale energy and forces
   NPACO  =    256;   APACO  = 16.0  distance and # of slots for P.C.
   PSTRESS=    0.0 pullay stress

  Mass of Ions in am
   POMASS =   1.00 12.01 14.00126.90207.20
  Ionic Valenz
   ZVAL   =   1.00  4.00  5.00  7.00  4.00
  Atomic Wigner-Seitz radii
   RWIGS  =  -1.00 -1.00 -1.00 -1.00 -1.00
  virtual crystal weights 
   VCA    =   1.00  1.00  1.00  1.00  1.00
   NELECT =    1134.0000    total number of electrons
   NUPDOWN=      -1.0000    fix difference up-down

 DOS related values:
   EMIN   =  10.00;   EMAX   =-10.00  energy-range for DOS
   EFERMI =   0.00
   ISMEAR =     0;   SIGMA  =   0.05  broadening in eV -4-tet -1-fermi 0-gaus

 Electronic relaxation 2 (details)
   IALGO  =     38    algorithm
   LDIAG  =      T    sub-space diagonalisation (order eigenvalues)
   LSUBROT=      F    optimize rotation matrix (better conditioning)
   TURBO    =      0    0=normal 1=particle mesh
   IRESTART =      0    0=no restart 2=restart with 2 vectors
   NREBOOT  =      0    no. of reboots
   NMIN     =      0    reboot dimension
   EREF     =   0.00    reference energy to select bands
   IMIX   =      4    mixing-type and parameters
     AMIX     =   0.40;   BMIX     =  0.01
     AMIX_MAG =   1.60;   BMIX_MAG =  0.01
     AMIN     =   0.01
     WC   =   100.;   INIMIX=   1;  MIXPRE=   1;  MAXMIX= -45

 Intra band minimization:
   WEIMIN = 0.0000     energy-eigenvalue tresh-hold
   EBREAK =  0.34E-07  absolut break condition
   DEPER  =   0.30     relativ break condition  

   TIME   =   0.40     timestep for ELM

  volume/ion in A,a.u.               =      62.72       423.28
  Fermi-wavevector in a.u.,A,eV,Ry     =   0.624944  1.180972  5.313816  0.390554
  Thomas-Fermi vector in A             =   1.685677
 
 Write flags
   LWAVE        =      F    write WAVECAR
   LDOWNSAMPLE  =      F    k-point downsampling of WAVECAR
   LCHARG       =      T    write CHGCAR
   LVTOT        =      T    write LOCPOT, total local potential
   LVHAR        =      F    write LOCPOT, Hartree potential only
   LELF         =      F    write electronic localiz. function (ELF)
   LORBIT       =      0    0 simple, 1 ext, 2 COOP (PROOUT), +10 PAW based schemes


 Dipole corrections
   LMONO  =      F    monopole corrections only (constant potential shift)
   LDIPOL =      T    correct potential (dipole corrections)
   IDIPOL =      3    1-x, 2-y, 3-z, 4-all directions 
   EPSILON=  1.0000000 bulk dielectric constant

 Exchange correlation treatment:
   GGA     =    --    GGA type
   LEXCH   =     8    internal setting for exchange type
   VOSKOWN=      0    Vosko Wilk Nusair interpolation
   LHFCALC =     F    Hartree Fock is set to
   LHFONE  =     F    Hartree Fock one center treatment
   AEXX    =    0.0000 exact exchange contribution

 Linear response parameters
   LEPSILON=     F    determine dielectric tensor
   LRPA    =     F    only Hartree local field effects (RPA)
   LNABLA  =     F    use nabla operator in PAW spheres
   LVEL    =     F    velocity operator in full k-point grid
   LINTERFAST=   F  fast interpolation
   KINTER  =     0    interpolate to denser k-point grid
   CSHIFT  =0.1000    complex shift for real part using Kramers Kronig
   OMEGAMAX=  -1.0    maximum frequency
   DEG_THRESHOLD= 0.2000000E-02 threshold for treating states as degnerate
   RTIME   =   -0.100 relaxation time in fs
  (WPLASMAI=    0.000 imaginary part of plasma frequency in eV, 0.658/RTIME)
   DFIELD  = 0.0000000 0.0000000 0.0000000 field for delta impulse in time
 
 Orbital magnetization related:
   ORBITALMAG=     F  switch on orbital magnetization
   LCHIMAG   =     F  perturbation theory with respect to B field
   DQ        =  0.001000  dq finite difference perturbation B field
   LLRAUG    =     F  two centre corrections for induced B field



--------------------------------------------------------------------------------------------------------


 Static calculation
 charge density and potential will be updated during run
 non-spin polarized calculation
 Variant of blocked Davidson
 Davidson routine will perform the subspace rotation
 perform sub-space diagonalisation
    after iterative eigenvector-optimisation
 modified Broyden-mixing scheme, WC =      100.0
 initial mixing is a Kerker type mixing with AMIX =  0.4000 and BMIX =      0.0100
 Hartree-type preconditioning will be used
 using additional bands           165
 real space projection scheme for non local part
[...]
     13.54561      0.00000     45.35368         0.004980     -0.007728      0.012658
     13.54315      9.03140     45.35368        -0.003852      0.010768     -0.005428
     14.43161      9.17887     32.11737         0.058374     -0.149111      0.158694
     15.85928      9.03844     33.17134        -0.074925     -0.068685     -0.001466
     13.69356     11.17315     33.24932         0.031208      0.108101      0.007839
     13.65870     11.21858     35.01531         0.049838     -0.009996     -0.109059
     12.41153      8.00336     34.34076        -0.080940     -0.108020      0.034976
     12.07195      9.66731     34.82653        -0.047270     -0.036671      0.003262
     14.37958      7.63513     35.38784        -0.026111      0.036392     -0.020304
     15.60655      8.89975     35.52748         0.024684      0.022056      0.000475
     15.48442      6.74693     33.66640         0.064331      0.027766     -0.028254
     13.78190      6.79638     33.24761        -0.018840     -0.043944     -0.018517
     14.17488      6.91859     30.91155        -0.010135      0.019851     -0.020634
     15.85929      7.39616     31.07768        -0.096490     -0.063271      0.092365
     16.18754     11.14649     33.23296         0.001135      0.011767      0.039923
     16.22204     10.93506     35.00283         0.053179      0.003711      0.011631
     15.58782     12.43450     34.30194        -0.001383     -0.004673     -0.031803
     10.84610      9.16576     32.80873        -0.077679     -0.025710      0.031283
     12.29049      8.69862     31.90048         0.059907     -0.011740     -0.009508
     12.03559     10.39164     32.41781         0.023429      0.146757     -0.126172
     12.72800      9.04910     36.69807         0.145331      0.021230     -0.040521
     14.00843     10.28685     36.91125        -0.017865      0.070204     -0.015864
     14.19463      8.67081     37.57798         0.068306     -0.000010     -0.022036
     14.83078      4.66255     31.99739         0.016028     -0.089060      0.067372
     15.31243      4.95482     30.34144        -0.065236      0.030559     -0.071098
     16.69603      2.87544     31.15721         0.023524      0.039960      0.007561
     17.58106      6.94677     32.30185         0.049760     -0.115087     -0.038114
      1.01026      2.27786     31.47663         0.000600     -0.084058     -0.031032
      1.86643      6.34315     32.61060         0.036012     -0.003038      0.004741
      2.66181      4.01946     32.18980         0.056037     -0.042629     -0.062681
     18.01149      4.30791     34.95146         0.040796      0.011602     -0.142897
      0.45215     14.00707     35.00699        -0.100338     -0.076717     -0.028160
      9.41473      4.96971     34.91555         0.178715     -0.061456     -0.021496
      8.79342     13.78872     34.70000         0.318820     -0.092786      0.142917
      4.35359      9.21075     34.71722        -0.047158     -0.190798      0.045312
      4.81970     17.99856     34.77260        -0.000840      0.000638     -0.082978
     14.05203     17.93319     35.00229        -0.025922     -0.040377      0.027841
      0.15437      4.42786     40.57797        -0.063406      0.010388      0.111825
      0.33527     13.86225     40.95205         0.329063     -0.046663     -0.014222
      9.15734      4.53103     40.41130         0.331426     -0.406263     -0.004258
      8.94289     13.56980     40.47504        -0.041809     -0.018841      0.003135
      4.56446      9.02716     40.54423         0.049362      0.055142      0.062145
      4.55067     17.99037     40.46548         0.028203     -0.005445     -0.189211
     13.38486      9.30181     40.63119         0.563699      0.334413     -0.146036
     13.54312     18.03402     40.59361        -0.007923      0.052970      0.033078
      9.02897      4.51561     46.44552         0.009248      0.004279      0.027634
      9.02651     13.54701     46.44552         0.027341     -0.011627      0.044036
     18.05937      4.51561     46.44552         0.018467     -0.000826      0.040085
     18.05691     13.54701     46.44552         0.015784     -0.001489     -0.008093
      4.51521      0.00002     46.44421         0.000628     -0.001543      0.054014
      4.51275      9.03142     46.44421        -0.004832     -0.003312      0.030788
     13.54561      0.00002     46.44421        -0.009044     -0.010590      0.035547
     13.54315      9.03142     46.44421         0.003611      0.011016      0.022646
     16.94953      4.95828     31.67618         0.018285      0.116204     -0.055779
     17.40914      3.64657     31.46483        -0.190605     -0.096019     -0.008246
     17.88738      5.91873     32.08731        -0.075878     -0.054874     -0.000844
      0.68851      3.30559     31.63387         0.078254     -0.015379      0.021415
      1.17271      5.57616     32.26452        -0.061547      0.063318     -0.072016
      1.61658      4.27487     32.02236        -0.055877      0.151987      0.128399
     14.81781      8.70667     33.03891         0.066010      0.267895     -0.073710
     14.22018     10.83955     34.14948        -0.092128     -0.023000      0.131340
     12.54697      9.05030     34.05550        -0.059252      0.049041     -0.067394
     14.52472      8.71857     35.48950        -0.027296     -0.004021      0.018809
     14.76647      7.18723     32.96143         0.055654      0.116311     -0.257798
     15.07657      6.74938     31.51997         0.109831     -0.044340     -0.108775
     15.64721     11.34587     34.16679        -0.037680     -0.053182     -0.022976
     11.92247      9.34467     32.70613         0.074002     -0.174133      0.009851
     13.81028      9.23105     36.71709        -0.116375     -0.058292     -0.038736
     15.49461      5.28321     31.37544         0.113050      0.068614      0.018413
      1.08321      4.63619     35.52720         0.229302     -0.147678     -0.133970
      0.54580     12.85756     35.62902         0.161496     -0.175503      0.059884
      9.60263      3.70721     35.22805        -0.148504     -0.159755      0.132093
      9.92403     13.29325     35.14917        -0.017720      0.050400      0.011153
      8.25619      5.58138     34.84673        -0.459545     -0.117631      0.139879
      7.61344     13.30480     35.00444        -0.089988      0.109207     -0.140401
     16.83466      4.69399     35.38898         0.008111     -0.010281     -0.101048
     17.48809     14.82731     35.08781        -0.176924      0.229079      0.078797
      4.75123      8.02369     35.12695        -0.188589     -0.005709     -0.174366
      3.61541      0.32954     35.10684        -0.076019     -0.100730      0.029234
     12.78750     17.87998     35.36639         0.300340     -0.091526     -0.063622
      5.89180      0.69833     34.83458        -0.165920     -0.114937     -0.040161
      5.00099     10.32458     34.95636        -0.294651      0.573358     -0.254920
     14.81259      0.94521     35.04131        -0.001450     -0.255193     -0.147652
      1.02834      3.58318     41.07142        -0.240716      0.207113      0.078249
      0.94299     12.70478     41.06806        -0.202668      0.079348     -0.048190
      9.85927      3.56932     40.97721        -0.272191      0.359913     -0.148974
      9.74378     12.82677     41.21088        -0.066711      0.071113     -0.367256
      3.88905      8.12700     41.21962        -0.103697     -0.168283     -0.304072
      3.55212     17.29898     40.94731        -0.446510     -0.341406     -0.180125
     12.44528      8.55397     41.14093        -0.184592     -0.011585     -0.127674
     12.72247     17.19663     41.18430        -0.003807     -0.045691     -0.335403
      8.37524      5.37223     41.04117        -0.051481      0.048278      0.017054
      8.09598     14.47158     40.91980         0.103602     -0.100454     -0.120626
     17.36686      5.14804     41.27883         0.066129     -0.011034     -0.094406
     17.12669     14.06991     41.19941        -0.094921      0.226461     -0.039737
      5.39646      0.64292     41.16406         0.751819      0.551716     -0.255704
      5.30075      9.98293     41.06340        -0.010293      0.015768      0.103859
     14.33352      0.83687     41.19286         0.000557      0.004474      0.039415
     14.66416      9.25979     40.96035        -0.378082     -0.129538     -0.061788
      0.82731      3.68697     47.03596         0.016769     -0.022482     -0.094950
      0.82485     12.71837     47.03596         0.024640     -0.019717     -0.055238
      9.85771      3.68697     47.03596         0.024567     -0.024882     -0.081705
      9.85525     12.71837     47.03596         0.006744     -0.010928     -0.080346
      3.68432      8.20234     47.03465        -0.008979     -0.015460     -0.066566
      3.68186     17.23373     47.03465        -0.010678     -0.008060     -0.068050
     12.71472      8.20234     47.03465        -0.014523     -0.022126     -0.053920
     12.71226     17.23373     47.03465        -0.011874     -0.005014     -0.074457
      8.20068      5.34457     47.03603        -0.020385      0.018091     -0.082895
      8.19822     14.37597     47.03603        -0.029452      0.027109     -0.085368
     17.23108      5.34457     47.03603        -0.030129      0.022764     -0.106847
     17.22862     14.37597     47.03603        -0.022787      0.030245     -0.060472
      5.34365      0.82909     47.03465         0.007991      0.010769     -0.071755
      5.34119      9.86049     47.03465         0.018309      0.014189     -0.058745
     14.37405      0.82909     47.03465         0.018312      0.021474     -0.067324
     14.37159      9.86049     47.03465         0.011106      0.006205     -0.061055
     14.03762      9.32847     34.17582         0.041190     -0.090470      0.086212
      9.24161     17.73554     34.55674         0.017967     -0.003574      0.004801
      8.55822      9.22382     34.56353        -0.053868     -0.038603      0.000387
      0.13431      0.23236     34.44300        -0.011128     -0.004796      0.020506
      0.56312      8.82512     34.64070        -0.030444     -0.027464     -0.040236
      4.66653      4.33523     34.63628        -0.028820      0.002214     -0.023390
      4.14979     13.83850     34.41629         0.010638     -0.018065      0.000889
     13.26621      4.15398     34.65359         0.004814     -0.014973      0.016872
     13.21136     14.36563     34.62756         0.071356     -0.051395     -0.000219
     17.98685     17.77862     40.87812        -0.014591      0.018023      0.005711
      0.17093      9.12031     40.93112        -0.005593     -0.016906      0.025982
      8.98327      0.03083     40.89636        -0.013248      0.015482      0.043719
      8.91350      9.07419     40.86357         0.048906      0.016790      0.001892
      4.74523      4.36411     40.94310         0.006934      0.001504     -0.001196
      4.43733     13.65330     40.84009        -0.002022     -0.019985      0.016987
     13.44484      4.78791     40.95284         0.009558      0.022410     -0.041091
     13.52294     13.25312     40.92033         0.017697      0.012019     -0.067538
      2.44634      2.12603     38.04255        -0.007834     -0.045211     -0.019237
      2.65762     10.99221     37.88889        -0.022910     -0.003297     -0.009967
     11.52679      2.03790     38.03576        -0.014212     -0.013020     -0.021318
     11.17364     11.39138     37.94543        -0.043202      0.032976      0.005286
      6.63500      6.94471     37.99430         0.019589     -0.001567      0.009174
      6.57317     15.99245     37.83914         0.029159      0.013157     -0.023808
     16.02380      6.61217     38.20914         0.051481      0.058224      0.013433
     15.56295     16.08485     37.88351         0.018791      0.014275      0.009772
      2.28797      6.66504     38.20565        -0.005376     -0.014607      0.018362
      2.08184     15.76594     37.85646         0.013089      0.005348      0.004811
     11.09057      6.61168     37.61049        -0.009185      0.018940      0.017362
     11.11633     15.59408     38.26252         0.025605      0.046805      0.010843
      7.14731      2.51204     37.72361         0.006135     -0.013018      0.017987
      6.84464     11.44613     37.94856         0.013198     -0.005831     -0.002304
     15.93246      2.43215     38.24697        -0.015229      0.006706      0.025131
     16.28804     11.69058     38.11786         0.010794     -0.001273     -0.017478
      0.00000      0.00000     47.17356         0.001233      0.006361      0.363241
     -0.00246      9.03140     47.17356        -0.001308     -0.008436      0.456473
      9.03040      0.00000     47.17356         0.000715     -0.000951      0.434612
      9.02794      9.03140     47.17356        -0.004368     -0.000367      0.395334
      4.51398      4.51570     47.17425        -0.001472     -0.005259      0.427115
      4.51152     13.54710     47.17425         0.003922      0.004793      0.344908
     13.54438      4.51570     47.17425         0.005549      0.001590      0.422732
     13.54192     13.54710     47.17425        -0.003405      0.000562      0.430561
      2.45192      2.06295     44.04013         0.006492     -0.033672     -0.032985
      2.44946     11.09435     44.04013         0.074951     -0.020896      0.003287
     11.48232      2.06295     44.04013         0.006203      0.008543     -0.069422
     11.47986     11.09435     44.04013        -0.081236      0.014241      0.012154
      6.57602      6.96845     44.04013         0.003486     -0.026113     -0.057583
      6.57356     15.99985     44.04013         0.031652     -0.014900     -0.066136
     15.60642      6.96845     44.04013        -0.005369      0.014692     -0.101201
     15.60396     15.99985     44.04013        -0.046912      0.051372     -0.028921
      2.06108      6.57881     44.04000         0.022322     -0.055244     -0.042529
      2.05862     15.61021     44.04000         0.053697      0.078103     -0.040139
     11.09148      6.57881     44.04000        -0.010080      0.006075     -0.029669
     11.08902     15.61021     44.04000        -0.034710     -0.006039     -0.039259
      6.96686      2.45259     44.04007         0.022144     -0.018116     -0.010505
      6.96440     11.48399     44.04007        -0.028100      0.011571     -0.055754
     15.99726      2.45259     44.04007         0.021878      0.022478     -0.053617
     15.99481     11.48399     44.04007         0.022477     -0.013893     -0.071187
      2.43163      2.08322     50.06849         0.005459     -0.013960      0.021755
      2.42917     11.11462     50.06849         0.019980     -0.003150      0.027437
     11.46203      2.08322     50.06849         0.011760     -0.009019      0.023143
     11.45957     11.11462     50.06849         0.005430     -0.013864      0.026215
      6.59631      6.94818     50.06849        -0.010679      0.008937      0.024660
      6.59385     15.97958     50.06849        -0.014739      0.006419      0.024025
     15.62671      6.94818     50.06849        -0.012880      0.003505      0.022643
     15.62425     15.97958     50.06849        -0.003526      0.020265      0.026878
      2.08113      6.59901     50.06905        -0.006059     -0.016127      0.024579
      2.07867     15.63041     50.06905        -0.008961     -0.007864      0.024810
     11.11153      6.59901     50.06905        -0.010892     -0.010898      0.025151
     11.10907     15.63041     50.06905        -0.012399     -0.006938      0.024994
      6.94681      2.43239     50.06905         0.009072      0.009679      0.023528
      6.94435     11.46379     50.06905         0.006018      0.014935      0.025603
     15.97721      2.43239     50.06905         0.014884      0.006450      0.022812
     15.97475     11.46379     50.06905         0.009251      0.009932      0.027541
     18.00900      0.11890     37.75020         0.007813     -0.003781     -0.018020
      0.18165      9.04933     37.72862        -0.008251      0.039708     -0.000790
      9.05810     17.95280     37.70791         0.000332     -0.013124     -0.026070
      9.02791      9.03164     37.65239        -0.010191      0.020519      0.056807
      4.61232      4.48392     37.84591         0.029762     -0.008603      0.014552
      4.40213     13.65884     37.67832        -0.023655     -0.016590      0.006524
     13.50193      4.53764     37.85232         0.003195      0.013901      0.003912
     13.56194     13.68211     37.78662         0.012989      0.004763     -0.082332
      0.00001      0.00001     44.04300        -0.047022     -0.112671      0.111246
     -0.00245      9.03141     44.04300         0.070513      0.120240      0.171033
      9.03041      0.00001     44.04300        -0.017916      0.002934      0.061625
      9.02795      9.03141     44.04300         0.058440      0.023711      0.102420
      4.51397      4.51569     44.04275         0.031295      0.042089      0.173938
      4.51151     13.54709     44.04275        -0.088818     -0.031498      0.108559
     13.54437      4.51569     44.04275        -0.076020     -0.025050      0.181482
     13.54191     13.54709     44.04275         0.048795     -0.045675      0.163701
      0.00000      0.00000     50.44728        -0.004983     -0.003731     -0.617181
     -0.00246      9.03140     50.44728        -0.003891      0.004110     -0.644581
      9.03040      0.00000     50.44728         0.004262     -0.001018     -0.635385
      9.02794      9.03140     50.44728         0.004852      0.000314     -0.628782
      4.51397      4.51570     50.44728         0.001854      0.005826     -0.632932
      4.51151     13.54710     50.44728        -0.000607     -0.005988     -0.615943
     13.54437      4.51570     50.44728        -0.002146      0.005561     -0.629540
     13.54191     13.54710     50.44728         0.001398     -0.005718     -0.641073
 -----------------------------------------------------------------------------------
    total drift:                               -0.035568      0.015552      0.673267


--------------------------------------------------------------------------------------------------------



  FREE ENERGIE OF THE ION-ELECTRON SYSTEM (eV)
  ---------------------------------------------------
  free  energy   TOTEN  =     -1576.35008339 eV

  energy  without entropy=    -1576.35008339  energy(sigma->0) =    -1576.35008339
 


--------------------------------------------------------------------------------------------------------


    POTLOK:  cpu time    0.5001: real time    0.5000


--------------------------------------------------------------------------------------------------------


     LOOP+:  cpu time  264.6245: real time  265.1112
 vacuum level on the upper side and lower side of the slab         2.357         1.555
    4ORBIT:  cpu time    0.0000: real time    0.0000

 total amount of memory used by VASP MPI-rank0  8653575. kBytes
=======================================================================

   base      :      30000. kBytes
   nonlr-proj:      53613. kBytes
   fftplans  :     249280. kBytes
   grid      :     701440. kBytes
   one-center:       2636. kBytes
   wavefun   :    7616606. kBytes
 
  
  
 General timing and accounting informations for this job:
 ========================================================
  
                  Total CPU time used (sec):      476.124
                            User time (sec):      389.067
                          System time (sec):       87.057
                         Elapsed time (sec):      479.545
  
                   Maximum memory used (kb):    10309056.
                   Average memory used (kb):          N/A
  
                          Minor page faults:      3542585
                          Major page faults:           12
                 Voluntary context switches:        10758
