<?xml version="1.0" encoding="ISO-8859-1"?>
<modeling>
 <generator>
  <i name="program" type="string">vasp </i>
  <i name="version" type="string">6.2.1  </i>
  <i name="subversion" type="string">16May21 (build Nov 15 2021 14:57:28) complex                          parallel </i>
  <i name="platform" type="string">LinuxPGI </i>
  <i name="date" type="string">2023 07 30 </i>
  <i name="time" type="string">14:18:28 </i>
 </generator>
 <incar>
  <i type="string" name="SYSTEM">PSC</i>
  <i type="int" name="ISTART">     1</i>
  <i type="string" name="PREC">Normal</i>
  <i name="BMIX">      0.01000000</i>
  <i name="AMIN">      0.01000000</i>
  <i type="int" name="ICHARG">     1</i>
  <i type="int" name="NELM">   600</i>
  <i type="int" name="ISYM">     0</i>
  <i name="ENCUT">    500.00000000</i>
  <i type="string" name="LREAL">Auto</i>
  <i type="int" name="ISMEAR">     0</i>
  <i name="SIGMA">      0.05000000</i>
  <i type="logical" name="LWAVE"> F  </i>
  <i type="logical" name="LVTOT"> T  </i>
  <i type="logical" name="GGA_COMPAT"> F  </i>
  <i type="logical" name="LDIPOL"> T  </i>
  <i type="int" name="IDIPOL">     3</i>
  <i type="int" name="IVDW">    12</i>
 </incar>
 <primitive_cell>
  <structure name="primitive_cell" >
   <crystal>
    <varray name="basis" >
     <v>      18.06080055       0.00000000       0.00000000 </v>
     <v>      -0.00491865      18.06279945       0.00000000 </v>
     <v>       0.00000000       0.00000000      62.48749924 </v>
    </varray>
    <i name="volume">  20385.21054034 </i>
    <varray name="rec_basis" >
     <v>       0.05536853       0.00001508      -0.00000000 </v>
     <v>       0.00000000       0.05536240       0.00000000 </v>
     <v>       0.00000000      -0.00000000       0.01600320 </v>
    </varray>
   </crystal>
   <varray name="positions" >
    <v>       0.40782156       0.28365347       0.56170457 </v>
    <v>       0.41565937       0.69547188       0.57142734 </v>
    <v>       0.92556124       0.29272538       0.57971293 </v>
    <v>       0.92759871       0.81539405       0.57289297 </v>
    <v>       0.32300191       0.09154349       0.56330468 </v>
    <v>       0.32393811       0.57320961       0.56857814 </v>
    <v>       0.79977920       0.10276181       0.56535411 </v>
    <v>       0.10990326       0.24144566       0.56200731 </v>
    <v>       0.07845231       0.68199421       0.56928788 </v>
    <v>       0.58488604       0.18635605       0.56501175 </v>
    <v>       0.59925279       0.76149124       0.55891507 </v>
    <v>       0.37802434       0.01728183       0.55417169 </v>
    <v>       0.25486896       0.62229173       0.55480549 </v>
    <v>       0.87493588       0.04778391       0.55620262 </v>
    <v>       0.06366280       0.28885916       0.58202187 </v>
    <v>       0.99247068       0.69430056       0.58149094 </v>
    <v>       0.49056923       0.17311741       0.57034204 </v>
    <v>       0.55216176       0.69408214       0.57363952 </v>
    <v>       0.30815942       0.43736519       0.57194423 </v>
    <v>       0.19013172       0.06828503       0.56892184 </v>
    <v>       0.68293875       0.03340176       0.57340082 </v>
    <v>       0.45596503       0.36515747       0.55499119 </v>
    <v>       0.37437591       0.76093723       0.55455586 </v>
    <v>       0.88472820       0.24383413       0.55882301 </v>
    <v>       0.97431828       0.87338282       0.55524045 </v>
    <v>       0.23354688       0.39752504       0.55855679 </v>
    <v>       0.15544947       0.98391190       0.56035604 </v>
    <v>       0.68169868       0.93985104       0.56539427 </v>
    <v>       0.57119365       0.30674644       0.55495200 </v>
    <v>       0.49077418       0.81186558       0.54486814 </v>
    <v>       0.99988198       0.20377275       0.54490434 </v>
    <v>       0.07103718       0.79084597       0.54966780 </v>
    <v>       0.18887175       0.51293512       0.54667526 </v>
    <v>       0.27285799       0.93958798       0.55053577 </v>
    <v>       0.80270640       0.94100281       0.55421235 </v>
    <v>       0.45467848       0.29618241       0.67288245 </v>
    <v>       0.44218422       0.81477964       0.67061985 </v>
    <v>       0.95779160       0.28401885       0.67683600 </v>
    <v>       0.91328237       0.73908732       0.66461071 </v>
    <v>       0.29746971       0.04181021       0.67489958 </v>
    <v>       0.30123959       0.56076725       0.67326216 </v>
    <v>       0.79768007       0.05187055       0.67547366 </v>
    <v>       0.83259818       0.47580007       0.66646686 </v>
    <v>       0.09107284       0.17086220       0.64709097 </v>
    <v>       0.10788816       0.70005504       0.65432124 </v>
    <v>       0.57743426       0.16392541       0.64640175 </v>
    <v>       0.57387821       0.67350133       0.65191341 </v>
    <v>       0.18541703       0.41143579       0.65128597 </v>
    <v>       0.16369912       0.92920125       0.64475298 </v>
    <v>       0.63527597       0.48101606       0.65356493 </v>
    <v>       0.67271591       0.91835699       0.64967193 </v>
    <v>       0.06340198       0.18856150       0.67325746 </v>
    <v>       0.02533227       0.65578633       0.66136238 </v>
    <v>       0.54669709       0.18791030       0.67179764 </v>
    <v>       0.54331569       0.71366327       0.67569173 </v>
    <v>       0.21352750       0.44684032       0.67586901 </v>
    <v>       0.18445943       0.95286398       0.67115499 </v>
    <v>       0.69862740       0.43528530       0.67001621 </v>
    <v>       0.69711564       0.94805724       0.67515353 </v>
    <v>       0.43702333       0.33730921       0.64828494 </v>
    <v>       0.41723833       0.82964193       0.64392231 </v>
    <v>       0.92653271       0.31937526       0.65258426 </v>
    <v>       0.92763833       0.83102280       0.65804501 </v>
    <v>       0.34211017       0.06208326       0.65119543 </v>
    <v>       0.32003890       0.58851466       0.64708237 </v>
    <v>       0.82693226       0.07928978       0.64998718 </v>
    <v>       0.84846214       0.54762875       0.64822236 </v>
    <v>       0.00671971       0.25195396       0.63203108 </v>
    <v>       0.05186442       0.81472996       0.64985886 </v>
    <v>       0.51208726       0.25613264       0.62931331 </v>
    <v>       0.49723022       0.74232952       0.63039189 </v>
    <v>       0.26078385       0.99433490       0.63030026 </v>
    <v>       0.24943683       0.49697522       0.63139386 </v>
    <v>       0.75193173       0.99726480       0.63214572 </v>
    <v>       0.72533922       0.55543880       0.63794803 </v>
    <v>       0.44874502       0.30128397       0.76888902 </v>
    <v>       0.44874501       0.80128391       0.76888902 </v>
    <v>       0.94874497       0.30128397       0.76888902 </v>
    <v>       0.94874501       0.80128391       0.76888902 </v>
    <v>       0.30127600       0.05129450       0.76887296 </v>
    <v>       0.30127601       0.55129450       0.76887296 </v>
    <v>       0.80127594       0.05129450       0.76887296 </v>
    <v>       0.80127598       0.55129450       0.76887296 </v>
    <v>       0.07877100       0.17118050       0.74344197 </v>
    <v>       0.07877101       0.67118045       0.74344197 </v>
    <v>       0.57877100       0.17118050       0.74344197 </v>
    <v>       0.57877099       0.67118045       0.74344197 </v>
    <v>       0.17119950       0.42117448       0.74342103 </v>
    <v>       0.17119950       0.92117451       0.74342103 </v>
    <v>       0.67119951       0.42117448       0.74342103 </v>
    <v>       0.67119950       0.92117451       0.74342103 </v>
    <v>       0.05125600       0.19871499       0.76888902 </v>
    <v>       0.05125600       0.69871493       0.76888902 </v>
    <v>       0.55125603       0.19871499       0.76888902 </v>
    <v>       0.55125602       0.69871493       0.76888902 </v>
    <v>       0.19872349       0.44870397       0.76887205 </v>
    <v>       0.19872349       0.94870397       0.76887205 </v>
    <v>       0.69872352       0.44870397       0.76887205 </v>
    <v>       0.69872351       0.94870397       0.76887205 </v>
    <v>       0.42123152       0.32881747       0.74344197 </v>
    <v>       0.42123151       0.82881744       0.74344197 </v>
    <v>       0.92123147       0.32881747       0.74344197 </v>
    <v>       0.92123151       0.82881744       0.74344197 </v>
    <v>       0.32880050       0.07882500       0.74342103 </v>
    <v>       0.32880049       0.57882496       0.74342103 </v>
    <v>       0.82880048       0.07882500       0.74342103 </v>
    <v>       0.82880052       0.57882496       0.74342103 </v>
    <v>       0.00000350       0.25000148       0.72582199 </v>
    <v>       0.00000350       0.75000145       0.72582199 </v>
    <v>       0.50000351       0.25000148       0.72582199 </v>
    <v>       0.50000350       0.75000145       0.72582199 </v>
    <v>       0.25000050       0.00000000       0.72580398 </v>
    <v>       0.25000052       0.50000000       0.72580398 </v>
    <v>       0.75000050       0.00000000       0.72580398 </v>
    <v>       0.75000049       0.50000000       0.72580398 </v>
    <v>       0.79919561       0.50816427       0.51398073 </v>
    <v>       0.87824156       0.50038965       0.53084769 </v>
    <v>       0.75836101       0.61857250       0.53209562 </v>
    <v>       0.75643130       0.62108778       0.56035701 </v>
    <v>       0.68732899       0.44308508       0.54956207 </v>
    <v>       0.66855168       0.53520572       0.55733590 </v>
    <v>       0.79629153       0.42269909       0.56631865 </v>
    <v>       0.86424574       0.49271154       0.56855341 </v>
    <v>       0.85745152       0.37352648       0.53877018 </v>
    <v>       0.76318590       0.37626375       0.53206821 </v>
    <v>       0.78494650       0.38302986       0.49468369 </v>
    <v>       0.87821733       0.40946923       0.49734233 </v>
    <v>       0.89644848       0.61709675       0.53183373 </v>
    <v>       0.89835520       0.60539124       0.56015727 </v>
    <v>       0.86326244       0.68840406       0.54894085 </v>
    <v>       0.60067076       0.50743867       0.52504477 </v>
    <v>       0.68063775       0.48157666       0.51050985 </v>
    <v>       0.66654942       0.57530621       0.51878870 </v>
    <v>       0.70486719       0.50097982       0.58728665 </v>
    <v>       0.77578137       0.56950459       0.59069816 </v>
    <v>       0.78606637       0.48003714       0.60136802 </v>
    <v>       0.82122907       0.25812987       0.51206064 </v>
    <v>       0.84790138       0.27431073       0.48556022 </v>
    <v>       0.92447778       0.15919153       0.49861508 </v>
    <v>       0.97354202       0.38459003       0.51693304 </v>
    <v>       0.05597094       0.12610775       0.50372679 </v>
    <v>       0.10343725       0.35117209       0.52187391 </v>
    <v>       0.14744132       0.22252672       0.51513984 </v>
    <v>       0.99733490       0.23849649       0.55933520 </v>
    <v>       0.02524598       0.77546489       0.56022393 </v>
    <v>       0.52135444       0.27513493       0.55876056 </v>
    <v>       0.48708669       0.76337654       0.55531108 </v>
    <v>       0.24119092       0.50992929       0.55558659 </v>
    <v>       0.26713114       0.99644379       0.55647287 </v>
    <v>       0.77831091       0.99282475       0.56014866 </v>
    <v>       0.00861401       0.24513696       0.64937738 </v>
    <v>       0.01877241       0.76744771       0.65536381 </v>
    <v>       0.50709678       0.25084851       0.64671010 </v>
    <v>       0.49535903       0.75125677       0.64773020 </v>
    <v>       0.25286373       0.49976553       0.64883742 </v>
    <v>       0.25223530       0.99599018       0.64757728 </v>
    <v>       0.74124050       0.51497068       0.65022905 </v>
    <v>       0.75013445       0.99840649       0.64962768 </v>
    <v>       0.49998898       0.24999498       0.74327702 </v>
    <v>       0.49998903       0.74999496       0.74327702 </v>
    <v>       0.99998898       0.24999498       0.74327702 </v>
    <v>       0.99998903       0.74999496       0.74327702 </v>
    <v>       0.25000050       0.00000100       0.74325596 </v>
    <v>       0.25000052       0.50000100       0.74325596 </v>
    <v>       0.75000050       0.00000100       0.74325596 </v>
    <v>       0.75000049       0.50000100       0.74325596 </v>
    <v>       0.93854511       0.27450212       0.50692021 </v>
    <v>       0.96397368       0.20188309       0.50353803 </v>
    <v>       0.99048734       0.32767519       0.51349974 </v>
    <v>       0.03817168       0.18300554       0.50624325 </v>
    <v>       0.06501522       0.30870954       0.51633557 </v>
    <v>       0.08957227       0.23666723       0.51246023 </v>
    <v>       0.82057149       0.48202207       0.52872837 </v>
    <v>       0.78751410       0.60010339       0.54650091 </v>
    <v>       0.69484362       0.50104624       0.54499707 </v>
    <v>       0.80434361       0.48268088       0.56794563 </v>
    <v>       0.81770617       0.39790218       0.52748838 </v>
    <v>       0.83486917       0.37366217       0.50442047 </v>
    <v>       0.86653432       0.62813438       0.54677800 </v>
    <v>       0.66027076       0.51734336       0.52340272 </v>
    <v>       0.76479383       0.51105294       0.58759098 </v>
    <v>       0.85799318       0.29249146       0.50210751 </v>
    <v>       0.06004575       0.25667086       0.56854890 </v>
    <v>       0.03041385       0.71182549       0.57017831 </v>
    <v>       0.53173940       0.20523988       0.56376162 </v>
    <v>       0.54967946       0.73594644       0.56249923 </v>
    <v>       0.45721718       0.30899856       0.55765927 </v>
    <v>       0.42174541       0.73658556       0.56018315 </v>
    <v>       0.93218125       0.25987048       0.56633691 </v>
    <v>       0.96851365       0.82087566       0.56151722 </v>
    <v>       0.26318985       0.44421099       0.56214356 </v>
    <v>       0.20018486       0.01824391       0.56182184 </v>
    <v>       0.70829493       0.98987888       0.56597538 </v>
    <v>       0.32623065       0.03866138       0.55746471 </v>
    <v>       0.27705329       0.57159379       0.55941359 </v>
    <v>       0.82016543       0.05232883       0.56077311 </v>
    <v>       0.05699196       0.19837363       0.65727416 </v>
    <v>       0.05240366       0.70336730       0.65722044 </v>
    <v>       0.54594696       0.19760609       0.65576648 </v>
    <v>       0.53969219       0.71012087       0.65950593 </v>
    <v>       0.21545367       0.44993025       0.65964579 </v>
    <v>       0.19693662       0.95771304       0.65528799 </v>
    <v>       0.68920585       0.47356826       0.65838651 </v>
    <v>       0.70468379       0.95204654       0.65908062 </v>
    <v>       0.46380581       0.29741952       0.65679006 </v>
    <v>       0.44848091       0.80118127       0.65484777 </v>
    <v>       0.96165518       0.28500802       0.66059343 </v>
    <v>       0.94849206       0.77894415       0.65932242 </v>
    <v>       0.29880366       0.03559358       0.65875676 </v>
    <v>       0.29364546       0.55267907       0.65714590 </v>
    <v>       0.79363835       0.04633099       0.65921754 </v>
    <v>       0.81207271       0.51264410       0.65549671 </v>
    <v>       0.04586250       0.20411950       0.75272599 </v>
    <v>       0.04586250       0.70411946       0.75272599 </v>
    <v>       0.54586251       0.20411950       0.75272599 </v>
    <v>       0.54586250       0.70411946       0.75272599 </v>
    <v>       0.20411900       0.45410100       0.75270499 </v>
    <v>       0.20411899       0.95410095       0.75270499 </v>
    <v>       0.70411898       0.45410100       0.75270499 </v>
    <v>       0.70411896       0.95410095       0.75270499 </v>
    <v>       0.45414002       0.29588849       0.75272697 </v>
    <v>       0.45414001       0.79588852       0.75272697 </v>
    <v>       0.95414002       0.29588849       0.75272697 </v>
    <v>       0.95414006       0.79588852       0.75272697 </v>
    <v>       0.29588249       0.04590050       0.75270499 </v>
    <v>       0.29588248       0.54590053       0.75270499 </v>
    <v>       0.79588244       0.04590050       0.75270499 </v>
    <v>       0.79588248       0.54590053       0.75270499 </v>
    <v>       0.77738308       0.51644648       0.54692256 </v>
    <v>       0.51196162       0.98188232       0.55301845 </v>
    <v>       0.47399514       0.51065268       0.55312711 </v>
    <v>       0.00743979       0.01286405       0.55119820 </v>
    <v>       0.03131212       0.48857991       0.55436210 </v>
    <v>       0.25844423       0.24000896       0.55429141 </v>
    <v>       0.22997633       0.76613263       0.55077087 </v>
    <v>       0.73459307       0.22997436       0.55456838 </v>
    <v>       0.73171046       0.79531598       0.55415173 </v>
    <v>       0.99617375       0.98426689       0.65418083 </v>
    <v>       0.00960186       0.50492201       0.65502890 </v>
    <v>       0.49739112       0.00170682       0.65447264 </v>
    <v>       0.49366442       0.50236893       0.65394788 </v>
    <v>       0.26280233       0.24160746       0.65522071 </v>
    <v>       0.24589447       0.75587953       0.65357219 </v>
    <v>       0.74449320       0.26507000       0.65537644 </v>
    <v>       0.74894502       0.73372440       0.65485620 </v>
    <v>       0.13548244       0.11770187       0.60880255 </v>
    <v>       0.14731429       0.60855493       0.60634351 </v>
    <v>       0.63825203       0.11282331       0.60869383 </v>
    <v>       0.61883954       0.63065393       0.60724829 </v>
    <v>       0.36747498       0.38447580       0.60803037 </v>
    <v>       0.36418811       0.88538062       0.60554733 </v>
    <v>       0.88731406       0.36606585       0.61146849 </v>
    <v>       0.86194031       0.89049577       0.60625749 </v>
    <v>       0.12678189       0.36899248       0.61141270 </v>
    <v>       0.11550604       0.87284043       0.60582448 </v>
    <v>       0.61416849       0.36603824       0.60188815 </v>
    <v>       0.61572994       0.86332591       0.61232285 </v>
    <v>       0.39577410       0.13907246       0.60369851 </v>
    <v>       0.37914996       0.63368537       0.60729847 </v>
    <v>       0.88219331       0.13464965       0.61207402 </v>
    <v>       0.90202133       0.64721858       0.61000775 </v>
    <v>       0.00000000       0.00000000       0.75492797 </v>
    <v>       0.00000000       0.50000000       0.75492797 </v>
    <v>       0.50000000       0.00000000       0.75492797 </v>
    <v>       0.49999999       0.50000000       0.75492797 </v>
    <v>       0.25000050       0.25000000       0.75493902 </v>
    <v>       0.25000051       0.74999997       0.75493902 </v>
    <v>       0.75000047       0.25000000       0.75493902 </v>
    <v>       0.75000046       0.74999997       0.75493902 </v>
    <v>       0.13579050       0.11421000       0.70478299 </v>
    <v>       0.13579050       0.61420998       0.70478299 </v>
    <v>       0.63579045       0.11421000       0.70478299 </v>
    <v>       0.63579049       0.61420998       0.70478299 </v>
    <v>       0.36420952       0.38578999       0.70478299 </v>
    <v>       0.36420950       0.88578996       0.70478299 </v>
    <v>       0.86420954       0.38578999       0.70478299 </v>
    <v>       0.86420953       0.88578996       0.70478299 </v>
    <v>       0.11421799       0.36421899       0.70478098 </v>
    <v>       0.11421799       0.86421899       0.70478098 </v>
    <v>       0.61421800       0.36421899       0.70478098 </v>
    <v>       0.61421799       0.86421899       0.70478098 </v>
    <v>       0.38578201       0.13578149       0.70478202 </v>
    <v>       0.38578200       0.63578149       0.70478202 </v>
    <v>       0.88578199       0.13578149       0.70478202 </v>
    <v>       0.88578203       0.63578149       0.70478202 </v>
    <v>       0.13466700       0.11533200       0.80125603 </v>
    <v>       0.13466699       0.61533199       0.80125603 </v>
    <v>       0.63466699       0.11533200       0.80125603 </v>
    <v>       0.63466698       0.61533199       0.80125603 </v>
    <v>       0.36533300       0.38466799       0.80125603 </v>
    <v>       0.36533299       0.88466796       0.80125603 </v>
    <v>       0.86533295       0.38466799       0.80125603 </v>
    <v>       0.86533294       0.88466796       0.80125603 </v>
    <v>       0.11532850       0.36533700       0.80126500 </v>
    <v>       0.11532850       0.86533698       0.80126500 </v>
    <v>       0.61532850       0.36533700       0.80126500 </v>
    <v>       0.61532849       0.86533698       0.80126500 </v>
    <v>       0.38467151       0.13466300       0.80126500 </v>
    <v>       0.38467150       0.63466297       0.80126500 </v>
    <v>       0.88467149       0.13466300       0.80126500 </v>
    <v>       0.88467153       0.63466297       0.80126500 </v>
    <v>       0.99713349       0.00658246       0.60412401 </v>
    <v>       0.01019403       0.50099254       0.60377866 </v>
    <v>       0.50180422       0.99391018       0.60344723 </v>
    <v>       0.49999836       0.50001309       0.60255875 </v>
    <v>       0.25544488       0.24824075       0.60565575 </v>
    <v>       0.24394529       0.75618596       0.60297369 </v>
    <v>       0.74765036       0.25121445       0.60575824 </v>
    <v>       0.75111095       0.75747433       0.60470689 </v>
    <v>       0.00000050       0.00000050       0.70482896 </v>
    <v>       0.00000050       0.50000048       0.70482896 </v>
    <v>       0.50000048       0.00000050       0.70482896 </v>
    <v>       0.50000046       0.50000048       0.70482896 </v>
    <v>       0.24999999       0.24999947       0.70482499 </v>
    <v>       0.25000001       0.74999950       0.70482499 </v>
    <v>       0.74999999       0.24999947       0.70482499 </v>
    <v>       0.74999998       0.74999950       0.70482499 </v>
    <v>       0.00000000       0.00000000       0.80731797 </v>
    <v>       0.00000000       0.50000000       0.80731797 </v>
    <v>       0.50000000       0.00000000       0.80731797 </v>
    <v>       0.49999999       0.50000000       0.80731797 </v>
    <v>       0.24999999       0.25000000       0.80731797 </v>
    <v>       0.25000001       0.74999997       0.80731797 </v>
    <v>       0.74999999       0.25000000       0.80731797 </v>
    <v>       0.74999998       0.74999997       0.80731797 </v>
   </varray>
  </structure>
  <varray name="primitive_index" >
   <v type="int" >        1 </v>
   <v type="int" >        2 </v>
   <v type="int" >        3 </v>
   <v type="int" >        4 </v>
   <v type="int" >        5 </v>
   <v type="int" >        6 </v>
   <v type="int" >        7 </v>
   <v type="int" >        8 </v>
   <v type="int" >        9 </v>
   <v type="int" >       10 </v>
   <v type="int" >       11 </v>
   <v type="int" >       12 </v>
   <v type="int" >       13 </v>
   <v type="int" >       14 </v>
   <v type="int" >       15 </v>
   <v type="int" >       16 </v>
   <v type="int" >       17 </v>
   <v type="int" >       18 </v>
   <v type="int" >       19 </v>
   <v type="int" >       20 </v>
   <v type="int" >       21 </v>
   <v type="int" >       22 </v>
   <v type="int" >       23 </v>
   <v type="int" >       24 </v>
   <v type="int" >       25 </v>
   <v type="int" >       26 </v>
   <v type="int" >       27 </v>
   <v type="int" >       28 </v>
   <v type="int" >       29 </v>
   <v type="int" >       30 </v>
   <v type="int" >       31 </v>
   <v type="int" >       32 </v>
   <v type="int" >       33 </v>
   <v type="int" >       34 </v>
   <v type="int" >       35 </v>
   <v type="int" >       36 </v>
   <v type="int" >       37 </v>
   <v type="int" >       38 </v>
   <v type="int" >       39 </v>
   <v type="int" >       40 </v>
   <v type="int" >       41 </v>
   <v type="int" >       42 </v>
   <v type="int" >       43 </v>
   <v type="int" >       44 </v>
   <v type="int" >       45 </v>
   <v type="int" >       46 </v>
   <v type="int" >       47 </v>
   <v type="int" >       48 </v>
   <v type="int" >       49 </v>
   <v type="int" >       50 </v>
   <v type="int" >       51 </v>
   <v type="int" >       52 </v>
   <v type="int" >       53 </v>
   <v type="int" >       54 </v>
   <v type="int" >       55 </v>
   <v type="int" >       56 </v>
   <v type="int" >       57 </v>
   <v type="int" >       58 </v>
   <v type="int" >       59 </v>
   <v type="int" >       60 </v>
   <v type="int" >       61 </v>
   <v type="int" >       62 </v>
   <v type="int" >       63 </v>
   <v type="int" >       64 </v>
   <v type="int" >       65 </v>
   <v type="int" >       66 </v>
   <v type="int" >       67 </v>
   <v type="int" >       68 </v>
   <v type="int" >       69 </v>
   <v type="int" >       70 </v>
   <v type="int" >       71 </v>
   <v type="int" >       72 </v>
   <v type="int" >       73 </v>
   <v type="int" >       74 </v>
   <v type="int" >       75 </v>
   <v type="int" >       76 </v>
   <v type="int" >       77 </v>
   <v type="int" >       78 </v>
   <v type="int" >       79 </v>
   <v type="int" >       80 </v>
   <v type="int" >       81 </v>
   <v type="int" >       82 </v>
   <v type="int" >       83 </v>
   <v type="int" >       84 </v>
   <v type="int" >       85 </v>
   <v type="int" >       86 </v>
   <v type="int" >       87 </v>
   <v type="int" >       88 </v>
   <v type="int" >       89 </v>
   <v type="int" >       90 </v>
   <v type="int" >       91 </v>
   <v type="int" >       92 </v>
   <v type="int" >       93 </v>
   <v type="int" >       94 </v>
   <v type="int" >       95 </v>
   <v type="int" >       96 </v>
   <v type="int" >       97 </v>
   <v type="int" >       98 </v>
   <v type="int" >       99 </v>
   <v type="int" >      100 </v>
   <v type="int" >      101 </v>
   <v type="int" >      102 </v>
   <v type="int" >      103 </v>
   <v type="int" >      104 </v>
   <v type="int" >      105 </v>
   <v type="int" >      106 </v>
   <v type="int" >      107 </v>
   <v type="int" >      108 </v>
   <v type="int" >      109 </v>
   <v type="int" >      110 </v>
   <v type="int" >      111 </v>
   <v type="int" >      112 </v>
   <v type="int" >      113 </v>
   <v type="int" >      114 </v>
   <v type="int" >      115 </v>
   <v type="int" >      116 </v>
   <v type="int" >      117 </v>
   <v type="int" >      118 </v>
   <v type="int" >      119 </v>
   <v type="int" >      120 </v>
   <v type="int" >      121 </v>
   <v type="int" >      122 </v>
   <v type="int" >      123 </v>
   <v type="int" >      124 </v>
   <v type="int" >      125 </v>
   <v type="int" >      126 </v>
   <v type="int" >      127 </v>
   <v type="int" >      128 </v>
   <v type="int" >      129 </v>
   <v type="int" >      130 </v>
   <v type="int" >      131 </v>
   <v type="int" >      132 </v>
   <v type="int" >      133 </v>
   <v type="int" >      134 </v>
   <v type="int" >      135 </v>
   <v type="int" >      136 </v>
   <v type="int" >      137 </v>
   <v type="int" >      138 </v>
   <v type="int" >      139 </v>
   <v type="int" >      140 </v>
   <v type="int" >      141 </v>
   <v type="int" >      142 </v>
   <v type="int" >      143 </v>
   <v type="int" >      144 </v>
   <v type="int" >      145 </v>
   <v type="int" >      146 </v>
   <v type="int" >      147 </v>
   <v type="int" >      148 </v>
   <v type="int" >      149 </v>
   <v type="int" >      150 </v>
   <v type="int" >      151 </v>
   <v type="int" >      152 </v>
   <v type="int" >      153 </v>
   <v type="int" >      154 </v>
   <v type="int" >      155 </v>
   <v type="int" >      156 </v>
   <v type="int" >      157 </v>
   <v type="int" >      158 </v>
   <v type="int" >      159 </v>
   <v type="int" >      160 </v>
   <v type="int" >      161 </v>
   <v type="int" >      162 </v>
   <v type="int" >      163 </v>
   <v type="int" >      164 </v>
   <v type="int" >      165 </v>
   <v type="int" >      166 </v>
   <v type="int" >      167 </v>
   <v type="int" >      168 </v>
   <v type="int" >      169 </v>
   <v type="int" >      170 </v>
   <v type="int" >      171 </v>
   <v type="int" >      172 </v>
   <v type="int" >      173 </v>
   <v type="int" >      174 </v>
   <v type="int" >      175 </v>
   <v type="int" >      176 </v>
   <v type="int" >      177 </v>
   <v type="int" >      178 </v>
   <v type="int" >      179 </v>
   <v type="int" >      180 </v>
   <v type="int" >      181 </v>
   <v type="int" >      182 </v>
   <v type="int" >      183 </v>
   <v type="int" >      184 </v>
   <v type="int" >      185 </v>
   <v type="int" >      186 </v>
   <v type="int" >      187 </v>
   <v type="int" >      188 </v>
   <v type="int" >      189 </v>
   <v type="int" >      190 </v>
   <v type="int" >      191 </v>
   <v type="int" >      192 </v>
   <v type="int" >      193 </v>
   <v type="int" >      194 </v>
   <v type="int" >      195 </v>
   <v type="int" >      196 </v>
   <v type="int" >      197 </v>
   <v type="int" >      198 </v>
   <v type="int" >      199 </v>
   <v type="int" >      200 </v>
   <v type="int" >      201 </v>
   <v type="int" >      202 </v>
   <v type="int" >      203 </v>
   <v type="int" >      204 </v>
   <v type="int" >      205 </v>
   <v type="int" >      206 </v>
   <v type="int" >      207 </v>
   <v type="int" >      208 </v>
   <v type="int" >      209 </v>
   <v type="int" >      210 </v>
   <v type="int" >      211 </v>
   <v type="int" >      212 </v>
   <v type="int" >      213 </v>
   <v type="int" >      214 </v>
   <v type="int" >      215 </v>
   <v type="int" >      216 </v>
   <v type="int" >      217 </v>
   <v type="int" >      218 </v>
   <v type="int" >      219 </v>
   <v type="int" >      220 </v>
   <v type="int" >      221 </v>
   <v type="int" >      222 </v>
   <v type="int" >      223 </v>
   <v type="int" >      224 </v>
   <v type="int" >      225 </v>
   <v type="int" >      226 </v>
   <v type="int" >      227 </v>
   <v type="int" >      228 </v>
   <v type="int" >      229 </v>
   <v type="int" >      230 </v>
   <v type="int" >      231 </v>
   <v type="int" >      232 </v>
   <v type="int" >      233 </v>
   <v type="int" >      234 </v>
   <v type="int" >      235 </v>
   <v type="int" >      236 </v>
   <v type="int" >      237 </v>
   <v type="int" >      238 </v>
   <v type="int" >      239 </v>
   <v type="int" >      240 </v>
   <v type="int" >      241 </v>
   <v type="int" >      242 </v>
   <v type="int" >      243 </v>
   <v type="int" >      244 </v>
   <v type="int" >      245 </v>
   <v type="int" >      246 </v>
   <v type="int" >      247 </v>
   <v type="int" >      248 </v>
   <v type="int" >      249 </v>
   <v type="int" >      250 </v>
   <v type="int" >      251 </v>
   <v type="int" >      252 </v>
   <v type="int" >      253 </v>
   <v type="int" >      254 </v>
   <v type="int" >      255 </v>
   <v type="int" >      256 </v>
   <v type="int" >      257 </v>
   <v type="int" >      258 </v>
   <v type="int" >      259 </v>
   <v type="int" >      260 </v>
   <v type="int" >      261 </v>
   <v type="int" >      262 </v>
   <v type="int" >      263 </v>
   <v type="int" >      264 </v>
   <v type="int" >      265 </v>
   <v type="int" >      266 </v>
   <v type="int" >      267 </v>
   <v type="int" >      268 </v>
   <v type="int" >      269 </v>
   <v type="int" >      270 </v>
   <v type="int" >      271 </v>
   <v type="int" >      272 </v>
   <v type="int" >      273 </v>
   <v type="int" >      274 </v>
   <v type="int" >      275 </v>
   <v type="int" >      276 </v>
   <v type="int" >      277 </v>
   <v type="int" >      278 </v>
   <v type="int" >      279 </v>
   <v type="int" >      280 </v>
   <v type="int" >      281 </v>
   <v type="int" >      282 </v>
   <v type="int" >      283 </v>
   <v type="int" >      284 </v>
   <v type="int" >      285 </v>
   <v type="int" >      286 </v>
   <v type="int" >      287 </v>
   <v type="int" >      288 </v>
   <v type="int" >      289 </v>
   <v type="int" >      290 </v>
   <v type="int" >      291 </v>
   <v type="int" >      292 </v>
   <v type="int" >      293 </v>
   <v type="int" >      294 </v>
   <v type="int" >      295 </v>
   <v type="int" >      296 </v>
   <v type="int" >      297 </v>
   <v type="int" >      298 </v>
   <v type="int" >      299 </v>
   <v type="int" >      300 </v>
   <v type="int" >      301 </v>
   <v type="int" >      302 </v>
   <v type="int" >      303 </v>
   <v type="int" >      304 </v>
   <v type="int" >      305 </v>
   <v type="int" >      306 </v>
   <v type="int" >      307 </v>
   <v type="int" >      308 </v>
   <v type="int" >      309 </v>
   <v type="int" >      310 </v>
   <v type="int" >      311 </v>
   <v type="int" >      312 </v>
   <v type="int" >      313 </v>
   <v type="int" >      314 </v>
   <v type="int" >      315 </v>
   <v type="int" >      316 </v>
   <v type="int" >      317 </v>
   <v type="int" >      318 </v>
   <v type="int" >      319 </v>
   <v type="int" >      320 </v>
   <v type="int" >      321 </v>
   <v type="int" >      322 </v>
   <v type="int" >      323 </v>
   <v type="int" >      324 </v>
   <v type="int" >      325 </v>
  </varray>
 </primitive_cell>
 <kpoints>
  <generation param="Gamma">
   <v type="int" name="divisions">       3        3        1 </v>
   <v name="usershift">      0.00000000       0.00000000       0.00000000 </v>
   <v name="genvec1">      0.33333333       0.00000000       0.00000000 </v>
   <v name="genvec2">      0.00000000       0.33333333       0.00000000 </v>
   <v name="genvec3">      0.00000000       0.00000000       1.00000000 </v>
   <v name="shift">      0.00000000       0.00000000       0.00000000 </v>
  </generation>
  <varray name="kpointlist" >
   <v>       0.00000000       0.00000000       0.00000000 </v>
   <v>       0.33333333       0.00000000       0.00000000 </v>
   <v>       0.00000000       0.33333333       0.00000000 </v>
   <v>       0.33333333       0.33333333       0.00000000 </v>
   <v>      -0.33333333       0.33333333       0.00000000 </v>
  </varray>
  <varray name="weights" >
   <v>       0.11111111 </v>
   <v>       0.22222222 </v>
   <v>       0.22222222 </v>
   <v>       0.22222222 </v>
   <v>       0.22222222 </v>
  </varray>
 </kpoints>
 <parameters>
  <separator name="general" >
   <i type="string" name="SYSTEM">PSC</i>
   <i type="logical" name="LCOMPAT"> F  </i>
  </separator>
  <separator name="electronic" >
   <i type="string" name="PREC">normal</i>
   <i name="ENMAX">    500.00000000</i>
   <i name="ENAUG">    644.87300000</i>
   <i name="EDIFF">      0.00010000</i>
   <i type="int" name="IALGO">    38</i>
   <i type="int" name="IWAVPR">    10</i>
   <i type="int" name="NBANDS">   732</i>
   <i type="int" name="NBANDSLOW">    -1</i>
   <i type="int" name="NBANDSHIGH">    -1</i>
   <i name="NELECT">   1134.00000000</i>
   <i type="int" name="TURBO">     0</i>
   <i type="int" name="IRESTART">     0</i>
   <i type="int" name="NREBOOT">     0</i>
   <i type="int" name="NMIN">     0</i>
   <i name="EREF">      0.00000000</i>
   <separator name="electronic smearing" >
    <i type="int" name="ISMEAR">     0</i>
    <i name="SIGMA">      0.05000000</i>
    <i name="KSPACING">      0.50000000</i>
    <i type="logical" name="KGAMMA"> T  </i>
    <i type="logical" name="KBLOWUP"> T  </i>
   </separator>
   <separator name="electronic projectors" >
    <i type="logical" name="LREAL"> T  </i>
    <v name="ROPT">     -0.00050000     -0.00050000     -0.00050000     -0.00050000     -0.00050000</v>
    <i type="int" name="LMAXPAW">  -100</i>
    <i type="int" name="LMAXMIX">     2</i>
    <i type="logical" name="NLSPLINE"> F  </i>
   </separator>
   <separator name="electronic startup" >
    <i type="int" name="ISTART">     0</i>
    <i type="int" name="ICHARG">     1</i>
    <i type="int" name="INIWAV">     1</i>
   </separator>
   <separator name="electronic spin" >
    <i type="int" name="ISPIN">     1</i>
    <i type="logical" name="LNONCOLLINEAR"> F  </i>
    <v name="MAGMOM">      1.00000000      1.00000000      1.00000000      1.00000000      1.00000000      1.00000000      1.00000000      1.00000000      1.00000000      1.00000000      1.00000000      1.00000000      1.00000000      1.00000000      1.00000000      1.00000000      1.00000000      1.00000000      1.00000000      1.00000000
      1.00000000      1.00000000      1.00000000      1.00000000      1.00000000      1.00000000      1.00000000      1.00000000      1.00000000      1.00000000      1.00000000      1.00000000      1.00000000      1.00000000      1.00000000      1.00000000      1.00000000      1.00000000      1.00000000      1.00000000
      1.00000000      1.00000000      1.00000000      1.00000000      1.00000000      1.00000000      1.00000000      1.00000000      1.00000000      1.00000000      1.00000000      1.00000000      1.00000000      1.00000000      1.00000000      1.00000000      1.00000000      1.00000000      1.00000000      1.00000000
      1.00000000      1.00000000      1.00000000      1.00000000      1.00000000      1.00000000      1.00000000      1.00000000      1.00000000      1.00000000      1.00000000      1.00000000      1.00000000      1.00000000      1.00000000      1.00000000      1.00000000      1.00000000      1.00000000      1.00000000
      1.00000000      1.00000000      1.00000000      1.00000000      1.00000000      1.00000000      1.00000000      1.00000000      1.00000000      1.00000000      1.00000000      1.00000000      1.00000000      1.00000000      1.00000000      1.00000000      1.00000000      1.00000000      1.00000000      1.00000000
      1.00000000      1.00000000      1.00000000      1.00000000      1.00000000      1.00000000      1.00000000      1.00000000      1.00000000      1.00000000      1.00000000      1.00000000      1.00000000      1.00000000      1.00000000      1.00000000      1.00000000      1.00000000      1.00000000      1.00000000
      1.00000000      1.00000000      1.00000000      1.00000000      1.00000000      1.00000000      1.00000000      1.00000000      1.00000000      1.00000000      1.00000000      1.00000000      1.00000000      1.00000000      1.00000000      1.00000000      1.00000000      1.00000000      1.00000000      1.00000000
      1.00000000      1.00000000      1.00000000      1.00000000      1.00000000      1.00000000      1.00000000      1.00000000      1.00000000      1.00000000      1.00000000      1.00000000      1.00000000      1.00000000      1.00000000      1.00000000      1.00000000      1.00000000      1.00000000      1.00000000
      1.00000000      1.00000000      1.00000000      1.00000000      1.00000000      1.00000000      1.00000000      1.00000000      1.00000000      1.00000000      1.00000000      1.00000000      1.00000000      1.00000000      1.00000000      1.00000000      1.00000000      1.00000000      1.00000000      1.00000000
      1.00000000      1.00000000      1.00000000      1.00000000      1.00000000      1.00000000      1.00000000      1.00000000      1.00000000      1.00000000      1.00000000      1.00000000      1.00000000      1.00000000      1.00000000      1.00000000      1.00000000      1.00000000      1.00000000      1.00000000
      1.00000000      1.00000000      1.00000000      1.00000000      1.00000000      1.00000000      1.00000000      1.00000000      1.00000000      1.00000000      1.00000000      1.00000000      1.00000000      1.00000000      1.00000000      1.00000000      1.00000000      1.00000000      1.00000000      1.00000000
      1.00000000      1.00000000      1.00000000      1.00000000      1.00000000      1.00000000      1.00000000      1.00000000      1.00000000      1.00000000      1.00000000      1.00000000      1.00000000      1.00000000      1.00000000      1.00000000      1.00000000      1.00000000      1.00000000      1.00000000
      1.00000000      1.00000000      1.00000000      1.00000000      1.00000000      1.00000000      1.00000000      1.00000000      1.00000000      1.00000000      1.00000000      1.00000000      1.00000000      1.00000000      1.00000000      1.00000000      1.00000000      1.00000000      1.00000000      1.00000000
      1.00000000      1.00000000      1.00000000      1.00000000      1.00000000      1.00000000      1.00000000      1.00000000      1.00000000      1.00000000      1.00000000      1.00000000      1.00000000      1.00000000      1.00000000      1.00000000      1.00000000      1.00000000      1.00000000      1.00000000
      1.00000000      1.00000000      1.00000000      1.00000000      1.00000000      1.00000000      1.00000000      1.00000000      1.00000000      1.00000000      1.00000000      1.00000000      1.00000000      1.00000000      1.00000000      1.00000000      1.00000000      1.00000000      1.00000000      1.00000000
      1.00000000      1.00000000      1.00000000      1.00000000      1.00000000      1.00000000      1.00000000      1.00000000      1.00000000      1.00000000      1.00000000      1.00000000      1.00000000      1.00000000      1.00000000      1.00000000      1.00000000      1.00000000      1.00000000      1.00000000
      1.00000000      1.00000000      1.00000000      1.00000000      1.00000000</v>
    <i name="NUPDOWN">     -1.00000000</i>
    <i type="logical" name="LSORBIT"> F  </i>
    <v name="SAXIS">      0.00000000      0.00000000      1.00000000</v>
    <i type="logical" name="LSPIRAL"> F  </i>
    <v name="QSPIRAL">      0.00000000      0.00000000      0.00000000</v>
    <i type="logical" name="LZEROZ"> F  </i>
   </separator>
   <separator name="electronic exchange-correlation" >
    <i type="logical" name="LASPH"> F  </i>
    <i type="logical" name="LMETAGGA"> F  </i>
   </separator>
   <separator name="electronic convergence" >
    <i type="int" name="NELM">   600</i>
    <i type="int" name="NELMDL">     0</i>
    <i type="int" name="NELMIN">     2</i>
    <i name="ENINI">    500.00000000</i>
    <separator name="electronic convergence detail" >
     <i type="logical" name="LDIAG"> T  </i>
     <i type="logical" name="LSUBROT"> F  </i>
     <i name="WEIMIN">      0.00000000</i>
     <i name="EBREAK">      0.00000003</i>
     <i name="DEPER">      0.30000000</i>
     <i type="int" name="NRMM">     4</i>
     <i name="TIME">      0.40000000</i>
    </separator>
   </separator>
   <separator name="electronic mixer" >
    <i name="AMIX">      0.40000000</i>
    <i name="BMIX">      0.01000000</i>
    <i name="AMIN">      0.01000000</i>
    <i name="AMIX_MAG">      1.60000000</i>
    <i name="BMIX_MAG">      0.01000000</i>
    <separator name="electronic mixer details" >
     <i type="int" name="IMIX">     4</i>
     <i type="logical" name="MIXFIRST"> F  </i>
     <i type="int" name="MAXMIX">   -45</i>
     <i name="WC">    100.00000000</i>
     <i type="int" name="INIMIX">     1</i>
     <i type="int" name="MIXPRE">     1</i>
     <i type="int" name="MREMOVE">     5</i>
    </separator>
   </separator>
   <separator name="electronic dipolcorrection" >
    <i type="logical" name="LDIPOL"> T  </i>
    <i type="logical" name="LMONO"> F  </i>
    <i type="int" name="IDIPOL">     3</i>
    <i name="EPSILON">      1.00000000</i>
    <v name="DIPOL">   -100.00000000   -100.00000000   -100.00000000</v>
    <i name="EFIELD">      0.00000000</i>
   </separator>
  </separator>
  <separator name="grids" >
   <i type="int" name="NGX">   100</i>
   <i type="int" name="NGY">   100</i>
   <i type="int" name="NGZ">   350</i>
   <i type="int" name="NGXF">   200</i>
   <i type="int" name="NGYF">   200</i>
   <i type="int" name="NGZF">   700</i>
   <i type="logical" name="ADDGRID"> F  </i>
  </separator>
  <separator name="ionic" >
   <i type="int" name="NSW">     0</i>
   <i type="int" name="IBRION">    -1</i>
   <i type="int" name="MDALGO">     0</i>
   <i type="int" name="ISIF">     2</i>
   <i name="PSTRESS">      0.00000000</i>
   <i name="EDIFFG">      0.00100000</i>
   <i type="int" name="NFREE">     0</i>
   <i name="POTIM">      0.50000000</i>
   <i name="SMASS">     -3.00000000</i>
   <i name="SCALEE">      1.00000000</i>
  </separator>
  <separator name="ionic md" >
   <i name="TEBEG">      0.00010000</i>
   <i name="TEEND">      0.00010000</i>
   <i type="int" name="NBLOCK">     1</i>
   <i type="int" name="KBLOCK">     1</i>
   <i type="int" name="NPACO">   256</i>
   <i name="APACO">     16.00000000</i>
  </separator>
  <separator name="symmetry" >
   <i type="int" name="ISYM">     0</i>
   <i name="SYMPREC">      0.00001000</i>
  </separator>
  <separator name="dos" >
   <i type="int" name="LORBIT">     0</i>
   <v name="RWIGS">     -1.00000000     -1.00000000     -1.00000000     -1.00000000     -1.00000000</v>
   <i type="int" name="NEDOS">   301</i>
   <i name="EMIN">     10.00000000</i>
   <i name="EMAX">    -10.00000000</i>
   <i name="EFERMI">      0.00000000</i>
  </separator>
  <separator name="writing" >
   <i type="int" name="NWRITE">     2</i>
   <i type="logical" name="LWAVE"> F  </i>
   <i type="logical" name="LDOWNSAMPLE"> F  </i>
   <i type="logical" name="LCHARG"> T  </i>
   <i type="logical" name="LPARD"> F  </i>
   <i type="logical" name="LVTOT"> T  </i>
   <i type="logical" name="LVHAR"> F  </i>
   <i type="logical" name="LELF"> F  </i>
   <i type="logical" name="LOPTICS"> F  </i>
   <v name="STM">      0.00000000      0.00000000      0.00000000      0.00000000      0.00000000      0.00000000      0.00000000</v>
  </separator>
  <separator name="performance" >
   <i type="int" name="NPAR">     4</i>
   <i type="int" name="NSIM">     4</i>
   <i type="int" name="NBLK">    -1</i>
   <i type="logical" name="LPLANE"> T  </i>
   <i type="logical" name="LSCALAPACK"> T  </i>
   <i type="logical" name="LSCAAWARE"> F  </i>
   <i type="logical" name="LSCALU"> F  </i>
   <i type="logical" name="LASYNC"> F  </i>
   <i type="logical" name="LORBITALREAL"> F  </i>
  </separator>
  <separator name="miscellaneous" >
   <i type="int" name="IDIOT">     3</i>
   <i type="int" name="PHON_NSTRUCT">    -1</i>
   <i type="logical" name="LMUSIC"> F  </i>
   <v name="POMASS">      1.00000000     12.01100000     14.00100000    126.90400000    207.20000000</v>
   <v name="DARWINR">      0.00000000      0.00000000      0.00000000      0.00000000      0.00000000</v>
   <v name="DARWINV">      1.00000000      1.00000000      1.00000000      1.00000000      1.00000000</v>
   <i type="logical" name="LCORR"> T  </i>
  </separator>
  <i type="logical" name="GGA_COMPAT"> F  </i>
  <i type="logical" name="LBERRY"> F  </i>
  <i type="int" name="ICORELEVEL">     0</i>
  <i type="logical" name="LDAU"> F  </i>
  <i type="int" name="I_CONSTRAINED_M">     0</i>
  <separator name="electronic exchange-correlation" >
   <i type="string" name="GGA">--</i>
   <i type="int" name="VOSKOWN">     0</i>
   <i type="logical" name="LHFCALC"> F  </i>
   <i type="string" name="PRECFOCK"></i>
   <i type="logical" name="LSYMGRAD"> F  </i>
   <i type="logical" name="LHFONE"> F  </i>
   <i type="logical" name="LRHFCALC"> F  </i>
   <i type="logical" name="LTHOMAS"> F  </i>
   <i type="logical" name="LMODELHF"> F  </i>
   <i type="logical" name="LFOCKACE"> F  </i>
   <i name="ENCUT4O">     -1.00000000</i>
   <i type="int" name="EXXOEP">     0</i>
   <i type="int" name="FOURORBIT">     0</i>
   <i name="AEXX">      0.00000000</i>
   <i name="HFALPHA">      0.00000000</i>
   <i name="MCALPHA">      0.00000000</i>
   <i name="ALDAX">      1.00000000</i>
   <i name="AGGAX">      1.00000000</i>
   <i name="ALDAC">      1.00000000</i>
   <i name="AGGAC">      1.00000000</i>
   <i type="int" name="NKREDX">     1</i>
   <i type="int" name="NKREDY">     1</i>
   <i type="int" name="NKREDZ">     1</i>
   <i type="logical" name="SHIFTRED"> F  </i>
   <i type="logical" name="ODDONLY"> F  </i>
   <i type="logical" name="EVENONLY"> F  </i>
   <i type="int" name="LMAXFOCK">     0</i>
   <i type="int" name="NMAXFOCKAE">     0</i>
   <i type="logical" name="LFOCKAEDFT"> F  </i>
   <i name="HFSCREEN">      0.00000000</i>
   <i name="HFSCREENC">      0.00000000</i>
   <i type="int" name="NBANDSGWLOW">     0</i>
  </separator>
  <separator name="vdW DFT" >
   <i type="logical" name="LUSE_VDW"> F  </i>
   <i name="Zab_VDW">     -0.84910000</i>
   <i name="PARAM1">      0.12340000</i>
   <i name="PARAM2">      1.00000000</i>
   <i name="PARAM3">      0.00000000</i>
  </separator>
  <separator name="model GW" >
   <i type="int" name="MODEL_GW">     0</i>
   <i name="MODEL_EPS0">     37.63423484</i>
   <i name="MODEL_ALPHA">      1.00000000</i>
  </separator>
  <separator name="linear response parameters" >
   <i type="logical" name="LEPSILON"> F  </i>
   <i type="logical" name="LRPA"> F  </i>
   <i type="logical" name="LNABLA"> F  </i>
   <i type="logical" name="LVEL"> F  </i>
   <i type="int" name="KINTER">     0</i>
   <i name="CSHIFT">      0.10000000</i>
   <i name="OMEGAMAX">     -1.00000000</i>
   <i name="DEG_THRESHOLD">      0.00200000</i>
   <i name="RTIME">     -0.10000000</i>
   <i name="WPLASMAI">      0.00000000</i>
   <v name="DFIELD">      0.00000000      0.00000000      0.00000000</v>
   <v name="WPLASMA">      0.00000000      0.00000000      0.00000000      0.00000000      0.00000000      0.00000000      0.00000000      0.00000000      0.00000000</v>
  </separator>
  <separator name="orbital magnetization" >
   <i type="logical" name="NUCIND"> F  </i>
   <v name="MAGPOS">      0.00000000      0.00000000      0.00000000</v>
   <i type="logical" name="LNICSALL"> T  </i>
   <i type="logical" name="ORBITALMAG"> F  </i>
   <i type="logical" name="LMAGBLOCH"> F  </i>
   <i type="logical" name="LCHIMAG"> F  </i>
   <i type="logical" name="LGAUGE"> T  </i>
   <i type="int" name="MAGATOM">     0</i>
   <v name="MAGDIPOL">      0.00000000      0.00000000      0.00000000</v>
   <v name="AVECCONST">      0.00000000      0.00000000      0.00000000</v>
  </separator>
  <separator name="response functions" >
   <i type="logical" name="LFINITE_TEMPERATURE"> F  </i>
   <i type="logical" name="LADDER"> F  </i>
   <i type="logical" name="LRPAFORCE"> F  </i>
   <i type="logical" name="LFXC"> F  </i>
   <i type="logical" name="LHARTREE"> T  </i>
   <i type="int" name="IBSE">     0</i>
   <v type="int" name="KPOINT">    -1     0     0     0</v>
   <i type="logical" name="LTCTC"> F  </i>
   <i type="logical" name="LTCTE"> F  </i>
   <i type="logical" name="LTETE"> F  </i>
   <i type="logical" name="LTRIPLET"> F  </i>
   <i type="logical" name="LFXCEPS"> F  </i>
   <i type="logical" name="LFXHEG"> F  </i>
   <i type="int" name="NATURALO">     2</i>
   <i type="logical" name="LHOLEGF"> F  </i>
   <i type="logical" name="L2ORDER"> F  </i>
   <i type="logical" name="LDMP1"> F  </i>
   <i type="logical" name="LMP2LT"> F  </i>
   <i type="logical" name="LSMP2LT"> F  </i>
   <i type="logical" name="LGWLF"> F  </i>
   <i name="ENCUTGW">     -2.00000000</i>
   <i name="ENCUTGWSOFT">     -2.00000000</i>
   <i name="ENCUTLF">     -1.00000000</i>
   <i type="logical" name="LESF_SPLINES"> F  </i>
   <i type="int" name="LMAXMP2">    -1</i>
   <i name="SCISSOR">      0.00000000</i>
   <i type="int" name="NOMEGA">     0</i>
   <i type="int" name="NOMEGAR">     0</i>
   <i type="int" name="NBANDSGW">    -1</i>
   <i type="int" name="NBANDSO">    -1</i>
   <i type="int" name="NBANDSV">    -1</i>
   <i type="int" name="NELM">   600</i>
   <i type="int" name="NELMHF">     1</i>
   <i type="int" name="DIM">     3</i>
   <i type="int" name="IESPILON">     4</i>
   <i type="int" name="ANTIRES">     0</i>
   <i name="OMEGAMAX">    -30.00000000</i>
   <i name="OMEGAMIN">    -30.00000000</i>
   <i name="OMEGATL">   -200.00000000</i>
   <i type="int" name="OMEGAGRID">     0</i>
   <i name="CSHIFT">     -0.10000000</i>
   <i type="logical" name="LSELFENERGY"> F  </i>
   <i type="logical" name="LSPECTRAL"> F  </i>
   <i type="logical" name="LSPECTRALGW"> F  </i>
   <i type="logical" name="LSINGLES"> F  </i>
   <i type="logical" name="LFERMIGW"> F  </i>
   <i type="logical" name="ODDONLYGW"> F  </i>
   <i type="logical" name="EVENONLYGW"> F  </i>
   <i type="int" name="NKREDLFX">     1</i>
   <i type="int" name="NKREDLFY">     1</i>
   <i type="int" name="NKREDLFZ">     1</i>
   <i type="int" name="MAXMEM">  2800</i>
   <i type="int" name="TELESCOPE">     0</i>
   <i type="int" name="NTAUPAR">    -1</i>
   <i type="int" name="NOMEGAPAR">    -1</i>
   <i name="DAMP_NEWTON">      0.80000001</i>
   <i name="LAMBDA">      1.00000000</i>
  </separator>
  <separator name="External order field" >
   <i name="OFIELD_KAPPA">      0.00000000</i>
   <v name="OFIELD_K">      0.00000000      0.00000000      0.00000000</v>
   <i name="OFIELD_Q6_NEAR">      0.00000000</i>
   <i name="OFIELD_Q6_FAR">      0.00000000</i>
   <i name="OFIELD_A">      0.00000000</i>
  </separator>
 </parameters>
 <atominfo>
  <atoms>     325 </atoms>
  <types>       5 </types>
  <array name="atoms" >
   <dimension dim="1">ion</dimension>
   <field type="string">element</field>
   <field type="int">atomtype</field>
   <set>
    <rc><c>H </c><c>   1</c></rc>
    <rc><c>H </c><c>   1</c></rc>
    <rc><c>H </c><c>   1</c></rc>
    <rc><c>H </c><c>   1</c></rc>
    <rc><c>H </c><c>   1</c></rc>
    <rc><c>H </c><c>   1</c></rc>
    <rc><c>H </c><c>   1</c></rc>
    <rc><c>H </c><c>   1</c></rc>
    <rc><c>H </c><c>   1</c></rc>
    <rc><c>H </c><c>   1</c></rc>
    <rc><c>H </c><c>   1</c></rc>
    <rc><c>H </c><c>   1</c></rc>
    <rc><c>H </c><c>   1</c></rc>
    <rc><c>H </c><c>   1</c></rc>
    <rc><c>H </c><c>   1</c></rc>
    <rc><c>H </c><c>   1</c></rc>
    <rc><c>H </c><c>   1</c></rc>
    <rc><c>H </c><c>   1</c></rc>
    <rc><c>H </c><c>   1</c></rc>
    <rc><c>H </c><c>   1</c></rc>
    <rc><c>H </c><c>   1</c></rc>
    <rc><c>H </c><c>   1</c></rc>
    <rc><c>H </c><c>   1</c></rc>
    <rc><c>H </c><c>   1</c></rc>
    <rc><c>H </c><c>   1</c></rc>
    <rc><c>H </c><c>   1</c></rc>
    <rc><c>H </c><c>   1</c></rc>
    <rc><c>H </c><c>   1</c></rc>
    <rc><c>H </c><c>   1</c></rc>
    <rc><c>H </c><c>   1</c></rc>
    <rc><c>H </c><c>   1</c></rc>
    <rc><c>H </c><c>   1</c></rc>
    <rc><c>H </c><c>   1</c></rc>
    <rc><c>H </c><c>   1</c></rc>
    <rc><c>H </c><c>   1</c></rc>
    <rc><c>H </c><c>   1</c></rc>
    <rc><c>H </c><c>   1</c></rc>
    <rc><c>H </c><c>   1</c></rc>
    <rc><c>H </c><c>   1</c></rc>
    <rc><c>H </c><c>   1</c></rc>
    <rc><c>H </c><c>   1</c></rc>
    <rc><c>H </c><c>   1</c></rc>
    <rc><c>H </c><c>   1</c></rc>
    <rc><c>H </c><c>   1</c></rc>
    <rc><c>H </c><c>   1</c></rc>
    <rc><c>H </c><c>   1</c></rc>
    <rc><c>H </c><c>   1</c></rc>
    <rc><c>H </c><c>   1</c></rc>
    <rc><c>H </c><c>   1</c></rc>
    <rc><c>H </c><c>   1</c></rc>
    <rc><c>H </c><c>   1</c></rc>
    <rc><c>H </c><c>   1</c></rc>
    <rc><c>H </c><c>   1</c></rc>
    <rc><c>H </c><c>   1</c></rc>
    <rc><c>H </c><c>   1</c></rc>
    <rc><c>H </c><c>   1</c></rc>
    <rc><c>H </c><c>   1</c></rc>
    <rc><c>H </c><c>   1</c></rc>
    <rc><c>H </c><c>   1</c></rc>
    <rc><c>H </c><c>   1</c></rc>
    <rc><c>H </c><c>   1</c></rc>
    <rc><c>H </c><c>   1</c></rc>
    <rc><c>H </c><c>   1</c></rc>
    <rc><c>H </c><c>   1</c></rc>
    <rc><c>H </c><c>   1</c></rc>
    <rc><c>H </c><c>   1</c></rc>
    <rc><c>H </c><c>   1</c></rc>
    <rc><c>H </c><c>   1</c></rc>
    <rc><c>H </c><c>   1</c></rc>
    <rc><c>H </c><c>   1</c></rc>
    <rc><c>H </c><c>   1</c></rc>
    <rc><c>H </c><c>   1</c></rc>
    <rc><c>H </c><c>   1</c></rc>
    <rc><c>H </c><c>   1</c></rc>
    <rc><c>H </c><c>   1</c></rc>
    <rc><c>H </c><c>   1</c></rc>
    <rc><c>H </c><c>   1</c></rc>
    <rc><c>H </c><c>   1</c></rc>
    <rc><c>H </c><c>   1</c></rc>
    <rc><c>H </c><c>   1</c></rc>
    <rc><c>H </c><c>   1</c></rc>
    <rc><c>H </c><c>   1</c></rc>
    <rc><c>H </c><c>   1</c></rc>
    <rc><c>H </c><c>   1</c></rc>
    <rc><c>H </c><c>   1</c></rc>
    <rc><c>H </c><c>   1</c></rc>
    <rc><c>H </c><c>   1</c></rc>
    <rc><c>H </c><c>   1</c></rc>
    <rc><c>H </c><c>   1</c></rc>
    <rc><c>H </c><c>   1</c></rc>
    <rc><c>H </c><c>   1</c></rc>
    <rc><c>H </c><c>   1</c></rc>
    <rc><c>H </c><c>   1</c></rc>
    <rc><c>H </c><c>   1</c></rc>
    <rc><c>H </c><c>   1</c></rc>
    <rc><c>H </c><c>   1</c></rc>
    <rc><c>H </c><c>   1</c></rc>
    <rc><c>H </c><c>   1</c></rc>
    <rc><c>H </c><c>   1</c></rc>
    <rc><c>H </c><c>   1</c></rc>
    <rc><c>H </c><c>   1</c></rc>
    <rc><c>H </c><c>   1</c></rc>
    <rc><c>H </c><c>   1</c></rc>
    <rc><c>H </c><c>   1</c></rc>
    <rc><c>H </c><c>   1</c></rc>
    <rc><c>H </c><c>   1</c></rc>
    <rc><c>H </c><c>   1</c></rc>
    <rc><c>H </c><c>   1</c></rc>
    <rc><c>H </c><c>   1</c></rc>
    <rc><c>H </c><c>   1</c></rc>
    <rc><c>H </c><c>   1</c></rc>
    <rc><c>H </c><c>   1</c></rc>
    <rc><c>H </c><c>   1</c></rc>
    <rc><c>H </c><c>   1</c></rc>
    <rc><c>H </c><c>   1</c></rc>
    <rc><c>H </c><c>   1</c></rc>
    <rc><c>H </c><c>   1</c></rc>
    <rc><c>H </c><c>   1</c></rc>
    <rc><c>H </c><c>   1</c></rc>
    <rc><c>H </c><c>   1</c></rc>
    <rc><c>H </c><c>   1</c></rc>
    <rc><c>H </c><c>   1</c></rc>
    <rc><c>H </c><c>   1</c></rc>
    <rc><c>H </c><c>   1</c></rc>
    <rc><c>H </c><c>   1</c></rc>
    <rc><c>H </c><c>   1</c></rc>
    <rc><c>H </c><c>   1</c></rc>
    <rc><c>H </c><c>   1</c></rc>
    <rc><c>H </c><c>   1</c></rc>
    <rc><c>H </c><c>   1</c></rc>
    <rc><c>H </c><c>   1</c></rc>
    <rc><c>H </c><c>   1</c></rc>
    <rc><c>H </c><c>   1</c></rc>
    <rc><c>H </c><c>   1</c></rc>
    <rc><c>H </c><c>   1</c></rc>
    <rc><c>H </c><c>   1</c></rc>
    <rc><c>H </c><c>   1</c></rc>
    <rc><c>H </c><c>   1</c></rc>
    <rc><c>H </c><c>   1</c></rc>
    <rc><c>H </c><c>   1</c></rc>
    <rc><c>H </c><c>   1</c></rc>
    <rc><c>H </c><c>   1</c></rc>
    <rc><c>H </c><c>   1</c></rc>
    <rc><c>C </c><c>   2</c></rc>
    <rc><c>C </c><c>   2</c></rc>
    <rc><c>C </c><c>   2</c></rc>
    <rc><c>C </c><c>   2</c></rc>
    <rc><c>C </c><c>   2</c></rc>
    <rc><c>C </c><c>   2</c></rc>
    <rc><c>C </c><c>   2</c></rc>
    <rc><c>C </c><c>   2</c></rc>
    <rc><c>C </c><c>   2</c></rc>
    <rc><c>C </c><c>   2</c></rc>
    <rc><c>C </c><c>   2</c></rc>
    <rc><c>C </c><c>   2</c></rc>
    <rc><c>C </c><c>   2</c></rc>
    <rc><c>C </c><c>   2</c></rc>
    <rc><c>C </c><c>   2</c></rc>
    <rc><c>C </c><c>   2</c></rc>
    <rc><c>C </c><c>   2</c></rc>
    <rc><c>C </c><c>   2</c></rc>
    <rc><c>C </c><c>   2</c></rc>
    <rc><c>C </c><c>   2</c></rc>
    <rc><c>C </c><c>   2</c></rc>
    <rc><c>C </c><c>   2</c></rc>
    <rc><c>C </c><c>   2</c></rc>
    <rc><c>C </c><c>   2</c></rc>
    <rc><c>C </c><c>   2</c></rc>
    <rc><c>C </c><c>   2</c></rc>
    <rc><c>C </c><c>   2</c></rc>
    <rc><c>C </c><c>   2</c></rc>
    <rc><c>C </c><c>   2</c></rc>
    <rc><c>C </c><c>   2</c></rc>
    <rc><c>C </c><c>   2</c></rc>
    <rc><c>C </c><c>   2</c></rc>
    <rc><c>C </c><c>   2</c></rc>
    <rc><c>C </c><c>   2</c></rc>
    <rc><c>C </c><c>   2</c></rc>
    <rc><c>C </c><c>   2</c></rc>
    <rc><c>C </c><c>   2</c></rc>
    <rc><c>C </c><c>   2</c></rc>
    <rc><c>C </c><c>   2</c></rc>
    <rc><c>N </c><c>   3</c></rc>
    <rc><c>N </c><c>   3</c></rc>
    <rc><c>N </c><c>   3</c></rc>
    <rc><c>N </c><c>   3</c></rc>
    <rc><c>N </c><c>   3</c></rc>
    <rc><c>N </c><c>   3</c></rc>
    <rc><c>N </c><c>   3</c></rc>
    <rc><c>N </c><c>   3</c></rc>
    <rc><c>N </c><c>   3</c></rc>
    <rc><c>N </c><c>   3</c></rc>
    <rc><c>N </c><c>   3</c></rc>
    <rc><c>N </c><c>   3</c></rc>
    <rc><c>N </c><c>   3</c></rc>
    <rc><c>N </c><c>   3</c></rc>
    <rc><c>N </c><c>   3</c></rc>
    <rc><c>N </c><c>   3</c></rc>
    <rc><c>N </c><c>   3</c></rc>
    <rc><c>N </c><c>   3</c></rc>
    <rc><c>N </c><c>   3</c></rc>
    <rc><c>N </c><c>   3</c></rc>
    <rc><c>N </c><c>   3</c></rc>
    <rc><c>N </c><c>   3</c></rc>
    <rc><c>N </c><c>   3</c></rc>
    <rc><c>N </c><c>   3</c></rc>
    <rc><c>N </c><c>   3</c></rc>
    <rc><c>N </c><c>   3</c></rc>
    <rc><c>N </c><c>   3</c></rc>
    <rc><c>N </c><c>   3</c></rc>
    <rc><c>N </c><c>   3</c></rc>
    <rc><c>N </c><c>   3</c></rc>
    <rc><c>N </c><c>   3</c></rc>
    <rc><c>N </c><c>   3</c></rc>
    <rc><c>N </c><c>   3</c></rc>
    <rc><c>N </c><c>   3</c></rc>
    <rc><c>N </c><c>   3</c></rc>
    <rc><c>N </c><c>   3</c></rc>
    <rc><c>N </c><c>   3</c></rc>
    <rc><c>N </c><c>   3</c></rc>
    <rc><c>N </c><c>   3</c></rc>
    <rc><c>N </c><c>   3</c></rc>
    <rc><c>N </c><c>   3</c></rc>
    <rc><c>N </c><c>   3</c></rc>
    <rc><c>N </c><c>   3</c></rc>
    <rc><c>N </c><c>   3</c></rc>
    <rc><c>N </c><c>   3</c></rc>
    <rc><c>N </c><c>   3</c></rc>
    <rc><c>N </c><c>   3</c></rc>
    <rc><c>I </c><c>   4</c></rc>
    <rc><c>I </c><c>   4</c></rc>
    <rc><c>I </c><c>   4</c></rc>
    <rc><c>I </c><c>   4</c></rc>
    <rc><c>I </c><c>   4</c></rc>
    <rc><c>I </c><c>   4</c></rc>
    <rc><c>I </c><c>   4</c></rc>
    <rc><c>I </c><c>   4</c></rc>
    <rc><c>I </c><c>   4</c></rc>
    <rc><c>I </c><c>   4</c></rc>
    <rc><c>I </c><c>   4</c></rc>
    <rc><c>I </c><c>   4</c></rc>
    <rc><c>I </c><c>   4</c></rc>
    <rc><c>I </c><c>   4</c></rc>
    <rc><c>I </c><c>   4</c></rc>
    <rc><c>I </c><c>   4</c></rc>
    <rc><c>I </c><c>   4</c></rc>
    <rc><c>I </c><c>   4</c></rc>
    <rc><c>I </c><c>   4</c></rc>
    <rc><c>I </c><c>   4</c></rc>
    <rc><c>I </c><c>   4</c></rc>
    <rc><c>I </c><c>   4</c></rc>
    <rc><c>I </c><c>   4</c></rc>
    <rc><c>I </c><c>   4</c></rc>
    <rc><c>I </c><c>   4</c></rc>
    <rc><c>I </c><c>   4</c></rc>
    <rc><c>I </c><c>   4</c></rc>
    <rc><c>I </c><c>   4</c></rc>
    <rc><c>I </c><c>   4</c></rc>
    <rc><c>I </c><c>   4</c></rc>
    <rc><c>I </c><c>   4</c></rc>
    <rc><c>I </c><c>   4</c></rc>
    <rc><c>I </c><c>   4</c></rc>
    <rc><c>I </c><c>   4</c></rc>
    <rc><c>I </c><c>   4</c></rc>
    <rc><c>I </c><c>   4</c></rc>
    <rc><c>I </c><c>   4</c></rc>
    <rc><c>I </c><c>   4</c></rc>
    <rc><c>I </c><c>   4</c></rc>
    <rc><c>I </c><c>   4</c></rc>
    <rc><c>I </c><c>   4</c></rc>
    <rc><c>I </c><c>   4</c></rc>
    <rc><c>I </c><c>   4</c></rc>
    <rc><c>I </c><c>   4</c></rc>
    <rc><c>I </c><c>   4</c></rc>
    <rc><c>I </c><c>   4</c></rc>
    <rc><c>I </c><c>   4</c></rc>
    <rc><c>I </c><c>   4</c></rc>
    <rc><c>I </c><c>   4</c></rc>
    <rc><c>I </c><c>   4</c></rc>
    <rc><c>I </c><c>   4</c></rc>
    <rc><c>I </c><c>   4</c></rc>
    <rc><c>I </c><c>   4</c></rc>
    <rc><c>I </c><c>   4</c></rc>
    <rc><c>I </c><c>   4</c></rc>
    <rc><c>I </c><c>   4</c></rc>
    <rc><c>I </c><c>   4</c></rc>
    <rc><c>I </c><c>   4</c></rc>
    <rc><c>I </c><c>   4</c></rc>
    <rc><c>I </c><c>   4</c></rc>
    <rc><c>I </c><c>   4</c></rc>
    <rc><c>I </c><c>   4</c></rc>
    <rc><c>I </c><c>   4</c></rc>
    <rc><c>I </c><c>   4</c></rc>
    <rc><c>I </c><c>   4</c></rc>
    <rc><c>I </c><c>   4</c></rc>
    <rc><c>I </c><c>   4</c></rc>
    <rc><c>I </c><c>   4</c></rc>
    <rc><c>I </c><c>   4</c></rc>
    <rc><c>I </c><c>   4</c></rc>
    <rc><c>I </c><c>   4</c></rc>
    <rc><c>I </c><c>   4</c></rc>
    <rc><c>Pb</c><c>   5</c></rc>
    <rc><c>Pb</c><c>   5</c></rc>
    <rc><c>Pb</c><c>   5</c></rc>
    <rc><c>Pb</c><c>   5</c></rc>
    <rc><c>Pb</c><c>   5</c></rc>
    <rc><c>Pb</c><c>   5</c></rc>
    <rc><c>Pb</c><c>   5</c></rc>
    <rc><c>Pb</c><c>   5</c></rc>
    <rc><c>Pb</c><c>   5</c></rc>
    <rc><c>Pb</c><c>   5</c></rc>
    <rc><c>Pb</c><c>   5</c></rc>
    <rc><c>Pb</c><c>   5</c></rc>
    <rc><c>Pb</c><c>   5</c></rc>
    <rc><c>Pb</c><c>   5</c></rc>
    <rc><c>Pb</c><c>   5</c></rc>
    <rc><c>Pb</c><c>   5</c></rc>
    <rc><c>Pb</c><c>   5</c></rc>
    <rc><c>Pb</c><c>   5</c></rc>
    <rc><c>Pb</c><c>   5</c></rc>
    <rc><c>Pb</c><c>   5</c></rc>
    <rc><c>Pb</c><c>   5</c></rc>
    <rc><c>Pb</c><c>   5</c></rc>
    <rc><c>Pb</c><c>   5</c></rc>
    <rc><c>Pb</c><c>   5</c></rc>
   </set>
  </array>
  <array name="atomtypes" >
   <dimension dim="1">type</dimension>
   <field type="int">atomspertype</field>
   <field type="string">element</field>
   <field>mass</field>
   <field>valence</field>
   <field type="string">pseudopotential</field>
   <set>
    <rc><c> 143</c><c>H </c><c>      1.00000000</c><c>      1.00000000</c><c>  PAW_PBE H 15Jun2001                   </c></rc>
    <rc><c>  39</c><c>C </c><c>     12.01100000</c><c>      4.00000000</c><c>  PAW_PBE C 08Apr2002                   </c></rc>
    <rc><c>  47</c><c>N </c><c>     14.00100000</c><c>      5.00000000</c><c>  PAW_PBE N 08Apr2002                   </c></rc>
    <rc><c>  72</c><c>I </c><c>    126.90400000</c><c>      7.00000000</c><c>  PAW_PBE I 08Apr2002                   </c></rc>
    <rc><c>  24</c><c>Pb</c><c>    207.20000000</c><c>      4.00000000</c><c>  PAW_PBE Pb 08Apr2002                  </c></rc>
   </set>
  </array>
 </atominfo>
 <structure name="initialpos" >
  <crystal>
   <varray name="basis" >
    <v>      18.06080055       0.00000000       0.00000000 </v>
    <v>      -0.00491865      18.06279945       0.00000000 </v>
    <v>       0.00000000       0.00000000      62.48749924 </v>
   </varray>
   <i name="volume">  20385.21054034 </i>
   <varray name="rec_basis" >
    <v>       0.05536853       0.00001508      -0.00000000 </v>
    <v>       0.00000000       0.05536240       0.00000000 </v>
    <v>       0.00000000      -0.00000000       0.01600320 </v>
   </varray>
  </crystal>
  <varray name="positions" >
   <v>       0.40782156       0.28365347       0.56170457 </v>
   <v>       0.41565937       0.69547188       0.57142734 </v>
   <v>       0.92556124       0.29272538       0.57971293 </v>
   <v>       0.92759871       0.81539405       0.57289297 </v>
   <v>       0.32300191       0.09154349       0.56330468 </v>
   <v>       0.32393811       0.57320961       0.56857814 </v>
   <v>       0.79977920       0.10276181       0.56535411 </v>
   <v>       0.10990326       0.24144566       0.56200731 </v>
   <v>       0.07845231       0.68199421       0.56928788 </v>
   <v>       0.58488604       0.18635605       0.56501175 </v>
   <v>       0.59925279       0.76149124       0.55891507 </v>
   <v>       0.37802434       0.01728183       0.55417169 </v>
   <v>       0.25486896       0.62229173       0.55480549 </v>
   <v>       0.87493588       0.04778391       0.55620262 </v>
   <v>       0.06366280       0.28885916       0.58202187 </v>
   <v>       0.99247068       0.69430056       0.58149094 </v>
   <v>       0.49056923       0.17311741       0.57034204 </v>
   <v>       0.55216176       0.69408214       0.57363952 </v>
   <v>       0.30815942       0.43736519       0.57194423 </v>
   <v>       0.19013172       0.06828503       0.56892184 </v>
   <v>       0.68293875       0.03340176       0.57340082 </v>
   <v>       0.45596503       0.36515747       0.55499119 </v>
   <v>       0.37437591       0.76093723       0.55455586 </v>
   <v>       0.88472820       0.24383413       0.55882301 </v>
   <v>       0.97431828       0.87338282       0.55524045 </v>
   <v>       0.23354688       0.39752504       0.55855679 </v>
   <v>       0.15544947       0.98391190       0.56035604 </v>
   <v>       0.68169868       0.93985104       0.56539427 </v>
   <v>       0.57119365       0.30674644       0.55495200 </v>
   <v>       0.49077418       0.81186558       0.54486814 </v>
   <v>       0.99988198       0.20377275       0.54490434 </v>
   <v>       0.07103718       0.79084597       0.54966780 </v>
   <v>       0.18887175       0.51293512       0.54667526 </v>
   <v>       0.27285799       0.93958798       0.55053577 </v>
   <v>       0.80270640       0.94100281       0.55421235 </v>
   <v>       0.45467848       0.29618241       0.67288245 </v>
   <v>       0.44218422       0.81477964       0.67061985 </v>
   <v>       0.95779160       0.28401885       0.67683600 </v>
   <v>       0.91328237       0.73908732       0.66461071 </v>
   <v>       0.29746971       0.04181021       0.67489958 </v>
   <v>       0.30123959       0.56076725       0.67326216 </v>
   <v>       0.79768007       0.05187055       0.67547366 </v>
   <v>       0.83259818       0.47580007       0.66646686 </v>
   <v>       0.09107284       0.17086220       0.64709097 </v>
   <v>       0.10788816       0.70005504       0.65432124 </v>
   <v>       0.57743426       0.16392541       0.64640175 </v>
   <v>       0.57387821       0.67350133       0.65191341 </v>
   <v>       0.18541703       0.41143579       0.65128597 </v>
   <v>       0.16369912       0.92920125       0.64475298 </v>
   <v>       0.63527597       0.48101606       0.65356493 </v>
   <v>       0.67271591       0.91835699       0.64967193 </v>
   <v>       0.06340198       0.18856150       0.67325746 </v>
   <v>       0.02533227       0.65578633       0.66136238 </v>
   <v>       0.54669709       0.18791030       0.67179764 </v>
   <v>       0.54331569       0.71366327       0.67569173 </v>
   <v>       0.21352750       0.44684032       0.67586901 </v>
   <v>       0.18445943       0.95286398       0.67115499 </v>
   <v>       0.69862740       0.43528530       0.67001621 </v>
   <v>       0.69711564       0.94805724       0.67515353 </v>
   <v>       0.43702333       0.33730921       0.64828494 </v>
   <v>       0.41723833       0.82964193       0.64392231 </v>
   <v>       0.92653271       0.31937526       0.65258426 </v>
   <v>       0.92763833       0.83102280       0.65804501 </v>
   <v>       0.34211017       0.06208326       0.65119543 </v>
   <v>       0.32003890       0.58851466       0.64708237 </v>
   <v>       0.82693226       0.07928978       0.64998718 </v>
   <v>       0.84846214       0.54762875       0.64822236 </v>
   <v>       0.00671971       0.25195396       0.63203108 </v>
   <v>       0.05186442       0.81472996       0.64985886 </v>
   <v>       0.51208726       0.25613264       0.62931331 </v>
   <v>       0.49723022       0.74232952       0.63039189 </v>
   <v>       0.26078385       0.99433490       0.63030026 </v>
   <v>       0.24943683       0.49697522       0.63139386 </v>
   <v>       0.75193173       0.99726480       0.63214572 </v>
   <v>       0.72533922       0.55543880       0.63794803 </v>
   <v>       0.44874502       0.30128397       0.76888902 </v>
   <v>       0.44874501       0.80128391       0.76888902 </v>
   <v>       0.94874497       0.30128397       0.76888902 </v>
   <v>       0.94874501       0.80128391       0.76888902 </v>
   <v>       0.30127600       0.05129450       0.76887296 </v>
   <v>       0.30127601       0.55129450       0.76887296 </v>
   <v>       0.80127594       0.05129450       0.76887296 </v>
   <v>       0.80127598       0.55129450       0.76887296 </v>
   <v>       0.07877100       0.17118050       0.74344197 </v>
   <v>       0.07877101       0.67118045       0.74344197 </v>
   <v>       0.57877100       0.17118050       0.74344197 </v>
   <v>       0.57877099       0.67118045       0.74344197 </v>
   <v>       0.17119950       0.42117448       0.74342103 </v>
   <v>       0.17119950       0.92117451       0.74342103 </v>
   <v>       0.67119951       0.42117448       0.74342103 </v>
   <v>       0.67119950       0.92117451       0.74342103 </v>
   <v>       0.05125600       0.19871499       0.76888902 </v>
   <v>       0.05125600       0.69871493       0.76888902 </v>
   <v>       0.55125603       0.19871499       0.76888902 </v>
   <v>       0.55125602       0.69871493       0.76888902 </v>
   <v>       0.19872349       0.44870397       0.76887205 </v>
   <v>       0.19872349       0.94870397       0.76887205 </v>
   <v>       0.69872352       0.44870397       0.76887205 </v>
   <v>       0.69872351       0.94870397       0.76887205 </v>
   <v>       0.42123152       0.32881747       0.74344197 </v>
   <v>       0.42123151       0.82881744       0.74344197 </v>
   <v>       0.92123147       0.32881747       0.74344197 </v>
   <v>       0.92123151       0.82881744       0.74344197 </v>
   <v>       0.32880050       0.07882500       0.74342103 </v>
   <v>       0.32880049       0.57882496       0.74342103 </v>
   <v>       0.82880048       0.07882500       0.74342103 </v>
   <v>       0.82880052       0.57882496       0.74342103 </v>
   <v>       0.00000350       0.25000148       0.72582199 </v>
   <v>       0.00000350       0.75000145       0.72582199 </v>
   <v>       0.50000351       0.25000148       0.72582199 </v>
   <v>       0.50000350       0.75000145       0.72582199 </v>
   <v>       0.25000050       0.00000000       0.72580398 </v>
   <v>       0.25000052       0.50000000       0.72580398 </v>
   <v>       0.75000050       0.00000000       0.72580398 </v>
   <v>       0.75000049       0.50000000       0.72580398 </v>
   <v>       0.79919561       0.50816427       0.51398073 </v>
   <v>       0.87824156       0.50038965       0.53084769 </v>
   <v>       0.75836101       0.61857250       0.53209562 </v>
   <v>       0.75643130       0.62108778       0.56035701 </v>
   <v>       0.68732899       0.44308508       0.54956207 </v>
   <v>       0.66855168       0.53520572       0.55733590 </v>
   <v>       0.79629153       0.42269909       0.56631865 </v>
   <v>       0.86424574       0.49271154       0.56855341 </v>
   <v>       0.85745152       0.37352648       0.53877018 </v>
   <v>       0.76318590       0.37626375       0.53206821 </v>
   <v>       0.78494650       0.38302986       0.49468369 </v>
   <v>       0.87821733       0.40946923       0.49734233 </v>
   <v>       0.89644848       0.61709675       0.53183373 </v>
   <v>       0.89835520       0.60539124       0.56015727 </v>
   <v>       0.86326244       0.68840406       0.54894085 </v>
   <v>       0.60067076       0.50743867       0.52504477 </v>
   <v>       0.68063775       0.48157666       0.51050985 </v>
   <v>       0.66654942       0.57530621       0.51878870 </v>
   <v>       0.70486719       0.50097982       0.58728665 </v>
   <v>       0.77578137       0.56950459       0.59069816 </v>
   <v>       0.78606637       0.48003714       0.60136802 </v>
   <v>       0.82122907       0.25812987       0.51206064 </v>
   <v>       0.84790138       0.27431073       0.48556022 </v>
   <v>       0.92447778       0.15919153       0.49861508 </v>
   <v>       0.97354202       0.38459003       0.51693304 </v>
   <v>       0.05597094       0.12610775       0.50372679 </v>
   <v>       0.10343725       0.35117209       0.52187391 </v>
   <v>       0.14744132       0.22252672       0.51513984 </v>
   <v>       0.99733490       0.23849649       0.55933520 </v>
   <v>       0.02524598       0.77546489       0.56022393 </v>
   <v>       0.52135444       0.27513493       0.55876056 </v>
   <v>       0.48708669       0.76337654       0.55531108 </v>
   <v>       0.24119092       0.50992929       0.55558659 </v>
   <v>       0.26713114       0.99644379       0.55647287 </v>
   <v>       0.77831091       0.99282475       0.56014866 </v>
   <v>       0.00861401       0.24513696       0.64937738 </v>
   <v>       0.01877241       0.76744771       0.65536381 </v>
   <v>       0.50709678       0.25084851       0.64671010 </v>
   <v>       0.49535903       0.75125677       0.64773020 </v>
   <v>       0.25286373       0.49976553       0.64883742 </v>
   <v>       0.25223530       0.99599018       0.64757728 </v>
   <v>       0.74124050       0.51497068       0.65022905 </v>
   <v>       0.75013445       0.99840649       0.64962768 </v>
   <v>       0.49998898       0.24999498       0.74327702 </v>
   <v>       0.49998903       0.74999496       0.74327702 </v>
   <v>       0.99998898       0.24999498       0.74327702 </v>
   <v>       0.99998903       0.74999496       0.74327702 </v>
   <v>       0.25000050       0.00000100       0.74325596 </v>
   <v>       0.25000052       0.50000100       0.74325596 </v>
   <v>       0.75000050       0.00000100       0.74325596 </v>
   <v>       0.75000049       0.50000100       0.74325596 </v>
   <v>       0.93854511       0.27450212       0.50692021 </v>
   <v>       0.96397368       0.20188309       0.50353803 </v>
   <v>       0.99048734       0.32767519       0.51349974 </v>
   <v>       0.03817168       0.18300554       0.50624325 </v>
   <v>       0.06501522       0.30870954       0.51633557 </v>
   <v>       0.08957227       0.23666723       0.51246023 </v>
   <v>       0.82057149       0.48202207       0.52872837 </v>
   <v>       0.78751410       0.60010339       0.54650091 </v>
   <v>       0.69484362       0.50104624       0.54499707 </v>
   <v>       0.80434361       0.48268088       0.56794563 </v>
   <v>       0.81770617       0.39790218       0.52748838 </v>
   <v>       0.83486917       0.37366217       0.50442047 </v>
   <v>       0.86653432       0.62813438       0.54677800 </v>
   <v>       0.66027076       0.51734336       0.52340272 </v>
   <v>       0.76479383       0.51105294       0.58759098 </v>
   <v>       0.85799318       0.29249146       0.50210751 </v>
   <v>       0.06004575       0.25667086       0.56854890 </v>
   <v>       0.03041385       0.71182549       0.57017831 </v>
   <v>       0.53173940       0.20523988       0.56376162 </v>
   <v>       0.54967946       0.73594644       0.56249923 </v>
   <v>       0.45721718       0.30899856       0.55765927 </v>
   <v>       0.42174541       0.73658556       0.56018315 </v>
   <v>       0.93218125       0.25987048       0.56633691 </v>
   <v>       0.96851365       0.82087566       0.56151722 </v>
   <v>       0.26318985       0.44421099       0.56214356 </v>
   <v>       0.20018486       0.01824391       0.56182184 </v>
   <v>       0.70829493       0.98987888       0.56597538 </v>
   <v>       0.32623065       0.03866138       0.55746471 </v>
   <v>       0.27705329       0.57159379       0.55941359 </v>
   <v>       0.82016543       0.05232883       0.56077311 </v>
   <v>       0.05699196       0.19837363       0.65727416 </v>
   <v>       0.05240366       0.70336730       0.65722044 </v>
   <v>       0.54594696       0.19760609       0.65576648 </v>
   <v>       0.53969219       0.71012087       0.65950593 </v>
   <v>       0.21545367       0.44993025       0.65964579 </v>
   <v>       0.19693662       0.95771304       0.65528799 </v>
   <v>       0.68920585       0.47356826       0.65838651 </v>
   <v>       0.70468379       0.95204654       0.65908062 </v>
   <v>       0.46380581       0.29741952       0.65679006 </v>
   <v>       0.44848091       0.80118127       0.65484777 </v>
   <v>       0.96165518       0.28500802       0.66059343 </v>
   <v>       0.94849206       0.77894415       0.65932242 </v>
   <v>       0.29880366       0.03559358       0.65875676 </v>
   <v>       0.29364546       0.55267907       0.65714590 </v>
   <v>       0.79363835       0.04633099       0.65921754 </v>
   <v>       0.81207271       0.51264410       0.65549671 </v>
   <v>       0.04586250       0.20411950       0.75272599 </v>
   <v>       0.04586250       0.70411946       0.75272599 </v>
   <v>       0.54586251       0.20411950       0.75272599 </v>
   <v>       0.54586250       0.70411946       0.75272599 </v>
   <v>       0.20411900       0.45410100       0.75270499 </v>
   <v>       0.20411899       0.95410095       0.75270499 </v>
   <v>       0.70411898       0.45410100       0.75270499 </v>
   <v>       0.70411896       0.95410095       0.75270499 </v>
   <v>       0.45414002       0.29588849       0.75272697 </v>
   <v>       0.45414001       0.79588852       0.75272697 </v>
   <v>       0.95414002       0.29588849       0.75272697 </v>
[...]
   <v>       0.58488604       0.18635605       0.56501175 </v>
   <v>       0.59925279       0.76149124       0.55891507 </v>
   <v>       0.37802434       0.01728183       0.55417169 </v>
   <v>       0.25486896       0.62229173       0.55480549 </v>
   <v>       0.87493588       0.04778391       0.55620262 </v>
   <v>       0.06366280       0.28885916       0.58202187 </v>
   <v>       0.99247068       0.69430056       0.58149094 </v>
   <v>       0.49056923       0.17311741       0.57034204 </v>
   <v>       0.55216176       0.69408214       0.57363952 </v>
   <v>       0.30815942       0.43736519       0.57194423 </v>
   <v>       0.19013172       0.06828503       0.56892184 </v>
   <v>       0.68293875       0.03340176       0.57340082 </v>
   <v>       0.45596503       0.36515747       0.55499119 </v>
   <v>       0.37437591       0.76093723       0.55455586 </v>
   <v>       0.88472820       0.24383413       0.55882301 </v>
   <v>       0.97431828       0.87338282       0.55524045 </v>
   <v>       0.23354688       0.39752504       0.55855679 </v>
   <v>       0.15544947       0.98391190       0.56035604 </v>
   <v>       0.68169868       0.93985104       0.56539427 </v>
   <v>       0.57119365       0.30674644       0.55495200 </v>
   <v>       0.49077418       0.81186558       0.54486814 </v>
   <v>       0.99988198       0.20377275       0.54490434 </v>
   <v>       0.07103718       0.79084597       0.54966780 </v>
   <v>       0.18887175       0.51293512       0.54667526 </v>
   <v>       0.27285799       0.93958798       0.55053577 </v>
   <v>       0.80270640       0.94100281       0.55421235 </v>
   <v>       0.45467848       0.29618241       0.67288245 </v>
   <v>       0.44218422       0.81477964       0.67061985 </v>
   <v>       0.95779160       0.28401885       0.67683600 </v>
   <v>       0.91328237       0.73908732       0.66461071 </v>
   <v>       0.29746971       0.04181021       0.67489958 </v>
   <v>       0.30123959       0.56076725       0.67326216 </v>
   <v>       0.79768007       0.05187055       0.67547366 </v>
   <v>       0.83259818       0.47580007       0.66646686 </v>
   <v>       0.09107284       0.17086220       0.64709097 </v>
   <v>       0.10788816       0.70005504       0.65432124 </v>
   <v>       0.57743426       0.16392541       0.64640175 </v>
   <v>       0.57387821       0.67350133       0.65191341 </v>
   <v>       0.18541703       0.41143579       0.65128597 </v>
   <v>       0.16369912       0.92920125       0.64475298 </v>
   <v>       0.63527597       0.48101606       0.65356493 </v>
   <v>       0.67271591       0.91835699       0.64967193 </v>
   <v>       0.06340198       0.18856150       0.67325746 </v>
   <v>       0.02533227       0.65578633       0.66136238 </v>
   <v>       0.54669709       0.18791030       0.67179764 </v>
   <v>       0.54331569       0.71366327       0.67569173 </v>
   <v>       0.21352750       0.44684032       0.67586901 </v>
   <v>       0.18445943       0.95286398       0.67115499 </v>
   <v>       0.69862740       0.43528530       0.67001621 </v>
   <v>       0.69711564       0.94805724       0.67515353 </v>
   <v>       0.43702333       0.33730921       0.64828494 </v>
   <v>       0.41723833       0.82964193       0.64392231 </v>
   <v>       0.92653271       0.31937526       0.65258426 </v>
   <v>       0.92763833       0.83102280       0.65804501 </v>
   <v>       0.34211017       0.06208326       0.65119543 </v>
   <v>       0.32003890       0.58851466       0.64708237 </v>
   <v>       0.82693226       0.07928978       0.64998718 </v>
   <v>       0.84846214       0.54762875       0.64822236 </v>
   <v>       0.00671971       0.25195396       0.63203108 </v>
   <v>       0.05186442       0.81472996       0.64985886 </v>
   <v>       0.51208726       0.25613264       0.62931331 </v>
   <v>       0.49723022       0.74232952       0.63039189 </v>
   <v>       0.26078385       0.99433490       0.63030026 </v>
   <v>       0.24943683       0.49697522       0.63139386 </v>
   <v>       0.75193173       0.99726480       0.63214572 </v>
   <v>       0.72533922       0.55543880       0.63794803 </v>
   <v>       0.44874502       0.30128397       0.76888902 </v>
   <v>       0.44874501       0.80128391       0.76888902 </v>
   <v>       0.94874497       0.30128397       0.76888902 </v>
   <v>       0.94874501       0.80128391       0.76888902 </v>
   <v>       0.30127600       0.05129450       0.76887296 </v>
   <v>       0.30127601       0.55129450       0.76887296 </v>
   <v>       0.80127594       0.05129450       0.76887296 </v>
   <v>       0.80127598       0.55129450       0.76887296 </v>
   <v>       0.07877100       0.17118050       0.74344197 </v>
   <v>       0.07877101       0.67118045       0.74344197 </v>
   <v>       0.57877100       0.17118050       0.74344197 </v>
   <v>       0.57877099       0.67118045       0.74344197 </v>
   <v>       0.17119950       0.42117448       0.74342103 </v>
   <v>       0.17119950       0.92117451       0.74342103 </v>
   <v>       0.67119951       0.42117448       0.74342103 </v>
   <v>       0.67119950       0.92117451       0.74342103 </v>
   <v>       0.05125600       0.19871499       0.76888902 </v>
   <v>       0.05125600       0.69871493       0.76888902 </v>
   <v>       0.55125603       0.19871499       0.76888902 </v>
   <v>       0.55125602       0.69871493       0.76888902 </v>
   <v>       0.19872349       0.44870397       0.76887205 </v>
   <v>       0.19872349       0.94870397       0.76887205 </v>
   <v>       0.69872352       0.44870397       0.76887205 </v>
   <v>       0.69872351       0.94870397       0.76887205 </v>
   <v>       0.42123152       0.32881747       0.74344197 </v>
   <v>       0.42123151       0.82881744       0.74344197 </v>
   <v>       0.92123147       0.32881747       0.74344197 </v>
   <v>       0.92123151       0.82881744       0.74344197 </v>
   <v>       0.32880050       0.07882500       0.74342103 </v>
   <v>       0.32880049       0.57882496       0.74342103 </v>
   <v>       0.82880048       0.07882500       0.74342103 </v>
   <v>       0.82880052       0.57882496       0.74342103 </v>
   <v>       0.00000350       0.25000148       0.72582199 </v>
   <v>       0.00000350       0.75000145       0.72582199 </v>
   <v>       0.50000351       0.25000148       0.72582199 </v>
   <v>       0.50000350       0.75000145       0.72582199 </v>
   <v>       0.25000050       0.00000000       0.72580398 </v>
   <v>       0.25000052       0.50000000       0.72580398 </v>
   <v>       0.75000050       0.00000000       0.72580398 </v>
   <v>       0.75000049       0.50000000       0.72580398 </v>
   <v>       0.79919561       0.50816427       0.51398073 </v>
   <v>       0.87824156       0.50038965       0.53084769 </v>
   <v>       0.75836101       0.61857250       0.53209562 </v>
   <v>       0.75643130       0.62108778       0.56035701 </v>
   <v>       0.68732899       0.44308508       0.54956207 </v>
   <v>       0.66855168       0.53520572       0.55733590 </v>
   <v>       0.79629153       0.42269909       0.56631865 </v>
   <v>       0.86424574       0.49271154       0.56855341 </v>
   <v>       0.85745152       0.37352648       0.53877018 </v>
   <v>       0.76318590       0.37626375       0.53206821 </v>
   <v>       0.78494650       0.38302986       0.49468369 </v>
   <v>       0.87821733       0.40946923       0.49734233 </v>
   <v>       0.89644848       0.61709675       0.53183373 </v>
   <v>       0.89835520       0.60539124       0.56015727 </v>
   <v>       0.86326244       0.68840406       0.54894085 </v>
   <v>       0.60067076       0.50743867       0.52504477 </v>
   <v>       0.68063775       0.48157666       0.51050985 </v>
   <v>       0.66654942       0.57530621       0.51878870 </v>
   <v>       0.70486719       0.50097982       0.58728665 </v>
   <v>       0.77578137       0.56950459       0.59069816 </v>
   <v>       0.78606637       0.48003714       0.60136802 </v>
   <v>       0.82122907       0.25812987       0.51206064 </v>
   <v>       0.84790138       0.27431073       0.48556022 </v>
   <v>       0.92447778       0.15919153       0.49861508 </v>
   <v>       0.97354202       0.38459003       0.51693304 </v>
   <v>       0.05597094       0.12610775       0.50372679 </v>
   <v>       0.10343725       0.35117209       0.52187391 </v>
   <v>       0.14744132       0.22252672       0.51513984 </v>
   <v>       0.99733490       0.23849649       0.55933520 </v>
   <v>       0.02524598       0.77546489       0.56022393 </v>
   <v>       0.52135444       0.27513493       0.55876056 </v>
   <v>       0.48708669       0.76337654       0.55531108 </v>
   <v>       0.24119092       0.50992929       0.55558659 </v>
   <v>       0.26713114       0.99644379       0.55647287 </v>
   <v>       0.77831091       0.99282475       0.56014866 </v>
   <v>       0.00861401       0.24513696       0.64937738 </v>
   <v>       0.01877241       0.76744771       0.65536381 </v>
   <v>       0.50709678       0.25084851       0.64671010 </v>
   <v>       0.49535903       0.75125677       0.64773020 </v>
   <v>       0.25286373       0.49976553       0.64883742 </v>
   <v>       0.25223530       0.99599018       0.64757728 </v>
   <v>       0.74124050       0.51497068       0.65022905 </v>
   <v>       0.75013445       0.99840649       0.64962768 </v>
   <v>       0.49998898       0.24999498       0.74327702 </v>
   <v>       0.49998903       0.74999496       0.74327702 </v>
   <v>       0.99998898       0.24999498       0.74327702 </v>
   <v>       0.99998903       0.74999496       0.74327702 </v>
   <v>       0.25000050       0.00000100       0.74325596 </v>
   <v>       0.25000052       0.50000100       0.74325596 </v>
   <v>       0.75000050       0.00000100       0.74325596 </v>
   <v>       0.75000049       0.50000100       0.74325596 </v>
   <v>       0.93854511       0.27450212       0.50692021 </v>
   <v>       0.96397368       0.20188309       0.50353803 </v>
   <v>       0.99048734       0.32767519       0.51349974 </v>
   <v>       0.03817168       0.18300554       0.50624325 </v>
   <v>       0.06501522       0.30870954       0.51633557 </v>
   <v>       0.08957227       0.23666723       0.51246023 </v>
   <v>       0.82057149       0.48202207       0.52872837 </v>
   <v>       0.78751410       0.60010339       0.54650091 </v>
   <v>       0.69484362       0.50104624       0.54499707 </v>
   <v>       0.80434361       0.48268088       0.56794563 </v>
   <v>       0.81770617       0.39790218       0.52748838 </v>
   <v>       0.83486917       0.37366217       0.50442047 </v>
   <v>       0.86653432       0.62813438       0.54677800 </v>
   <v>       0.66027076       0.51734336       0.52340272 </v>
   <v>       0.76479383       0.51105294       0.58759098 </v>
   <v>       0.85799318       0.29249146       0.50210751 </v>
   <v>       0.06004575       0.25667086       0.56854890 </v>
   <v>       0.03041385       0.71182549       0.57017831 </v>
   <v>       0.53173940       0.20523988       0.56376162 </v>
   <v>       0.54967946       0.73594644       0.56249923 </v>
   <v>       0.45721718       0.30899856       0.55765927 </v>
   <v>       0.42174541       0.73658556       0.56018315 </v>
   <v>       0.93218125       0.25987048       0.56633691 </v>
   <v>       0.96851365       0.82087566       0.56151722 </v>
   <v>       0.26318985       0.44421099       0.56214356 </v>
   <v>       0.20018486       0.01824391       0.56182184 </v>
   <v>       0.70829493       0.98987888       0.56597538 </v>
   <v>       0.32623065       0.03866138       0.55746471 </v>
   <v>       0.27705329       0.57159379       0.55941359 </v>
   <v>       0.82016543       0.05232883       0.56077311 </v>
   <v>       0.05699196       0.19837363       0.65727416 </v>
   <v>       0.05240366       0.70336730       0.65722044 </v>
   <v>       0.54594696       0.19760609       0.65576648 </v>
   <v>       0.53969219       0.71012087       0.65950593 </v>
   <v>       0.21545367       0.44993025       0.65964579 </v>
   <v>       0.19693662       0.95771304       0.65528799 </v>
   <v>       0.68920585       0.47356826       0.65838651 </v>
   <v>       0.70468379       0.95204654       0.65908062 </v>
   <v>       0.46380581       0.29741952       0.65679006 </v>
   <v>       0.44848091       0.80118127       0.65484777 </v>
   <v>       0.96165518       0.28500802       0.66059343 </v>
   <v>       0.94849206       0.77894415       0.65932242 </v>
   <v>       0.29880366       0.03559358       0.65875676 </v>
   <v>       0.29364546       0.55267907       0.65714590 </v>
   <v>       0.79363835       0.04633099       0.65921754 </v>
   <v>       0.81207271       0.51264410       0.65549671 </v>
   <v>       0.04586250       0.20411950       0.75272599 </v>
   <v>       0.04586250       0.70411946       0.75272599 </v>
   <v>       0.54586251       0.20411950       0.75272599 </v>
   <v>       0.54586250       0.70411946       0.75272599 </v>
   <v>       0.20411900       0.45410100       0.75270499 </v>
   <v>       0.20411899       0.95410095       0.75270499 </v>
   <v>       0.70411898       0.45410100       0.75270499 </v>
   <v>       0.70411896       0.95410095       0.75270499 </v>
   <v>       0.45414002       0.29588849       0.75272697 </v>
   <v>       0.45414001       0.79588852       0.75272697 </v>
   <v>       0.95414002       0.29588849       0.75272697 </v>
   <v>       0.95414006       0.79588852       0.75272697 </v>
   <v>       0.29588249       0.04590050       0.75270499 </v>
   <v>       0.29588248       0.54590053       0.75270499 </v>
   <v>       0.79588244       0.04590050       0.75270499 </v>
   <v>       0.79588248       0.54590053       0.75270499 </v>
   <v>       0.77738308       0.51644648       0.54692256 </v>
   <v>       0.51196162       0.98188232       0.55301845 </v>
   <v>       0.47399514       0.51065268       0.55312711 </v>
   <v>       0.00743979       0.01286405       0.55119820 </v>
   <v>       0.03131212       0.48857991       0.55436210 </v>
   <v>       0.25844423       0.24000896       0.55429141 </v>
   <v>       0.22997633       0.76613263       0.55077087 </v>
   <v>       0.73459307       0.22997436       0.55456838 </v>
   <v>       0.73171046       0.79531598       0.55415173 </v>
   <v>       0.99617375       0.98426689       0.65418083 </v>
   <v>       0.00960186       0.50492201       0.65502890 </v>
   <v>       0.49739112       0.00170682       0.65447264 </v>
   <v>       0.49366442       0.50236893       0.65394788 </v>
   <v>       0.26280233       0.24160746       0.65522071 </v>
   <v>       0.24589447       0.75587953       0.65357219 </v>
   <v>       0.74449320       0.26507000       0.65537644 </v>
   <v>       0.74894502       0.73372440       0.65485620 </v>
   <v>       0.13548244       0.11770187       0.60880255 </v>
   <v>       0.14731429       0.60855493       0.60634351 </v>
   <v>       0.63825203       0.11282331       0.60869383 </v>
   <v>       0.61883954       0.63065393       0.60724829 </v>
   <v>       0.36747498       0.38447580       0.60803037 </v>
   <v>       0.36418811       0.88538062       0.60554733 </v>
   <v>       0.88731406       0.36606585       0.61146849 </v>
   <v>       0.86194031       0.89049577       0.60625749 </v>
   <v>       0.12678189       0.36899248       0.61141270 </v>
   <v>       0.11550604       0.87284043       0.60582448 </v>
   <v>       0.61416849       0.36603824       0.60188815 </v>
   <v>       0.61572994       0.86332591       0.61232285 </v>
   <v>       0.39577410       0.13907246       0.60369851 </v>
   <v>       0.37914996       0.63368537       0.60729847 </v>
   <v>       0.88219331       0.13464965       0.61207402 </v>
   <v>       0.90202133       0.64721858       0.61000775 </v>
   <v>       0.00000000       0.00000000       0.75492797 </v>
   <v>       0.00000000       0.50000000       0.75492797 </v>
   <v>       0.50000000       0.00000000       0.75492797 </v>
   <v>       0.49999999       0.50000000       0.75492797 </v>
   <v>       0.25000050       0.25000000       0.75493902 </v>
   <v>       0.25000051       0.74999997       0.75493902 </v>
   <v>       0.75000047       0.25000000       0.75493902 </v>
   <v>       0.75000046       0.74999997       0.75493902 </v>
   <v>       0.13579050       0.11421000       0.70478299 </v>
   <v>       0.13579050       0.61420998       0.70478299 </v>
   <v>       0.63579045       0.11421000       0.70478299 </v>
   <v>       0.63579049       0.61420998       0.70478299 </v>
   <v>       0.36420952       0.38578999       0.70478299 </v>
   <v>       0.36420950       0.88578996       0.70478299 </v>
   <v>       0.86420954       0.38578999       0.70478299 </v>
   <v>       0.86420953       0.88578996       0.70478299 </v>
   <v>       0.11421799       0.36421899       0.70478098 </v>
   <v>       0.11421799       0.86421899       0.70478098 </v>
   <v>       0.61421800       0.36421899       0.70478098 </v>
   <v>       0.61421799       0.86421899       0.70478098 </v>
   <v>       0.38578201       0.13578149       0.70478202 </v>
   <v>       0.38578200       0.63578149       0.70478202 </v>
   <v>       0.88578199       0.13578149       0.70478202 </v>
   <v>       0.88578203       0.63578149       0.70478202 </v>
   <v>       0.13466700       0.11533200       0.80125603 </v>
   <v>       0.13466699       0.61533199       0.80125603 </v>
   <v>       0.63466699       0.11533200       0.80125603 </v>
   <v>       0.63466698       0.61533199       0.80125603 </v>
   <v>       0.36533300       0.38466799       0.80125603 </v>
   <v>       0.36533299       0.88466796       0.80125603 </v>
   <v>       0.86533295       0.38466799       0.80125603 </v>
   <v>       0.86533294       0.88466796       0.80125603 </v>
   <v>       0.11532850       0.36533700       0.80126500 </v>
   <v>       0.11532850       0.86533698       0.80126500 </v>
   <v>       0.61532850       0.36533700       0.80126500 </v>
   <v>       0.61532849       0.86533698       0.80126500 </v>
   <v>       0.38467151       0.13466300       0.80126500 </v>
   <v>       0.38467150       0.63466297       0.80126500 </v>
   <v>       0.88467149       0.13466300       0.80126500 </v>
   <v>       0.88467153       0.63466297       0.80126500 </v>
   <v>       0.99713349       0.00658246       0.60412401 </v>
   <v>       0.01019403       0.50099254       0.60377866 </v>
   <v>       0.50180422       0.99391018       0.60344723 </v>
   <v>       0.49999836       0.50001309       0.60255875 </v>
   <v>       0.25544488       0.24824075       0.60565575 </v>
   <v>       0.24394529       0.75618596       0.60297369 </v>
   <v>       0.74765036       0.25121445       0.60575824 </v>
   <v>       0.75111095       0.75747433       0.60470689 </v>
   <v>       0.00000050       0.00000050       0.70482896 </v>
   <v>       0.00000050       0.50000048       0.70482896 </v>
   <v>       0.50000048       0.00000050       0.70482896 </v>
   <v>       0.50000046       0.50000048       0.70482896 </v>
   <v>       0.24999999       0.24999947       0.70482499 </v>
   <v>       0.25000001       0.74999950       0.70482499 </v>
   <v>       0.74999999       0.24999947       0.70482499 </v>
   <v>       0.74999998       0.74999950       0.70482499 </v>
   <v>       0.00000000       0.00000000       0.80731797 </v>
   <v>       0.00000000       0.50000000       0.80731797 </v>
   <v>       0.50000000       0.00000000       0.80731797 </v>
   <v>       0.49999999       0.50000000       0.80731797 </v>
   <v>       0.24999999       0.25000000       0.80731797 </v>
   <v>       0.25000001       0.74999997       0.80731797 </v>
   <v>       0.74999999       0.25000000       0.80731797 </v>
   <v>       0.74999998       0.74999997       0.80731797 </v>
  </varray>
 </structure>
</modeling>
