 vasp.6.2.1 16May21 (build Nov 15 2021 14:57:28) complex                         
 executed on             LinuxPGI date 2023.07.24  23:41:37
 running on    4 total cores
 distrk:  each k-point on    4 cores,    1 groups
 distr:  one band on NCORE=   1 cores,    4 groups


--------------------------------------------------------------------------------------------------------


 INCAR:
   SYSTEM = PSC
   ISTART = 1
   ICHARG = 1
   PREC = Normal
   ENCUT = 500
   GGA_COMPAT = F
   NELM = 600
   ISYM = 0
   LREAL = Auto
   ISMEAR = 0
   SIGMA = 0.05
   AMIN = 0.01
   BMIX = 0.01
   LVTOT = T
   LWAVE = F
   LDIPOL = T
   IDIPOL = 3
   LVDW = T
   IVDW = 12

 POTCAR:    PAW_PBE H 15Jun2001                   
 POTCAR:    PAW_PBE C 08Apr2002                   
 POTCAR:    PAW_PBE N 08Apr2002                   
 POTCAR:    PAW_PBE I 08Apr2002                   
 POTCAR:    PAW_PBE Pb 08Apr2002                  
 WARNING: For LVTOT=.TRUE., VASP.5.x writes the TOTAL local potential to the
     file LOCPOT. If you want only the Hartree contributions, use LVHAR=.TRUE.
     instead. 

 POTCAR:    PAW_PBE H 15Jun2001                   
   SHA256 =  030f79b5d3ab3cf0e668861823c8fb652ff669f3e15e46930bd03bfd63a607b6 H/POTCAR              
   COPYR  = (c) Copyright 15Jun2001 Georg Kresse                                                    
   COPYR  = This file is part of the software VASP. Any use, copying, and all other rights are regul
   COPYR  = If you do not have a valid VASP license, you may not use, copy or distribute this file. 
   VRHFIN =H: ultrasoft test                                                                        
   LEXCH  = PE                                                                                      
   EATOM  =    12.4884 eV,    0.9179 Ry                                                             
                                                                                                    
   TITEL  = PAW_PBE H 15Jun2001                                                                     
   LULTRA =        F    use ultrasoft PP ?                                                          
   IUNSCR =        0    unscreen: 0-lin 1-nonlin 2-no                                               
   RPACOR =    0.000    partial core radius                                                         
   POMASS =    1.000; ZVAL   =    1.000    mass and valenz                                          
   RCORE  =    1.100    outmost cutoff radius                                                       
   RWIGS  =    0.700; RWIGS  =    0.370    wigner-seitz radius (au A)                               
   ENMAX  =  250.000; ENMIN  =  200.000 eV                                                          
   RCLOC  =    0.701    cutoff for local pot                                                        
   LCOR   =        T    correct aug charges                                                         
   LPAW   =        T    paw PP                                                                      
   EAUG   =  400.000                                                                                
   RMAX   =    1.123    core radius for proj-oper                                                   
   RAUG   =    1.200    factor for augmentation sphere                                              
   RDEP   =    1.112    radius for radial grids                                                     
   RDEPT  =    0.926    core radius for aug-charge                                                  
                                                                                                    
   Atomic configuration                                                                             
    2 entries                                                                                       
     n  l   j            E        occ.                                                              
     1  0  0.50        -6.4927   1.0000                                                             
     2  1  0.50        -3.4015   0.0000                                                             
   Description                                                                                      
     l       E           TYP  RCUT    TYP  RCUT                                                     
     0     -6.4927494     23  1.100                                                                 
     0      6.8029130     23  1.100                                                                 
     1     -4.0817478     23  1.100                                                                 
  local pseudopotential read in
  atomic valenz-charges read in
  non local Contribution for L=            0  read in
    real space projection operators read in
  non local Contribution for L=            0  read in
    real space projection operators read in
  non local Contribution for L=            1  read in
    real space projection operators read in
    PAW grid and wavefunctions read in
 
   number of l-projection  operators is LMAX  =            3
   number of lm-projection operators is LMMAX =            5
 
 POTCAR:    PAW_PBE C 08Apr2002                   
   SHA256 =  253f7b50bb8d59471dbedb8285d89021f4a42ed1a2c5d38a03a736e69125dd95 C/POTCAR              
   COPYR  = (c) Copyright 08Apr2002 Georg Kresse                                                    
   COPYR  = This file is part of the software VASP. Any use, copying, and all other rights are regul
   COPYR  = If you do not have a valid VASP license, you may not use, copy or distribute this file. 
   VRHFIN =C: s2p2                                                                                  
   LEXCH  = PE                                                                                      
   EATOM  =   147.1560 eV,   10.8157 Ry                                                             
                                                                                                    
   TITEL  = PAW_PBE C 08Apr2002                                                                     
   LULTRA =        F    use ultrasoft PP ?                                                          
   IUNSCR =        1    unscreen: 0-lin 1-nonlin 2-no                                               
   RPACOR =    1.200    partial core radius                                                         
   POMASS =   12.011; ZVAL   =    4.000    mass and valenz                                          
   RCORE  =    1.500    outmost cutoff radius                                                       
   RWIGS  =    1.630; RWIGS  =    0.863    wigner-seitz radius (au A)                               
   ENMAX  =  400.000; ENMIN  =  300.000 eV                                                          
   ICORE  =        2    local potential                                                             
   LCOR   =        T    correct aug charges                                                         
   LPAW   =        T    paw PP                                                                      
   EAUG   =  644.873                                                                                
   DEXC   =    0.000                                                                                
   RMAX   =    1.529    core radius for proj-oper                                                   
   RAUG   =    1.300    factor for augmentation sphere                                              
   RDEP   =    1.501    radius for radial grids                                                     
   RDEPT  =    1.300    core radius for aug-charge                                                  
                                                                                                    
   Atomic configuration                                                                             
    4 entries                                                                                       
     n  l   j            E        occ.                                                              
     1  0  0.50      -273.3789   2.0000                                                             
     2  0  0.50       -13.7508   2.0000                                                             
     2  1  0.50        -5.2854   2.0000                                                             
     3  2  1.50        -5.4423   0.0000                                                             
   Description                                                                                      
     l       E           TYP  RCUT    TYP  RCUT                                                     
     0    -13.7508458     23  1.200                                                                 
     0     -8.2022199     23  1.200                                                                 
     1     -5.2854383     23  1.500                                                                 
     1     34.0145650     23  1.500                                                                 
     2     -5.4423304      7  1.500                                                                 
  local pseudopotential read in
  partial core-charges read in
  partial kinetic energy density read in
  atomic valenz-charges read in
  non local Contribution for L=            0  read in
    real space projection operators read in
  non local Contribution for L=            0  read in
    real space projection operators read in
  non local Contribution for L=            1  read in
    real space projection operators read in
  non local Contribution for L=            1  read in
    real space projection operators read in
    PAW grid and wavefunctions read in
 
   number of l-projection  operators is LMAX  =            4
   number of lm-projection operators is LMMAX =            8
 
 POTCAR:    PAW_PBE N 08Apr2002                   
   SHA256 =  e053789ff3a61a86a1b75d8a110fcc91f86041011e7b0817c7c99e4e8a6349d7 N/POTCAR              
   COPYR  = (c) Copyright 08Apr2002 Georg Kresse                                                    
   COPYR  = This file is part of the software VASP. Any use, copying, and all other rights are regul
   COPYR  = If you do not have a valid VASP license, you may not use, copy or distribute this file. 
   VRHFIN =N: s2p3                                                                                  
   LEXCH  = PE                                                                                      
   EATOM  =   264.5486 eV,   19.4438 Ry                                                             
                                                                                                    
   TITEL  = PAW_PBE N 08Apr2002                                                                     
   LULTRA =        F    use ultrasoft PP ?                                                          
   IUNSCR =        1    unscreen: 0-lin 1-nonlin 2-no                                               
   RPACOR =    1.200    partial core radius                                                         
   POMASS =   14.001; ZVAL   =    5.000    mass and valenz                                          
   RCORE  =    1.500    outmost cutoff radius                                                       
   RWIGS  =    1.400; RWIGS  =    0.741    wigner-seitz radius (au A)                               
   ENMAX  =  400.000; ENMIN  =  300.000 eV                                                          
   ICORE  =        2    local potential                                                             
   LCOR   =        T    correct aug charges                                                         
   LPAW   =        T    paw PP                                                                      
   EAUG   =  627.112                                                                                
   DEXC   =    0.000                                                                                
   RMAX   =    1.529    core radius for proj-oper                                                   
   RAUG   =    1.300    factor for augmentation sphere                                              
   RDEP   =    1.514    radius for radial grids                                                     
   RDEPT  =    1.338    core radius for aug-charge                                                  
                                                                                                    
   Atomic configuration                                                                             
    4 entries                                                                                       
     n  l   j            E        occ.                                                              
     1  0  0.50      -384.7179   2.0000                                                             
     2  0  0.50       -18.5828   2.0000                                                             
     2  1  0.50        -7.0898   3.0000                                                             
     3  2  1.50        -6.8029   0.0000                                                             
   Description                                                                                      
     l       E           TYP  RCUT    TYP  RCUT                                                     
     0    -18.5828119     23  1.200                                                                 
     0    -13.5018863     23  1.200                                                                 
     1     -7.0897853     23  1.500                                                                 
     1      9.5240782     23  1.500                                                                 
     2     -6.8029130      7  1.500                                                                 
  local pseudopotential read in
  partial core-charges read in
  partial kinetic energy density read in
  atomic valenz-charges read in
  non local Contribution for L=            0  read in
    real space projection operators read in
  non local Contribution for L=            0  read in
    real space projection operators read in
  non local Contribution for L=            1  read in
    real space projection operators read in
  non local Contribution for L=            1  read in
    real space projection operators read in
    PAW grid and wavefunctions read in
 
   number of l-projection  operators is LMAX  =            4
   number of lm-projection operators is LMMAX =            8
 
 POTCAR:    PAW_PBE I 08Apr2002                   
   SHA256 =  e40f3f59b681c1fc3e3091736183c4589116986673d2b852a5012aec72758799 I/POTCAR              
   COPYR  = (c) Copyright 08Apr2002 Georg Kresse                                                    
   COPYR  = This file is part of the software VASP. Any use, copying, and all other rights are regul
   COPYR  = If you do not have a valid VASP license, you may not use, copy or distribute this file. 
   VRHFIN =I : s2p5                                                                                 
   LEXCH  = PE                                                                                      
   EATOM  =   315.8678 eV,   23.2156 Ry                                                             
                                                                                                    
   TITEL  = PAW_PBE I 08Apr2002                                                                     
   LULTRA =        F    use ultrasoft PP ?                                                          
   IUNSCR =        1    unscreen: 0-lin 1-nonlin 2-no                                               
   RPACOR =    2.200    partial core radius                                                         
   POMASS =  126.904; ZVAL   =    7.000    mass and valenz                                          
   RCORE  =    2.300    outmost cutoff radius                                                       
   RWIGS  =    2.810; RWIGS  =    1.487    wigner-seitz radius (au A)                               
   ENMAX  =  175.647; ENMIN  =  131.735 eV                                                          
   ICORE  =        3    local potential                                                             
   LCOR   =        T    correct aug charges                                                         
   LPAW   =        T    paw PP                                                                      
   EAUG   =  370.139                                                                                
   DEXC   =    0.000                                                                                
   RMAX   =    2.359    core radius for proj-oper                                                   
   RAUG   =    1.300    factor for augmentation sphere                                              
   RDEP   =    2.392    radius for radial grids                                                     
   RDEPT  =    2.170    core radius for aug-charge                                                  
                                                                                                    
   Atomic configuration                                                                             
   13 entries                                                                                       
     n  l   j            E        occ.                                                              
     1  0  0.50    -32976.3739   2.0000                                                             
     2  0  0.50     -5094.5933   2.0000                                                             
     2  1  1.50     -4572.0131   6.0000                                                             
     3  0  0.50     -1028.2813   2.0000                                                             
     3  1  1.50      -859.0250   6.0000                                                             
     3  2  2.50      -605.7620  10.0000                                                             
     4  0  0.50      -180.5540   2.0000                                                             
     4  1  1.50      -127.5306   6.0000                                                             
     4  2  2.50       -50.2720  10.0000                                                             
     5  0  0.50       -17.4058   2.0000                                                             
     5  1  0.50        -7.0851   5.0000                                                             
     5  2  1.50        -7.0750   0.0000                                                             
     4  3  2.50        -7.0750   0.0000                                                             
   Description                                                                                      
     l       E           TYP  RCUT    TYP  RCUT                                                     
     0    -17.4058016     23  2.300                                                                 
     0    -18.7663842     23  2.300                                                                 
     1     -7.0850686     23  2.300                                                                 
     1     -4.2150896     23  2.300                                                                 
     2     -7.0750295     23  2.300                                                                 
     3     -1.3605826     23  2.300                                                                 
  local pseudopotential read in
  partial core-charges read in
  partial kinetic energy density read in
  atomic valenz-charges read in
  non local Contribution for L=            0  read in
    real space projection operators read in
  non local Contribution for L=            0  read in
    real space projection operators read in
  non local Contribution for L=            1  read in
    real space projection operators read in
  non local Contribution for L=            1  read in
    real space projection operators read in
  non local Contribution for L=            2  read in
    real space projection operators read in
    PAW grid and wavefunctions read in
 
   number of l-projection  operators is LMAX  =            5
   number of lm-projection operators is LMMAX =           13
 
 POTCAR:    PAW_PBE Pb 08Apr2002                  
   SHA256 =  797118a27cf1bcd06b9881c67a26cdde129e3cd1a551dd4a281f9681ce847303 Pb/POTCAR             
   COPYR  = (c) Copyright 08Apr2002 Georg Kresse                                                    
   COPYR  = This file is part of the software VASP. Any use, copying, and all other rights are regul
   COPYR  = If you do not have a valid VASP license, you may not use, copy or distribute this file. 
   VRHFIN =Pb:                                                                                      
   LEXCH  = PE                                                                                      
   EATOM  =    96.9868 eV,    7.1283 Ry                                                             
                                                                                                    
   TITEL  = PAW_PBE Pb 08Apr2002                                                                    
   LULTRA =        F    use ultrasoft PP ?                                                          
   IUNSCR =        1    unscreen: 0-lin 1-nonlin 2-no                                               
   RPACOR =    2.200    partial core radius                                                         
   POMASS =  207.200; ZVAL   =    4.000    mass and valenz                                          
   RCORE  =    3.100    outmost cutoff radius                                                       
   RWIGS  =    3.260; RWIGS  =    1.725    wigner-seitz radius (au A)                               
   ENMAX  =   97.973; ENMIN  =   73.480 eV                                                          
   ICORE  =        3    local potential                                                             
   LCOR   =        T    correct aug charges                                                         
   LPAW   =        T    paw PP                                                                      
   EAUG   =  234.873                                                                                
   DEXC   =    0.000                                                                                
   RMAX   =    3.158    core radius for proj-oper                                                   
   RAUG   =    1.300    factor for augmentation sphere                                              
   RDEP   =    3.202    radius for radial grids                                                     
   RDEPT  =    2.659    core radius for aug-charge                                                  
                                                                                                    
   Atomic configuration                                                                             
   17 entries                                                                                       
     n  l   j            E        occ.                                                              
     1  0  0.50    -88091.8466   2.0000                                                             
     2  0  0.50    -15753.4197   2.0000                                                             
     2  1  1.50    -13508.1797   6.0000                                                             
     3  0  0.50     -3781.7194   2.0000                                                             
     3  1  1.50     -3138.2529   6.0000                                                             
     3  2  2.50     -2483.2977  10.0000                                                             
     4  0  0.50      -856.2895   2.0000                                                             
     4  1  1.50      -645.4943   6.0000                                                             
     4  2  2.50      -401.8768  10.0000                                                             
     4  3  3.50      -132.9059  14.0000                                                             
     5  0  0.50      -144.0950   2.0000                                                             
     5  1  1.50       -85.7879   6.0000                                                             
     5  2  2.50       -21.1769  10.0000                                                             
     6  0  0.50       -12.0372   2.0000                                                             
     6  1  1.50        -3.4971   2.0000                                                             
     6  2  2.50        -1.3606   0.0000                                                             
     5  3  2.50        -2.7212   0.0000                                                             
   Description                                                                                      
     l       E           TYP  RCUT    TYP  RCUT                                                     
     0    -12.0371566     23  3.100                                                                 
     0    -13.3977392     23  3.100                                                                 
     1     -3.4971341     23  3.100                                                                 
     1     -5.4423304     23  3.100                                                                 
     2     -1.3605826     23  3.100                                                                 
     3     -1.3605826     23  3.100                                                                 
  local pseudopotential read in
  partial core-charges read in
  partial kinetic energy density read in
  atomic valenz-charges read in
  non local Contribution for L=            0  read in
    real space projection operators read in
  non local Contribution for L=            0  read in
    real space projection operators read in
  non local Contribution for L=            1  read in
    real space projection operators read in
  non local Contribution for L=            1  read in
    real space projection operators read in
  non local Contribution for L=            2  read in
    real space projection operators read in
    PAW grid and wavefunctions read in
 
   number of l-projection  operators is LMAX  =            5
   number of lm-projection operators is LMMAX =           13
 
 Optimization of the real space projectors (new method)

 maximal supplied QI-value         = 34.20
 optimisation between [QCUT,QGAM] = [ 11.29, 22.57] = [ 35.68,142.71] Ry 
 Optimized for a Real-space Cutoff    1.16 Angstroem

   l    n(q)    QCUT    max X(q) W(low)/X(q) W(high)/X(q)  e(spline) 
   0      8    11.287    19.460    0.40E-03    0.73E-03    0.16E-06
   0      8    11.287    12.209    0.38E-03    0.70E-03    0.15E-06
   1      7    11.287     4.655    0.22E-03    0.25E-04    0.22E-06
 Optimization of the real space projectors (new method)

 maximal supplied QI-value         = 25.13
 optimisation between [QCUT,QGAM] = [ 11.31, 22.87] = [ 35.82,146.48] Ry 
 Optimized for a Real-space Cutoff    1.00 Angstroem

   l    n(q)    QCUT    max X(q) W(low)/X(q) W(high)/X(q)  e(spline) 
   0      7    11.310   115.676    0.43E-03    0.13E-02    0.19E-06
   0      7    11.310    87.132    0.43E-03    0.13E-02    0.18E-06
   1      6    11.310     4.429    0.42E-03    0.74E-03    0.11E-06
   1      6    11.310     2.733    0.34E-03    0.55E-03    0.92E-07
 Optimization of the real space projectors (new method)

 maximal supplied QI-value         = 25.13
 optimisation between [QCUT,QGAM] = [ 11.31, 22.87] = [ 35.82,146.48] Ry 
 Optimized for a Real-space Cutoff    1.27 Angstroem

   l    n(q)    QCUT    max X(q) W(low)/X(q) W(high)/X(q)  e(spline) 
   0      9    11.310    79.467    0.75E-04    0.16E-03    0.36E-06
   0      9    11.310    66.151    0.74E-04    0.16E-03    0.36E-06
   1      8    11.310    17.416    0.35E-03    0.12E-03    0.95E-06
   1      8    11.310    12.382    0.37E-03    0.13E-03    0.98E-06
 Optimization of the real space projectors (new method)

 maximal supplied QI-value         = 16.25
 optimisation between [QCUT,QGAM] = [ 11.38, 22.75] = [ 36.24,144.96] Ry 
 Optimized for a Real-space Cutoff    1.31 Angstroem

   l    n(q)    QCUT    max X(q) W(low)/X(q) W(high)/X(q)  e(spline) 
   0      9    11.376   194.483    0.24E-03    0.23E-03    0.67E-07
   0      9    11.376   190.334    0.23E-03    0.22E-03    0.65E-07
   1      8    11.376   116.687    0.25E-03    0.63E-04    0.16E-06
   1      8    11.376    88.696    0.25E-03    0.61E-04    0.16E-06
   2      8    11.376     4.877    0.17E-03    0.14E-03    0.29E-07
 Optimization of the real space projectors (new method)

 maximal supplied QI-value         = 12.09
 optimisation between [QCUT,QGAM] = [ 11.37, 22.86] = [ 36.19,146.31] Ry 
 Optimized for a Real-space Cutoff    1.66 Angstroem

   l    n(q)    QCUT    max X(q) W(low)/X(q) W(high)/X(q)  e(spline) 
   0     11    11.369   135.111    0.12E-03    0.69E-04    0.19E-05
   0     11    11.369   146.850    0.11E-03    0.65E-04    0.18E-05
   1     11    11.369   148.016    0.17E-03    0.32E-03    0.89E-06
   1     11    11.369   122.989    0.17E-03    0.32E-03    0.91E-06
   2     10    11.369     8.916    0.12E-03    0.45E-04    0.33E-06
  PAW_PBE H 15Jun2001                   :
 energy of atom  1       EATOM=  -12.4884
 kinetic energy error for atom=    0.0020 (will be added to EATOM!!)
  PAW_PBE C 08Apr2002                   :
 energy of atom  2       EATOM= -147.1560
 kinetic energy error for atom=    0.0076 (will be added to EATOM!!)
  PAW_PBE N 08Apr2002                   :
 energy of atom  3       EATOM= -264.5486
 kinetic energy error for atom=    0.0138 (will be added to EATOM!!)
  PAW_PBE I 08Apr2002                   :
 energy of atom  4       EATOM= -315.8678
 kinetic energy error for atom=    0.0009 (will be added to EATOM!!)
  PAW_PBE Pb 08Apr2002                  :
 energy of atom  5       EATOM=  -96.9868
 kinetic energy error for atom=    0.0000 (will be added to EATOM!!)
 
 
 POSCAR:  H  C  N  I Pb
  positions in cartesian coordinates
  No initial velocities read in
 exchange correlation table for  LEXCH =        8
   RHO(1)=    0.500       N(1)  =     2000
   RHO(2)=  100.500       N(2)  =     4000
 


--------------------------------------------------------------------------------------------------------


 ion  position               nearest neighbor table
   1  0.437  0.310  0.573- 187 1.04
   2  0.429  0.836  0.573- 188 1.05
   3  0.981  0.318  0.582- 189 1.04
   4  0.964  0.809  0.581- 190 1.03
   5  0.313  0.960  0.576- 194 1.03
   6  0.325  0.563  0.575- 195 1.02
   7  0.796  0.072  0.580- 196 1.01
   8  0.034  0.137  0.562- 183 1.02
   9  0.059  0.642  0.562- 184 1.03
  10  0.576  0.183  0.553- 185 1.03
  11  0.528  0.663  0.564- 186 1.01
  12  0.355  0.023  0.558- 194 1.03
  13  0.281  0.624  0.557- 195 1.04
  14  0.868  0.038  0.565- 196 1.04
  15  0.005  0.182  0.585- 183 1.04
  16  0.012  0.680  0.584- 184 1.04
  17  0.562  0.257  0.570- 185 1.04
  18  0.460  0.700  0.580- 186 1.02
  19  0.276  0.435  0.577- 191 1.02
  20  0.176  0.942  0.573- 192 1.02
  21  0.677  0.010  0.578- 193 1.02
  22  0.368  0.267  0.558- 187 1.02
  23  0.487  0.881  0.555- 188 1.02
  24  0.016  0.361  0.559- 189 1.03
  25  0.988  0.857  0.558- 190 1.03
  26  0.195  0.417  0.562- 191 1.03
  27  0.130  0.998  0.555- 192 1.04
  28  0.673  0.929  0.562- 193 1.03
  29  0.450  0.182  0.543- 146 1.08
  30  0.555  0.775  0.547- 147 1.09
  31  0.044  0.248  0.542- 144 1.09
  32  0.049  0.753  0.543- 145 1.08
  33  0.193  0.535  0.547- 148 1.10
  34  0.239  0.056  0.543- 149 1.10
  35  0.793  0.941  0.551- 150 1.10
  36  0.470  0.322  0.673- 205 1.04
  37  0.433  0.818  0.672- 206 1.03
  38  0.971  0.277  0.682- 207 1.03
  39  0.920  0.768  0.673- 208 1.02
  40  0.299  0.055  0.674- 209 1.04
  41  0.307  0.545  0.675- 210 1.04
  42  0.790  0.065  0.675- 211 1.04
  43  0.792  0.592  0.668- 212 1.02
  44  0.086  0.167  0.645- 197 1.02
  45  0.100  0.698  0.655- 198 1.00
  46  0.578  0.167  0.652- 199 1.01
  47  0.572  0.678  0.657- 200 1.02
  48  0.182  0.411  0.650- 201 1.00
  49  0.173  0.920  0.650- 202 0.99
  50  0.705  0.409  0.661- 203 1.04
  51  0.675  0.920  0.650- 204 1.00
  52  0.069  0.179  0.672- 197 1.01
  53  0.036  0.686  0.676- 198 1.01
  54  0.584  0.239  0.671- 199 1.03
  55  0.530  0.716  0.680- 200 1.03
  56  0.212  0.436  0.675- 201 1.04
  57  0.197  0.951  0.675- 202 1.03
  58  0.698  0.488  0.677- 203 1.02
  59  0.690  0.961  0.675- 204 1.04
  60  0.399  0.297  0.656- 205 1.02
  61  0.422  0.837  0.644- 206 1.02
  62  0.933  0.321  0.660- 207 1.02
  63  0.918  0.826  0.651- 208 1.02
  64  0.329  0.078  0.649- 209 1.01
  65  0.324  0.580  0.650- 210 1.00
  66  0.830  0.079  0.650- 211 1.01
  67  0.843  0.578  0.645- 212 1.06
  68  0.002  0.256  0.635- 151 1.06
  69  0.032  0.785  0.638- 152 1.08
  70  0.460  0.199  0.641- 153 1.09
  71  0.508  0.751  0.633- 154 1.08
  72  0.253  0.996  0.631- 156 1.08
  73  0.250  0.500  0.632- 155 1.08
  74  0.761  0.988  0.633- 158 1.08
  75  0.795  0.459  0.639- 157 1.10
  76  0.449  0.301  0.769- 221 1.02
  77  0.449  0.801  0.769- 222 1.02
  78  0.949  0.301  0.769- 223 1.02
  79  0.949  0.801  0.769- 224 1.02
  80  0.301  0.051  0.769- 225 1.02
  81  0.301  0.551  0.769- 226 1.02
  82  0.801  0.051  0.769- 227 1.02
  83  0.801  0.551  0.769- 228 1.02
  84  0.079  0.171  0.743- 213 1.02
  85  0.079  0.671  0.743- 214 1.02
  86  0.579  0.171  0.743- 215 1.02
  87  0.579  0.671  0.743- 216 1.02
  88  0.171  0.421  0.743- 217 1.02
  89  0.171  0.921  0.743- 218 1.02
  90  0.671  0.421  0.743- 219 1.02
  91  0.671  0.921  0.743- 220 1.02
  92  0.051  0.199  0.769- 213 1.02
  93  0.051  0.699  0.769- 214 1.02
  94  0.551  0.199  0.769- 215 1.02
  95  0.551  0.699  0.769- 216 1.02
  96  0.199  0.449  0.769- 217 1.02
  97  0.199  0.949  0.769- 218 1.02
  98  0.699  0.449  0.769- 219 1.02
  99  0.699  0.949  0.769- 220 1.02
 100  0.421  0.329  0.743- 221 1.02
 101  0.421  0.829  0.743- 222 1.02
 102  0.921  0.329  0.743- 223 1.02
 103  0.921  0.829  0.743- 224 1.02
 104  0.329  0.079  0.743- 225 1.02
 105  0.329  0.579  0.743- 226 1.02
 106  0.829  0.079  0.743- 227 1.02
 107  0.829  0.579  0.743- 228 1.02
 108  0.000  0.250  0.726- 161 1.09
 109  0.000  0.750  0.726- 162 1.09
 110  0.500  0.250  0.726- 159 1.09
 111  0.500  0.750  0.726- 160 1.09
 112  0.250  0.000  0.726- 163 1.09
 113  0.250  0.500  0.726- 164 1.09
 114  0.750  0.000  0.726- 165 1.09
 115  0.750  0.500  0.726- 166 1.09
 116  0.775  0.555  0.521- 173 1.10
 117  0.721  0.474  0.527- 173 1.10
 118  0.873  0.501  0.543- 174 1.10
 119  0.856  0.477  0.570- 174 1.10
 120  0.742  0.639  0.560- 175 1.10
 121  0.802  0.596  0.579- 175 1.10
 122  0.667  0.546  0.571- 176 1.09
 123  0.678  0.454  0.561- 176 1.10
 124  0.613  0.550  0.538- 177 1.11
 125  0.668  0.632  0.538- 177 1.11
 126  0.606  0.647  0.506- 178 1.12
 127  0.687  0.603  0.497- 178 1.10
 128  0.816  0.387  0.530- 179 1.10
 129  0.767  0.374  0.554- 179 1.09
 130  0.863  0.362  0.554- 179 1.10
 131  0.864  0.691  0.557- 180 1.09
 132  0.848  0.645  0.533- 180 1.10
 133  0.908  0.606  0.553- 180 1.10
 134  0.756  0.522  0.601- 181 1.10
 135  0.775  0.431  0.590- 181 1.10
 136  0.686  0.452  0.600- 181 1.09
 137  0.535  0.532  0.506- 182 1.11
 138  0.577  0.551  0.480- 182 1.09
 139  0.694  0.479  0.470- 168 1.11
 140  0.561  0.418  0.524- 169 1.08
 141  0.762  0.360  0.472- 170 1.10
 142  0.628  0.300  0.527- 171 1.09
 143  0.729  0.270  0.501- 172 1.09
 144  0.022  0.248  0.559-  31 1.09 189 1.32 183 1.32
 145  0.024  0.750  0.559-  32 1.08 184 1.31 190 1.31
 146  0.469  0.223  0.554-  29 1.08 187 1.30 185 1.32
 147  0.509  0.772  0.558-  30 1.09 188 1.30 186 1.31
 148  0.237  0.521  0.559-  33 1.10 195 1.30 191 1.32
 149  0.242  0.013  0.555-  34 1.10 194 1.31 192 1.32
 150  0.770  0.981  0.563-  35 1.10 193 1.30 196 1.32
 151  0.009  0.244  0.652-  68 1.06 207 1.31 197 1.32
 152  0.009  0.763  0.653-  69 1.08 208 1.30 198 1.34
 153  0.488  0.232  0.653-  70 1.09 205 1.29 199 1.32
 154  0.497  0.757  0.650-  71 1.08 206 1.31 200 1.32
 155  0.252  0.495  0.649-  73 1.08 201 1.30 210 1.33
 156  0.251  0.999  0.649-  72 1.08 209 1.29 202 1.33
 157  0.774  0.493  0.652-  75 1.10 212 1.29 203 1.31
 158  0.754  1.000  0.650-  74 1.08 211 1.29 204 1.32
 159  0.500  0.250  0.743- 110 1.09 221 1.31 215 1.31
 160  0.500  0.750  0.743- 111 1.09 222 1.31 216 1.31
 161  1.000  0.250  0.743- 108 1.09 223 1.31 213 1.31
 162  1.000  0.750  0.743- 109 1.09 224 1.31 214 1.31
 163  0.250  0.000  0.743- 112 1.09 225 1.31 218 1.31
 164  0.250  0.500  0.743- 113 1.09 226 1.31 217 1.31
 165  0.750  0.000  0.743- 114 1.09 227 1.31 220 1.31
 166  0.750  0.500  0.743- 115 1.09 228 1.31 219 1.31
 167  0.623  0.457  0.497- 169 1.39 168 1.40 182 1.51
 168  0.680  0.440  0.483- 139 1.11 170 1.38 167 1.40
 169  0.605  0.406  0.512- 140 1.08 171 1.38 167 1.39
 170  0.717  0.373  0.484- 141 1.10 168 1.38 172 1.40
 171  0.642  0.339  0.514- 142 1.09 169 1.38 172 1.39
 172  0.699  0.322  0.500- 143 1.09 171 1.39 170 1.40
 173  0.732  0.532  0.532- 116 1.10 117 1.10 229 1.52 177 1.55
 174  0.832  0.476  0.554- 118 1.10 119 1.10 229 1.52 179 1.53
 175  0.790  0.602  0.562- 121 1.10 120 1.10 180 1.51 229 1.51
 176  0.705  0.499  0.570- 122 1.09 123 1.10 181 1.52 229 1.55
 177  0.660  0.578  0.530- 124 1.11 125 1.11 178 1.54 173 1.55
 178  0.637  0.593  0.507- 127 1.10 126 1.12 182 1.53 177 1.54
 179  0.818  0.396  0.547- 129 1.09 128 1.10 130 1.10 174 1.53
 180  0.856  0.636  0.551- 131 1.09 133 1.10 132 1.10 175 1.51
 181  0.733  0.475  0.591- 136 1.09 134 1.10 135 1.10 176 1.52
 182  0.588  0.533  0.497- 138 1.09 137 1.11 167 1.51 178 1.53
 183  0.020  0.185  0.569-   8 1.02  15 1.04 144 1.32
 184  0.034  0.688  0.569-   9 1.03  16 1.04 145 1.31
 185  0.540  0.221  0.559-  10 1.03  17 1.04 146 1.32
 186  0.499  0.709  0.568-  11 1.01  18 1.02 147 1.31
 187  0.423  0.272  0.561-  22 1.02   1 1.04 146 1.30
 188  0.471  0.832  0.561-  23 1.02   2 1.05 147 1.30
 189  0.000  0.312  0.567-  24 1.03   3 1.04 144 1.32
 190  0.986  0.807  0.566-  25 1.03   4 1.03 145 1.31
 191  0.237  0.453  0.566-  19 1.02  26 1.03 148 1.32
 192  0.180  0.980  0.561-  20 1.02  27 1.04 149 1.32
 193  0.700  0.976  0.567-  21 1.02  28 1.03 150 1.30
 194  0.306  1.000  0.564-   5 1.03  12 1.03 149 1.31
 195  0.284  0.572  0.564-   6 1.02  13 1.04 148 1.30
 196  0.814  0.033  0.570-   7 1.01  14 1.04 150 1.32
 197  0.058  0.193  0.657-  52 1.01  44 1.02 151 1.32
 198  0.051  0.712  0.662-  45 1.00  53 1.01 152 1.34
 199  0.555  0.211  0.659-  46 1.01  54 1.03 153 1.32
 200  0.535  0.715  0.663-  47 1.02  55 1.03 154 1.32
 201  0.214  0.444  0.659-  48 1.00  56 1.04 155 1.30
 202  0.204  0.954  0.658-  49 0.99  57 1.03 156 1.33
 203  0.722  0.463  0.664-  58 1.02  50 1.04 157 1.31
 204  0.703  0.958  0.659-  51 1.00  59 1.04 158 1.32
 205  0.451  0.287  0.661-  60 1.02  36 1.04 153 1.29
 206  0.447  0.807  0.656-  61 1.02  37 1.03 154 1.31
 207  0.969  0.282  0.665-  62 1.02  38 1.03 151 1.31
 208  0.945  0.787  0.659-  39 1.02  63 1.02 152 1.30
 209  0.295  0.046  0.658-  64 1.01  40 1.04 156 1.29
 210  0.297  0.543  0.659-  65 1.00  41 1.04 155 1.33
 211  0.793  0.050  0.659-  66 1.01  42 1.04 158 1.29
 212  0.802  0.558  0.655-  43 1.02  67 1.06 157 1.29
 213  0.046  0.204  0.753-  92 1.02  84 1.02 161 1.31
 214  0.046  0.704  0.753-  93 1.02  85 1.02 162 1.31
 215  0.546  0.204  0.753-  94 1.02  86 1.02 159 1.31
 216  0.546  0.704  0.753-  95 1.02  87 1.02 160 1.31
 217  0.204  0.454  0.753-  96 1.02  88 1.02 164 1.31
 218  0.204  0.954  0.753-  97 1.02  89 1.02 163 1.31
 219  0.704  0.454  0.753-  98 1.02  90 1.02 166 1.31
 220  0.704  0.954  0.753-  99 1.02  91 1.02 165 1.31
 221  0.454  0.296  0.753-  76 1.02 100 1.02 159 1.31
 222  0.454  0.796  0.753-  77 1.02 101 1.02 160 1.31
 223  0.954  0.296  0.753-  78 1.02 102 1.02 161 1.31
 224  0.954  0.796  0.753-  79 1.02 103 1.02 162 1.31
 225  0.296  0.046  0.753-  80 1.02 104 1.02 163 1.31
 226  0.296  0.546  0.753-  81 1.02 105 1.02 164 1.31
 227  0.796  0.046  0.753-  82 1.02 106 1.02 165 1.31
 228  0.796  0.546  0.753-  83 1.02 107 1.02 166 1.31
 229  0.766  0.527  0.554- 175 1.51 174 1.52 173 1.52 176 1.55
 230  0.505  0.020  0.553- 304 3.22
 231  0.472  0.507  0.556- 305 3.11
 232  0.989  0.998  0.550- 302 3.50
 233  0.038  0.495  0.553- 303 3.38
 234  0.231  0.233  0.553- 306 3.15
 235  0.258  0.761  0.553- 307 3.15
 236  0.741  0.206  0.555- 308 3.08
 237  0.711  0.790  0.549- 309 3.44
 238  0.002  0.990  0.655- 302 3.07 310 3.13
 239  0.011  0.496  0.656- 311 3.07 303 3.08
 240  0.499  0.009  0.655- 312 3.14 304 3.14
 241  0.506  0.493  0.656- 313 3.08 305 3.14
 242  0.256  0.245  0.655- 314 3.12 306 3.21
 243  0.248  0.753  0.655- 315 3.12 307 3.22
 244  0.745  0.267  0.655- 316 3.14 308 3.25
 245  0.751  0.752  0.654- 317 3.18 309 3.24
 246  0.138  0.105  0.609- 306 3.15 302 3.26
 247  0.147  0.607  0.610- 307 3.13 303 3.18
 248  0.649  0.103  0.612- 308 3.13 304 3.16
 249  0.617  0.636  0.614- 309 3.09 305 3.43
 250  0.358  0.390  0.609- 305 3.13 306 3.39
 251  0.364  0.889  0.608- 304 3.32 307 3.34
 252  0.893  0.363  0.614- 303 3.25 308 3.54
 253  0.869  0.877  0.610- 302 3.14 309 3.32
 254  0.120  0.358  0.611- 306 3.12 303 3.25
 255  0.121  0.870  0.608- 307 3.21 302 3.30
 256  0.579  0.329  0.604- 308 3.26 305 3.31
 257  0.615  0.869  0.612- 309 3.05 304 3.27
 258  0.384  0.132  0.606- 304 3.09 306 3.21
 259  0.388  0.638  0.611- 307 3.22 305 3.30
 260  0.890  0.139  0.614- 302 3.17 308 3.40
 261  0.911  0.645  0.615- 303 3.22 309 3.83
 262  0.000  0.000  0.755- 310 3.13 318 3.27
 263  0.000  0.500  0.755- 311 3.13 319 3.27
 264  0.500  0.000  0.755- 312 3.13 320 3.27
 265  0.500  0.500  0.755- 313 3.13 321 3.27
 266  0.250  0.250  0.755- 314 3.13 322 3.27
 267  0.250  0.750  0.755- 315 3.13 323 3.27
 268  0.750  0.250  0.755- 316 3.13 324 3.27
 269  0.750  0.750  0.755- 317 3.13 325 3.27
 270  0.136  0.114  0.705- 310 3.20 314 3.20
 271  0.136  0.614  0.705- 311 3.20 315 3.20
 272  0.636  0.114  0.705- 312 3.20 316 3.20
 273  0.636  0.614  0.705- 313 3.20 317 3.20
 274  0.364  0.386  0.705- 313 3.20 314 3.20
 275  0.364  0.886  0.705- 312 3.20 315 3.20
 276  0.864  0.386  0.705- 311 3.20 316 3.20
 277  0.864  0.886  0.705- 310 3.20 317 3.20
 278  0.114  0.364  0.705- 314 3.21 311 3.21
 279  0.114  0.864  0.705- 315 3.21 310 3.21
 280  0.614  0.364  0.705- 316 3.21 313 3.21
 281  0.614  0.864  0.705- 317 3.21 312 3.21
 282  0.386  0.136  0.705- 314 3.21 312 3.21
 283  0.386  0.636  0.705- 315 3.21 313 3.21
 284  0.886  0.136  0.705- 316 3.21 310 3.21
 285  0.886  0.636  0.705- 317 3.21 311 3.21
 286  0.135  0.115  0.801- 318 3.22 322 3.22
 287  0.135  0.615  0.801- 319 3.22 323 3.22
 288  0.635  0.115  0.801- 320 3.22 324 3.22
 289  0.635  0.615  0.801- 321 3.22 325 3.22
 290  0.365  0.385  0.801- 321 3.22 322 3.22
 291  0.365  0.885  0.801- 320 3.22 323 3.22
 292  0.865  0.385  0.801- 319 3.22 324 3.22
 293  0.865  0.885  0.801- 318 3.22 325 3.22
 294  0.115  0.365  0.801- 319 3.23 322 3.23
 295  0.115  0.865  0.801- 318 3.23 323 3.23
 296  0.615  0.365  0.801- 321 3.23 324 3.23
 297  0.615  0.865  0.801- 320 3.23 325 3.23
 298  0.385  0.135  0.801- 320 3.23 322 3.23
 299  0.385  0.635  0.801- 321 3.23 323 3.23
 300  0.885  0.135  0.801- 318 3.23 324 3.23
 301  0.885  0.635  0.801- 319 3.23 325 3.23
 302  0.993  0.999  0.606- 238 3.07 253 3.14 260 3.17 246 3.26 255 3.30 232 3.50
 303  0.009  0.499  0.607- 239 3.08 247 3.18 261 3.22 254 3.25 252 3.25 233 3.38
 304  0.503  0.009  0.604- 258 3.09 240 3.14 248 3.16 230 3.22 257 3.27 251 3.32
 305  0.497  0.493  0.605- 231 3.11 250 3.13 241 3.14 259 3.30 256 3.31 249 3.43
 306  0.245  0.241  0.604- 254 3.12 246 3.15 234 3.15 258 3.21 242 3.21 250 3.39
 307  0.248  0.746  0.603- 247 3.13 235 3.15 255 3.21 259 3.22 243 3.22 251 3.34
 308  0.740  0.247  0.603- 236 3.08 248 3.13 244 3.25 256 3.26 260 3.40 252 3.54
 309  0.735  0.754  0.602- 257 3.05 249 3.09 245 3.24 253 3.32 237 3.44 261 3.83
 310  0.000  0.000  0.705- 238 3.13 262 3.13 270 3.20 277 3.20 279 3.21 284 3.21
 311  0.000  0.500  0.705- 239 3.07 263 3.13 271 3.20 276 3.20 278 3.21 285 3.21
 312  0.500  0.000  0.705- 264 3.13 240 3.14 272 3.20 275 3.20 281 3.21 282 3.21
 313  0.500  0.500  0.705- 241 3.08 265 3.13 273 3.20 274 3.20 280 3.21 283 3.21
 314  0.250  0.250  0.705- 242 3.12 266 3.13 270 3.20 274 3.20 282 3.21 278 3.21
 315  0.250  0.750  0.705- 243 3.12 267 3.13 271 3.20 275 3.20 283 3.21 279 3.21
 316  0.750  0.250  0.705- 268 3.13 244 3.14 272 3.20 276 3.20 284 3.21 280 3.21
 317  0.750  0.750  0.705- 269 3.13 245 3.18 273 3.20 277 3.20 285 3.21 281 3.21
 318  0.000  0.000  0.807- 286 3.22 293 3.22 300 3.23 295 3.23 262 3.27
 319  0.000  0.500  0.807- 287 3.22 292 3.22 301 3.23 294 3.23 263 3.27
 320  0.500  0.000  0.807- 288 3.22 291 3.22 298 3.23 297 3.23 264 3.27
 321  0.500  0.500  0.807- 289 3.22 290 3.22 299 3.23 296 3.23 265 3.27
 322  0.250  0.250  0.807- 290 3.22 286 3.22 294 3.23 298 3.23 266 3.27
 323  0.250  0.750  0.807- 291 3.22 287 3.22 299 3.23 295 3.23 267 3.27
 324  0.750  0.250  0.807- 292 3.22 288 3.22 296 3.23 300 3.23 268 3.27
 325  0.750  0.750  0.807- 293 3.22 289 3.22 297 3.23 301 3.23 269 3.27
 

IMPORTANT INFORMATION: All symmetrisations will be switched off!
NOSYMM: (Re-)initialisation of all symmetry stuff for point group C_1.


----------------------------------------------------------------------------------------

                                     Primitive cell                                     

  volume of cell :   20385.2105

  direct lattice vectors                    reciprocal lattice vectors
    18.060800552  0.000000000  0.000000000     0.055368531  0.000015077 -0.000000000
    -0.004918649 18.062799454  0.000000000     0.000000000  0.055362404  0.000000000
     0.000000000  0.000000000 62.487499237     0.000000000 -0.000000000  0.016003201

  length of vectors
    18.060800552 18.062800123 62.487499237     0.055368533  0.055362404  0.016003201

  position of ions in fractional coordinates (direct lattice)
     0.437320225  0.310180828  0.573058833
     0.428696314  0.835683781  0.572893211
     0.981133956  0.317700145  0.582260563
     0.963686511  0.809431655  0.580855009
     0.313003990  0.960301836  0.575788321
     0.324613452  0.562794367  0.575170949
     0.795638570  0.071798104  0.580493852
     0.033979544  0.137029653  0.561789306
     0.058873804  0.642024078  0.562367058
     0.576396118  0.182644017  0.552647401
     0.528301536  0.663286135  0.564335347
     0.354540243  0.023048205  0.558254541
     0.280596534  0.624109818  0.557378694
     0.867764382  0.038337158  0.564535155
     0.005349682  0.182049660  0.585305423
     0.012099379  0.680458430  0.584240635
     0.562284898  0.256513864  0.570363286
     0.459605355  0.700385761  0.579847117
     0.275969526  0.434710994  0.577121046
     0.176364256  0.941937858  0.573077574
     0.676709710  0.010479862  0.578362445
     0.367850080  0.266540174  0.558264309
     0.486547982  0.881236689  0.554683514
     0.015542617  0.360631145  0.559233497
     0.988400950  0.856948901  0.558107722
     0.194581785  0.417119381  0.562337938
     0.130026528  0.997868763  0.554738457
     0.673275449  0.928957675  0.562395384
     0.450386595  0.181729006  0.542545405
     0.555417093  0.774910616  0.547219558
     0.044151590  0.248217708  0.542444311
     0.049441778  0.753148406  0.542883486
     0.193018982  0.534751606  0.547048870
     0.238862459  0.056013908  0.542898870
     0.793119045  0.940522701  0.551131840
     0.470149354  0.322016674  0.672754432
     0.432960551  0.818162547  0.671669071
     0.970712120  0.276569863  0.681846155
     0.919653830  0.768443531  0.672829948
     0.299443733  0.054763437  0.674303631
     0.306932817  0.545047792  0.674894509
     0.789684273  0.065168501  0.674980280
     0.792247736  0.591805701  0.667932667
     0.086294560  0.167334096  0.644885943
     0.099673105  0.698229556  0.655487368
     0.578251587  0.166957806  0.651763112
     0.571895929  0.678201170  0.656816247
     0.181811929  0.410608473  0.649975523
     0.173292681  0.920057527  0.649563514
     0.704564531  0.409115354  0.660766744
     0.675083369  0.920155110  0.650401512
     0.069159834  0.179129644  0.672274417
     0.035813733  0.686035504  0.675852830
     0.583782042  0.238585902  0.670600803
     0.529821290  0.715688806  0.679694236
     0.211990784  0.435782524  0.675120079
     0.196998218  0.951244153  0.674635973
     0.697698274  0.487830394  0.677005649
     0.689762908  0.961242437  0.675177402
     0.398530372  0.296712002  0.655672341
     0.421581515  0.836569780  0.644337555
     0.932615988  0.320592086  0.659586393
     0.918064291  0.826440329  0.650673356
     0.328561103  0.077603806  0.648695116
     0.324315377  0.580250238  0.649626698
     0.829937899  0.078755212  0.650036326
     0.843228405  0.577870170  0.644673987
     0.002001405  0.255545501  0.635183563
     0.032125072  0.784834895  0.637872089
     0.459843375  0.198917536  0.640749435
     0.507845478  0.750860523  0.633336392
     0.253408313  0.996423879  0.631375917
     0.250040656  0.499738757  0.632057388
     0.760897789  0.988398609  0.632903078
     0.794628335  0.459393287  0.638848359
     0.448745018  0.301283966  0.768889017
     0.448745007  0.801283913  0.768889017
     0.948744965  0.301283966  0.768889017
     0.948745007  0.801283913  0.768889017
     0.301275995  0.051294496  0.768872961
     0.301276011  0.551294499  0.768872961
     0.801275943  0.051294496  0.768872961
     0.801275984  0.551294499  0.768872961
     0.078771004  0.171180501  0.743441971
     0.078771006  0.671180448  0.743441971
     0.578771004  0.171180501  0.743441971
     0.578770992  0.671180448  0.743441971
     0.171199499  0.421174482  0.743421032
     0.171199501  0.921174508  0.743421032
     0.671199512  0.421174482  0.743421032
     0.671199501  0.921174508  0.743421032
     0.051256000  0.198714991  0.768889017
     0.051256002  0.698714925  0.768889017
     0.551256027  0.198714991  0.768889017
     0.551256016  0.698714925  0.768889017
     0.198723491  0.448703970  0.768872046
     0.198723493  0.948703970  0.768872046
     0.698723518  0.448703970  0.768872046
     0.698723507  0.948703970  0.768872046
     0.421231519  0.328817467  0.743441971
     0.421231508  0.828817440  0.743441971
     0.921231466  0.328817467  0.743441971
     0.921231508  0.828817440  0.743441971
     0.328800503  0.078824997  0.743421032
     0.328800492  0.578824964  0.743421032
     0.828800477  0.078824997  0.743421032
     0.828800519  0.578824964  0.743421032
     0.000003500  0.250001478  0.725821992
     0.000003500  0.750001452  0.725821992
     0.500003506  0.250001478  0.725821992
     0.500003495  0.750001452  0.725821992
     0.250000502  0.000000000  0.725803983
     0.250000517  0.500000000  0.725803983
     0.750000502  0.000000000  0.725803983
     0.750000490  0.500000000  0.725803983
     0.775463429  0.554723235  0.521188717
     0.720516389  0.474308215  0.526925826
     0.873300170  0.500653688  0.542880800
     0.855797272  0.476607397  0.569875518
     0.742316445  0.639330762  0.560092921
     0.802378366  0.595704020  0.578970110
     0.667234692  0.546380564  0.571051046
     0.677950259  0.453645465  0.561183594
     0.613238736  0.550065422  0.538303590
     0.667707051  0.632386861  0.537895794
     0.606100276  0.646810665  0.506303751
     0.686739740  0.602798764  0.496788786
     0.816338904  0.387345964  0.529867577
     0.767007686  0.374039333  0.554072613
     0.863022722  0.361719596  0.553950702
     0.863962089  0.691107674  0.557312702
     0.848055630  0.644873464  0.533259368
     0.907957253  0.605562777  0.553075649
     0.755957956  0.521755241  0.600719700
     0.774995506  0.431100740  0.590226207
     0.685915426  0.452348859  0.600020768
     0.534508093  0.531543301  0.505504366
     0.576630629  0.551073013  0.480385115
     0.693830980  0.479245857  0.469656742
     0.561083074  0.418357487  0.523742878
     0.761989228  0.359656077  0.472282725
     0.627839543  0.299725484  0.526691893
     0.728598874  0.270158031  0.501332145
     0.022054697  0.248285474  0.558701591
     0.024135763  0.749970248  0.558506361
     0.469439816  0.223071720  0.553864198
     0.509230885  0.771996764  0.558445558
     0.236871150  0.520638464  0.558626930
     0.242010156  0.013448195  0.555482930
     0.770375476  0.981143630  0.562510336
     0.009033527  0.244284596  0.651780205
     0.009043628  0.762872265  0.652504715
     0.487623198  0.231817263  0.652980152
     0.496956555  0.757306700  0.650156834
     0.252399027  0.494819437  0.649254920
     0.251412650  0.999407511  0.648606719
     0.773676049  0.492944590  0.652168344
     0.753509049  0.999671595  0.649760942
     0.499988984  0.249994984  0.743277021
     0.499989025  0.749994958  0.743277021
     0.999988984  0.249994984  0.743277021
     0.999989025  0.749994958  0.743277021
     0.250000502  0.000001000  0.743255960
     0.250000517  0.500001003  0.743255960
     0.750000502  0.000001000  0.743255960
     0.750000491  0.500001003  0.743255960
     0.623344216  0.457349171  0.496966373
     0.679899753  0.439639053  0.482590146
     0.604834633  0.405629492  0.512499845
     0.717299431  0.372873876  0.483738203
     0.641825605  0.339037940  0.514100202
     0.698711494  0.322150965  0.499838774
     0.732161779  0.531857447  0.531556330
     0.832456857  0.475711684  0.553649555
     0.790460036  0.602141749  0.561791931
     0.705036583  0.499425983  0.569646163
     0.659681846  0.577846728  0.529894315
     0.636960402  0.593263288  0.506613200
     0.817941191  0.395545975  0.547231645
     0.855995305  0.635862322  0.550519901
     0.733317462  0.475331171  0.591445811
     0.587906795  0.532925545  0.496780789
     0.020421905  0.185074678  0.569299780
     0.033682741  0.687892135  0.569005471
     0.540479468  0.221440851  0.558798473
     0.498656972  0.708777956  0.568283158
     0.423158901  0.272006848  0.561277607
     0.471011207  0.831923635  0.561418321
     0.000166308  0.312077585  0.566648310
     0.985803155  0.806662363  0.565674116
     0.236760014  0.452542626  0.566477072
     0.179995481  0.980103135  0.561119067
     0.700286533  0.975919324  0.567351026
     0.306421920  0.999844929  0.564149336
     0.284105969  0.571684919  0.564146772
     0.814306300  0.032582673  0.570343690
     0.058205951  0.192926871  0.656982296
     0.050742733  0.711601419  0.662080850
     0.554694238  0.210981904  0.658877938
     0.534970752  0.714749007  0.663312969
     0.213611382  0.444134592  0.658736797
     0.204083881  0.954279179  0.658252691
     0.722248414  0.462536862  0.664165373
     0.702894457  0.957535778  0.659082325
     0.451071817  0.287169477  0.660778831
     0.447474746  0.806645943  0.656008407
     0.968598794  0.282135691  0.665426550
     0.944905241  0.786570989  0.659229510
     0.295061894  0.045980199  0.657839401
     0.297289348  0.543365182  0.658564399
     0.792680602  0.050401172  0.658925006
     0.802364684  0.557679695  0.655308804
     0.045862501  0.204119496  0.752725994
     0.045862500  0.704119456  0.752725994
     0.545862507  0.204119496  0.752725994
     0.545862496  0.704119456  0.752725994
     0.204119002  0.454101003  0.752704994
     0.204118991  0.954100951  0.752704994
     0.704118976  0.454101003  0.752704994
     0.704118964  0.954100951  0.752704994
     0.454140018  0.295888490  0.752726971
     0.454140007  0.795888516  0.752726971
     0.954140018  0.295888490  0.752726971
     0.954140060  0.795888516  0.752726971
     0.295882492  0.045900498  0.752704994
     0.295882481  0.545900528  0.752704994
     0.795882439  0.045900498  0.752704994
     0.795882481  0.545900528  0.752704994
     0.765748391  0.526883534  0.553889349
     0.505017951  0.020470171  0.553069361
     0.472002981  0.506641106  0.556237170
     0.989480625  0.997947363  0.549929939
     0.038072304  0.494527201  0.553151836
     0.230978487  0.233492930  0.553447855
     0.257849404  0.760623505  0.553110629
     0.740826567  0.206473297  0.555211086
     0.711230002  0.789819948  0.548588911
     0.001700485  0.990216547  0.654880740
     0.011406028  0.495710345  0.655810858
     0.499472164  0.008876686  0.654709746
     0.506337418  0.493021252  0.655561357
     0.256062374  0.244588420  0.654872132
     0.248162762  0.752518107  0.654899604
     0.745343933  0.266663483  0.654763773
     0.750965676  0.752211247  0.653906180
     0.138300212  0.104513455  0.609496235
     0.147219504  0.606907428  0.609995481
     0.648689838  0.102623786  0.611686310
     0.617348632  0.636483646  0.614312140
     0.357970456  0.389848047  0.609104677
     0.364327441  0.889182796  0.607712553
     0.893314862  0.362543266  0.613971374
     0.869098762  0.877037054  0.609665214
     0.119632483  0.357835084  0.610877066
     0.120961842  0.869522674  0.607625500
     0.579313517  0.329236179  0.604396338
     0.614908436  0.869007104  0.611502130
     0.384315780  0.132161335  0.606095653
     0.387814745  0.638371797  0.610944645
     0.889964046  0.138762381  0.613517792
     0.911224051  0.644925629  0.614798810
     0.000000000  0.000000000  0.754927972
     0.000000000  0.500000000  0.754927972
     0.500000000  0.000000000  0.754927972
     0.499999989  0.500000000  0.754927972
     0.250000496  0.250000000  0.754939022
     0.250000511  0.749999974  0.754939022
     0.750000470  0.250000000  0.754939022
     0.750000458  0.749999974  0.754939022
     0.135790500  0.114209997  0.704782994
     0.135790502  0.614209984  0.704782994
     0.635790447  0.114209997  0.704782994
     0.635790488  0.614209984  0.704782994
     0.364209516  0.385789989  0.704782994
     0.364209505  0.885789963  0.704782994
     0.864209542  0.385789989  0.704782994
     0.864209531  0.885789963  0.704782994
     0.114217990  0.364218986  0.704780979
     0.114217992  0.864218986  0.704780979
     0.614218004  0.364218986  0.704780979
     0.614217992  0.864218986  0.704780979
     0.385782012  0.135781489  0.704782017
     0.385782001  0.635781489  0.704782017
     0.885781985  0.135781489  0.704782017
     0.885782027  0.635781489  0.704782017
     0.134667000  0.115332001  0.801256025
     0.134666989  0.615331988  0.801256025
     0.634666987  0.115332001  0.801256025
     0.634666976  0.615331988  0.801256025
     0.365333002  0.384667985  0.801256025
     0.365332990  0.884667959  0.801256025
     0.865332949  0.384667985  0.801256025
     0.865332938  0.884667959  0.801256025
     0.115328503  0.365337004  0.801264999
     0.115328505  0.865336978  0.801264999
     0.615328503  0.365337004  0.801264999
     0.615328492  0.865336978  0.801264999
     0.384671513  0.134662996  0.801264999
     0.384671501  0.634662970  0.801264999
     0.884671486  0.134662996  0.801264999
     0.884671528  0.634662970  0.801264999
     0.992539782  0.998979054  0.605952558
     0.008730918  0.498586869  0.606613396
     0.503004028  0.009430970  0.604477775
     0.496865253  0.493019088  0.605306555
     0.244565823  0.241273147  0.603655406
     0.248127751  0.746014117  0.603328315
     0.739920627  0.246647610  0.603090840
     0.734642154  0.754178067  0.602313341
     0.000000500  0.000000500  0.704828963
     0.000000500  0.500000475  0.704828963
     0.500000475  0.000000500  0.704828963
     0.500000464  0.500000475  0.704828963
     0.249999994  0.249999472  0.704824995
     0.250000010  0.749999498  0.704824995
     0.749999994  0.249999472  0.704824995
     0.749999983  0.749999498  0.704824995
     0.000000000  0.000000000  0.807317968
     0.000000000  0.500000000  0.807317968
     0.500000000  0.000000000  0.807317968
     0.499999989  0.500000000  0.807317968
     0.249999994  0.250000000  0.807317968
     0.250000010  0.749999974  0.807317968
     0.749999994  0.250000000  0.807317968
     0.749999983  0.749999974  0.807317968

  ion indices of the primitive-cell ions
   primitive index   ion index
                 1           1
                 2           2
                 3           3
                 4           4
                 5           5
                 6           6
                 7           7
                 8           8
                 9           9
                10          10
                11          11
                12          12
                13          13
                14          14
                15          15
                16          16
                17          17
                18          18
                19          19
                20          20
                21          21
                22          22
                23          23
                24          24
                25          25
                26          26
                27          27
                28          28
                29          29
                30          30
                31          31
                32          32
                33          33
                34          34
                35          35
                36          36
                37          37
                38          38
                39          39
                40          40
                41          41
                42          42
                43          43
                44          44
                45          45
                46          46
                47          47
                48          48
                49          49
                50          50
                51          51
                52          52
                53          53
                54          54
                55          55
                56          56
                57          57
                58          58
                59          59
                60          60
                61          61
                62          62
                63          63
                64          64
                65          65
                66          66
                67          67
                68          68
                69          69
                70          70
                71          71
                72          72
                73          73
                74          74
                75          75
                76          76
                77          77
                78          78
                79          79
                80          80
                81          81
                82          82
                83          83
                84          84
                85          85
                86          86
                87          87
                88          88
                89          89
                90          90
                91          91
                92          92
                93          93
                94          94
                95          95
                96          96
                97          97
                98          98
                99          99
               100         100
               101         101
               102         102
               103         103
               104         104
               105         105
               106         106
               107         107
               108         108
               109         109
               110         110
               111         111
               112         112
               113         113
               114         114
               115         115
               116         116
               117         117
               118         118
               119         119
               120         120
               121         121
               122         122
               123         123
               124         124
               125         125
               126         126
               127         127
               128         128
               129         129
               130         130
               131         131
               132         132
               133         133
               134         134
               135         135
               136         136
               137         137
               138         138
               139         139
               140         140
               141         141
               142         142
               143         143
               144         144
               145         145
               146         146
               147         147
               148         148
               149         149
               150         150
               151         151
               152         152
               153         153
               154         154
               155         155
               156         156
               157         157
               158         158
               159         159
               160         160
               161         161
               162         162
               163         163
               164         164
               165         165
               166         166
               167         167
               168         168
               169         169
               170         170
               171         171
               172         172
               173         173
               174         174
               175         175
               176         176
               177         177
               178         178
               179         179
               180         180
               181         181
               182         182
               183         183
               184         184
               185         185
               186         186
               187         187
               188         188
               189         189
               190         190
               191         191
               192         192
               193         193
               194         194
               195         195
               196         196
               197         197
               198         198
               199         199
               200         200
               201         201
               202         202
               203         203
               204         204
               205         205
               206         206
               207         207
               208         208
               209         209
               210         210
               211         211
               212         212
               213         213
               214         214
               215         215
               216         216
               217         217
               218         218
               219         219
               220         220
               221         221
               222         222
               223         223
               224         224
               225         225
               226         226
               227         227
               228         228
               229         229
               230         230
               231         231
               232         232
               233         233
               234         234
               235         235
               236         236
               237         237
               238         238
               239         239
               240         240
               241         241
               242         242
               243         243
               244         244
               245         245
               246         246
               247         247
               248         248
               249         249
               250         250
               251         251
               252         252
               253         253
               254         254
               255         255
               256         256
               257         257
               258         258
               259         259
               260         260
               261         261
               262         262
               263         263
               264         264
               265         265
               266         266
               267         267
               268         268
               269         269
               270         270
               271         271
               272         272
               273         273
               274         274
               275         275
               276         276
               277         277
               278         278
               279         279
               280         280
               281         281
               282         282
               283         283
               284         284
               285         285
               286         286
               287         287
               288         288
               289         289
               290         290
               291         291
               292         292
               293         293
               294         294
               295         295
               296         296
               297         297
               298         298
               299         299
               300         300
               301         301
               302         302
               303         303
               304         304
               305         305
               306         306
               307         307
               308         308
               309         309
               310         310
               311         311
               312         312
               313         313
               314         314
               315         315
               316         316
               317         317
               318         318
               319         319
               320         320
               321         321
               322         322
               323         323
               324         324
               325         325

----------------------------------------------------------------------------------------

 
 
 KPOINTS: Automatic Mesh                          

Automatic generation of k-mesh.
 Grid dimensions read from file:
 generate k-points for:    3    3    1

 Generating k-lattice:

  Cartesian coordinates                     Fractional coordinates (reciprocal lattice)
     0.018456177  0.000005026 -0.000000000     0.333333333  0.000000000  0.000000000
     0.000000000  0.018454135  0.000000000     0.000000000  0.333333333  0.000000000
     0.000000000 -0.000000000  0.016003201     0.000000000  0.000000000  1.000000000

  Length of vectors
     0.018456178  0.018454135  0.016003201

  Shift w.r.t. Gamma in fractional coordinates (k-lattice)
     0.000000000  0.000000000  0.000000000

 
 Subroutine IBZKPT returns following result:
 ===========================================
 
 Found      5 irreducible k-points:
 
 Following reciprocal coordinates:
            Coordinates               Weight
  0.000000  0.000000  0.000000      1.000000
  0.333333  0.000000  0.000000      2.000000
  0.000000  0.333333  0.000000      2.000000
  0.333333  0.333333  0.000000      2.000000
 -0.333333  0.333333  0.000000      2.000000
 
 Following cartesian coordinates:
            Coordinates               Weight
  0.000000  0.000000  0.000000      1.000000
  0.018456  0.000005  0.000000      2.000000
  0.000000  0.018454  0.000000      2.000000
  0.018456  0.018459  0.000000      2.000000
 -0.018456  0.018449  0.000000      2.000000
 


--------------------------------------------------------------------------------------------------------




 Dimension of arrays:
   k-points           NKPTS =      5   k-points in BZ     NKDIM =      5   number of bands    NBANDS=    732
   number of dos      NEDOS =    301   number of ions     NIONS =    325
   non local maximal  LDIM  =      5   non local SUM 2l+1 LMDIM =     13
   total plane-waves  NPLWV = ******
   max r-space proj   IRMAX =   3336   max aug-charges    IRDMAX=  19845
   dimension x,y,z NGX =   100 NGY =  100 NGZ =  350
   dimension x,y,z NGXF=   200 NGYF=  200 NGZF=  700
   support grid    NGXF=   200 NGYF=  200 NGZF=  700
   ions per type =             143  39  47  72  24
   NGX,Y,Z   is equivalent  to a cutoff of   9.20,  9.20,  9.31 a.u.
   NGXF,Y,Z  is equivalent  to a cutoff of  18.41, 18.41, 18.62 a.u.

 SYSTEM =  PSC                                     
 POSCAR =   H  C  N  I Pb                          

 Startparameter for this run:
   NWRITE =      2    write-flag & timer
   PREC   = normal    normal or accurate (medium, high low for compatibility)
   ISTART =      0    job   : 0-new  1-cont  2-samecut
   ICHARG =      1    charge: 1-file 2-atom 10-const
   ISPIN  =      1    spin polarized calculation?
   LNONCOLLINEAR =      F non collinear calculations
   LSORBIT =      F    spin-orbit coupling
   INIWAV =      1    electr: 0-lowe 1-rand  2-diag
   LASPH  =      F    aspherical Exc in radial PAW
 Electronic Relaxation 1
   ENCUT  =  500.0 eV  36.75 Ry    6.06 a.u.  32.93 32.93113.93*2*pi/ulx,y,z
   ENINI  =  500.0     initial cutoff
   ENAUG  =  644.9 eV  augmentation charge cutoff
   NELM   =    600;   NELMIN=  2; NELMDL=  0     # of ELM steps 
   EDIFF  = 0.1E-03   stopping-criterion for ELM
   LREAL  =      T    real-space projection
   NLSPLINE    = F    spline interpolate recip. space projectors
   LCOMPAT=      F    compatible to vasp.4.4
   GGA_COMPAT  = F    GGA compatible to vasp.4.4-vasp.4.6
   LMAXPAW     = -100 max onsite density
   LMAXMIX     =    2 max onsite mixed and CHGCAR
   VOSKOWN=      0    Vosko Wilk Nusair interpolation
   ROPT   =   -0.00050  -0.00050  -0.00050  -0.00050
   ROPT   =   -0.00050
 Ionic relaxation
   EDIFFG = 0.1E-02   stopping-criterion for IOM
   NSW    =      0    number of steps for IOM
   NBLOCK =      1;   KBLOCK =      1    inner block; outer block 
   IBRION =     -1    ionic relax: 0-MD 1-quasi-New 2-CG
   NFREE  =      0    steps in history (QN), initial steepest desc. (CG)
   ISIF   =      2    stress and relaxation
   IWAVPR =     10    prediction:  0-non 1-charg 2-wave 3-comb
   ISYM   =      0    0-nonsym 1-usesym 2-fastsym
   LCORR  =      T    Harris-Foulkes like correction to forces

   POTIM  = 0.5000    time-step for ionic-motion
   TEIN   =    0.0    initial temperature
   TEBEG  =    0.0;   TEEND  =   0.0 temperature during run
   SMASS  =  -3.00    Nose mass-parameter (am)
   estimated Nose-frequenzy (Omega)   =  0.10E-29 period in steps = 0.13E+47 mass=  -0.745E-26a.u.
   SCALEE = 1.0000    scale energy and forces
   NPACO  =    256;   APACO  = 16.0  distance and # of slots for P.C.
   PSTRESS=    0.0 pullay stress

  Mass of Ions in am
   POMASS =   1.00 12.01 14.00126.90207.20
  Ionic Valenz
   ZVAL   =   1.00  4.00  5.00  7.00  4.00
  Atomic Wigner-Seitz radii
   RWIGS  =  -1.00 -1.00 -1.00 -1.00 -1.00
  virtual crystal weights 
   VCA    =   1.00  1.00  1.00  1.00  1.00
   NELECT =    1134.0000    total number of electrons
   NUPDOWN=      -1.0000    fix difference up-down

 DOS related values:
   EMIN   =  10.00;   EMAX   =-10.00  energy-range for DOS
   EFERMI =   0.00
   ISMEAR =     0;   SIGMA  =   0.05  broadening in eV -4-tet -1-fermi 0-gaus

 Electronic relaxation 2 (details)
   IALGO  =     38    algorithm
   LDIAG  =      T    sub-space diagonalisation (order eigenvalues)
   LSUBROT=      F    optimize rotation matrix (better conditioning)
   TURBO    =      0    0=normal 1=particle mesh
   IRESTART =      0    0=no restart 2=restart with 2 vectors
   NREBOOT  =      0    no. of reboots
   NMIN     =      0    reboot dimension
   EREF     =   0.00    reference energy to select bands
   IMIX   =      4    mixing-type and parameters
     AMIX     =   0.40;   BMIX     =  0.01
     AMIX_MAG =   1.60;   BMIX_MAG =  0.01
     AMIN     =   0.01
     WC   =   100.;   INIMIX=   1;  MIXPRE=   1;  MAXMIX= -45

 Intra band minimization:
   WEIMIN = 0.0000     energy-eigenvalue tresh-hold
   EBREAK =  0.34E-07  absolut break condition
   DEPER  =   0.30     relativ break condition  

   TIME   =   0.40     timestep for ELM

  volume/ion in A,a.u.               =      62.72       423.28
  Fermi-wavevector in a.u.,A,eV,Ry     =   0.624944  1.180972  5.313816  0.390554
  Thomas-Fermi vector in A             =   1.685677
 
 Write flags
   LWAVE        =      F    write WAVECAR
   LDOWNSAMPLE  =      F    k-point downsampling of WAVECAR
   LCHARG       =      T    write CHGCAR
   LVTOT        =      T    write LOCPOT, total local potential
   LVHAR        =      F    write LOCPOT, Hartree potential only
   LELF         =      F    write electronic localiz. function (ELF)
   LORBIT       =      0    0 simple, 1 ext, 2 COOP (PROOUT), +10 PAW based schemes


 Dipole corrections
   LMONO  =      F    monopole corrections only (constant potential shift)
   LDIPOL =      T    correct potential (dipole corrections)
   IDIPOL =      3    1-x, 2-y, 3-z, 4-all directions 
   EPSILON=  1.0000000 bulk dielectric constant

 Exchange correlation treatment:
   GGA     =    --    GGA type
   LEXCH   =     8    internal setting for exchange type
   VOSKOWN=      0    Vosko Wilk Nusair interpolation
   LHFCALC =     F    Hartree Fock is set to
   LHFONE  =     F    Hartree Fock one center treatment
   AEXX    =    0.0000 exact exchange contribution

 Linear response parameters
   LEPSILON=     F    determine dielectric tensor
   LRPA    =     F    only Hartree local field effects (RPA)
   LNABLA  =     F    use nabla operator in PAW spheres
   LVEL    =     F    velocity operator in full k-point grid
   LINTERFAST=   F  fast interpolation
   KINTER  =     0    interpolate to denser k-point grid
   CSHIFT  =0.1000    complex shift for real part using Kramers Kronig
   OMEGAMAX=  -1.0    maximum frequency
   DEG_THRESHOLD= 0.2000000E-02 threshold for treating states as degnerate
   RTIME   =   -0.100 relaxation time in fs
  (WPLASMAI=    0.000 imaginary part of plasma frequency in eV, 0.658/RTIME)
   DFIELD  = 0.0000000 0.0000000 0.0000000 field for delta impulse in time
 
 Orbital magnetization related:
   ORBITALMAG=     F  switch on orbital magnetization
   LCHIMAG   =     F  perturbation theory with respect to B field
   DQ        =  0.001000  dq finite difference perturbation B field
   LLRAUG    =     F  two centre corrections for induced B field



--------------------------------------------------------------------------------------------------------


 Static calculation
 charge density and potential will be updated during run
 non-spin polarized calculation
 Variant of blocked Davidson
 Davidson routine will perform the subspace rotation
 perform sub-space diagonalisation
    after iterative eigenvector-optimisation
 modified Broyden-mixing scheme, WC =      100.0
 initial mixing is a Kerker type mixing with AMIX =  0.4000 and BMIX =      0.0100
 Hartree-type preconditioning will be used
 using additional bands           165
 real space projection scheme for non local part
[...]
     13.54561      0.00000     45.35368         0.000656     -0.004213      0.013019
     13.54315      9.03140     45.35368         0.009064     -0.006173      0.010373
     14.00276     10.01985     32.56778        -0.004975     -0.018480     -0.040861
     13.01077      8.56733     32.92628         0.175573      0.127330     -0.073930
     15.77004      9.04321     33.92326        -0.042226      0.043693      0.066557
     15.45404      8.60886     35.61010        -0.034623      0.220568     -0.044104
     13.40368     11.54810     34.99881         0.139961     -0.165529      0.083878
     14.48867     10.76008     36.17839         0.058678     -0.007764     -0.118043
     12.04811      9.86916     35.68355        -0.211143     -0.042009      0.011190
     12.24209      8.19411     35.06696        -0.167564      0.033112      0.093953
     11.07288      9.93572     33.63725         0.286562      0.048085     -0.143251
     12.05621     11.42268     33.61176         0.008685     -0.338981     -0.172648
     10.94347     11.68321     31.63766         0.189246     -0.422084     -0.012086
     12.40010     10.88823     31.04309        -0.009131     -0.073714     -0.058796
     14.74183      6.99655     33.11010        -0.052405     -0.016139      0.002485
     13.85093      6.75620     34.62261        -0.269060     -0.187666      0.073244
     15.58510      6.53367     34.61499        -0.082195      0.054360     -0.147869
     15.60045     12.48334     34.82508        -0.053338      0.151562      0.090619
     15.31339     11.64822     33.32204        -0.113814     -0.111646      0.058522
     16.39546     10.93816     34.56031        -0.071439     -0.061223     -0.010047
     13.65064      9.42436     37.53747        -0.006623     -0.087519      0.029973
     13.99492      7.78689     36.88176        -0.107989      0.122704      0.088563
     12.38596      8.17069     37.49380        -0.123827     -0.003743      0.179902
      9.65103      9.60116     31.58770         0.219848     -0.038897     -0.118877
     10.41170      9.95392     30.01806        -0.184709     -0.142327     -0.256041
     12.52879      8.65652     29.34768        -0.061921     -0.240861      0.381088
     10.13155      7.55671     32.72738        -0.279793      0.105546      0.245565
     13.76037      6.49640     29.51177        -0.345755      0.114677      0.254803
     11.33781      5.41388     32.91166        -0.025927     -0.018075      0.032241
     13.15775      4.87981     31.32699         0.043115     -0.111419      0.009890
      0.39710      4.48473     34.91187         0.006691     -0.107531      0.491782
      0.43222     13.54656     34.89967        -0.074186     -0.283805      0.383280
      8.47736      4.02930     34.60959         1.113950     -0.078367      0.010154
      9.19332     13.94442     34.89587         0.489366     -0.514613     -0.186605
      4.27552      9.40419     34.90720        -0.353075     -0.598299      0.081779
      4.37083      0.24291     34.71074        -0.461036     -0.000815     -0.071296
     13.90877     17.72220     35.14986         0.624847      0.284689     -0.097699
      0.16195      4.41246     40.72812         0.611659     -0.722337      1.210825
      0.15958     13.77961     40.77339         0.817183     -1.228757      0.718335
      8.80573      4.18727     40.80310         0.823392     -0.842202     -0.088055
      8.97171     13.67908     40.62667        -0.119788      0.075917      0.949405
      4.55609      8.93782     40.57032         1.114251      1.203268      0.200656
      4.53580     18.05210     40.52981        -1.194353     -1.239048      0.156658
     13.97078      8.90396     40.75237        -0.412112     -0.798294      0.161501
     13.60406     18.05687     40.60194        -1.343855     -1.339226      0.076594
      9.02897      4.51561     46.44552         0.008843      0.002509      0.019254
      9.02651     13.54701     46.44552         0.001930      0.012117      0.050346
     18.05937      4.51561     46.44552        -0.005557      0.023593      0.070533
     18.05691     13.54701     46.44552         0.024298     -0.002140      0.035044
      4.51521      0.00002     46.44421         0.000026     -0.001535      0.065277
      4.51275      9.03142     46.44421        -0.000021      0.003511      0.042054
     13.54561      0.00002     46.44421        -0.002752     -0.005628      0.030870
     13.54315      9.03142     46.44421        -0.006287     -0.011567      0.030324
     11.25585      8.26101     31.05419         0.009767      0.485974     -0.232527
     12.27737      7.94111     30.15585         0.053860      0.730108     -0.845369
     10.92180      7.32680     32.02483        -0.420037      0.175985      0.207584
     12.95317      6.73515     30.22759         0.485538     -0.602044     -0.010081
     11.59022      6.12397     32.12484         0.375533     -0.615667      0.013336
     12.61770      5.81895     31.23368         0.159329      0.049719     -0.148160
     13.22081      9.60683     33.21563        -0.628267     -0.023060      0.160513
     15.03250      8.59268     34.59618        -0.002679     -0.317350     -0.101232
     14.27338     10.87637     35.10497        -0.252854      0.183645      0.062400
     12.73107      9.02103     35.59576         0.599155     -0.089141     -0.354885
     11.91154     10.43753     33.11177         0.492103      0.262521      0.488130
     11.50110     10.71600     31.65699        -0.070537      0.437636      0.330745
     14.77073      7.14467     34.19514         0.216586      0.359315      0.058214
     15.45683     11.48545     34.40061         0.393017      0.113713     -0.151744
     13.24196      8.58581     36.95797         0.185390      0.113292     -0.481903
     10.61545      9.62613     31.04259        -0.154627      0.081367     -0.024942
      0.36793      3.34297     35.57412        -0.175907      0.519390      0.224105
      0.60495     12.42526     35.55573        -0.040734     -0.327301      0.413732
      9.76040      3.99984     34.91792         0.263019     -0.038606     -0.000932
      9.00266     12.80251     35.51059        -0.069749     -0.001806     -0.059211
      7.64125      4.91321     35.07283        -0.147212      0.856200      0.808834
      8.50275     15.02687     35.08163        -1.195235      0.560516      0.839394
      0.00147      5.63699     35.40844         0.057368     -0.154609      0.219083
     17.80043     14.57058     35.34756         0.041458      0.170703      0.162514
      4.27385      8.17419     35.39774        -0.468110      0.138830     -0.612270
      3.24604     17.70341     35.06293        -0.207967      0.635988     -0.656233
     12.64294     17.62784     35.45235        -0.280537     -0.444693     -0.082564
      5.52931     18.06000     35.25228         0.527017      0.063596     -0.337353
      5.12837     10.32623     35.25212         0.045167      0.511296     -0.418730
     14.70686      0.58853     35.63935         0.412260     -0.362263     -0.630152
      1.05030      3.48480     41.05318        -0.828573      0.892178     -0.784352
      0.91295     12.85351     41.37178        -1.337098      1.025288     -0.423416
     10.01718      3.81092     41.17163        -0.493001      0.856298      0.433793
      9.65848     12.91037     41.44877        -0.031320      0.008226      0.047599
      3.85581      8.02231     41.16282         0.110022     -0.013706      1.397732
      3.68122     17.23695     41.13256         0.957586      1.048843      0.963221
     13.04211      8.35471     41.50203        -0.552109     -0.644369     -0.033902
     12.69013     17.29578     41.18441         0.677095      0.995217      1.076186
      8.14531      5.18708     41.29042        -0.065217      1.236366      0.882514
      8.07778     14.57028     40.99232         0.046244     -0.004141      0.170526
     17.49228      5.09616     41.58084        -0.042554      0.022646      0.279648
     17.06188     14.20767     41.19360        -0.065649      0.212634      0.023548
      5.32883      0.83053     41.10674         0.668085      0.768213      1.560288
      5.36661      9.81470     41.15204        -0.827721     -1.167641      1.149423
     14.31620      0.91039     41.17458         0.436622      0.836931      1.224434
     14.48861     10.07326     40.94861         1.489391      1.226291     -0.850923
      0.82731      3.68697     47.03596         0.027233     -0.035357     -0.099787
      0.82485     12.71837     47.03596         0.010132     -0.018186     -0.077082
      9.85771      3.68697     47.03596         0.022364     -0.026135     -0.080945
      9.85525     12.71837     47.03596         0.029285     -0.027514     -0.098462
      3.68432      8.20234     47.03465        -0.013150     -0.014226     -0.067177
      3.68186     17.23373     47.03465        -0.009320     -0.004014     -0.066954
     12.71472      8.20234     47.03465        -0.011673     -0.009184     -0.081181
     12.71226     17.23373     47.03465        -0.011197     -0.012350     -0.065487
      8.20068      5.34457     47.03603        -0.022345      0.019950     -0.084687
      8.19822     14.37597     47.03603        -0.013108      0.012988     -0.099851
     17.23108      5.34457     47.03603        -0.003858      0.000119     -0.095028
     17.22862     14.37597     47.03603        -0.025486      0.020416     -0.073664
      5.34365      0.82909     47.03465         0.005745      0.006221     -0.065025
      5.34119      9.86049     47.03465         0.010964      0.008935     -0.068929
     14.37405      0.82909     47.03465         0.018230      0.015115     -0.065163
     14.37159      9.86049     47.03465         0.017571      0.023567     -0.077432
     13.82744      9.51699     34.61116        -0.292360     -0.054912      0.359145
      9.12093      0.36975     34.55992        -0.029379      0.016471     -0.059023
      8.52226      9.15136     34.75787         0.068941     -0.036858      0.049039
     17.86590     18.02572     34.36375         0.127927      0.022351      0.016608
      0.68518      8.93255     34.56507         0.012641      0.104483     -0.022692
      4.17051      4.21754     34.58357        -0.028368      0.037604     -0.064138
      4.65323     13.73899     34.56250        -0.062443      0.070888      0.044065
     13.37891      3.72949     34.69375        -0.020156     -0.027165      0.070614
     12.84150     14.26636     34.27995         0.009155     -0.018953      0.292636
      0.02584     17.88608     40.92186        -0.008851     -0.003626     -0.069630
      0.20356      8.95392     40.97998         0.012747     -0.008456     -0.044196
      9.02082      0.16034     40.91117        -0.035642     -0.019817      0.028692
      9.14243      8.90534     40.96439         0.032718     -0.025812      0.062071
      4.62349      4.41795     40.92132         0.029043      0.004744     -0.020697
      4.47832     13.59258     40.92304         0.014335     -0.000188     -0.035248
     13.46020      4.81669     40.91455         0.017960     -0.068039      0.004677
     13.55934     13.58704     40.86096        -0.017928      0.031041      0.015255
      2.49730      1.88781     38.08590         0.015440      0.053132     -0.009413
      2.65592     10.96245     38.11709        -0.011694     -0.005592     -0.012840
     11.71535      1.85367     38.22275         0.090030      0.108126     -0.001945
     11.14668     11.49668     38.38683         0.007346     -0.271734     -0.218505
      6.46332      7.04175     38.06143        -0.047527     -0.090011     -0.086634
      6.57567     16.06113     37.97444         0.061431     -0.076644      0.003818
     16.13220      6.54855     38.36554        -0.103787      0.048692     -0.219851
     15.69231     15.84174     38.09645         0.020857      0.001726     -0.070687
      2.15890      6.46350     38.17218         0.032623      0.034108      0.008202
      2.18039     15.70601     37.96900        -0.039419      0.007593     -0.081985
     10.46125      5.94693     37.76722         0.128705      0.052631      0.018653
     11.10146     15.69670     38.21124         0.008464     -0.016546     -0.022309
      6.94040      2.38720     37.87340        -0.003961      0.024502      0.046842
      7.00110     11.53078     38.17640        -0.025099     -0.102223      0.048403
     16.07278      2.50644     38.33719        -0.061723      0.032351     -0.049280
     16.45426     11.64916     38.41724        -0.130078     -0.015866     -0.357681
      0.00000      0.00000     47.17356        -0.000577      0.006310      0.358180
     -0.00246      9.03140     47.17356        -0.003475      0.001772      0.450599
      9.03040      0.00000     47.17356         0.000514     -0.001071      0.415027
      9.02794      9.03140     47.17356         0.004987      0.000127      0.504908
      4.51398      4.51570     47.17425        -0.002635     -0.003792      0.443591
      4.51152     13.54710     47.17425         0.004116      0.002780      0.478718
     13.54438      4.51570     47.17425         0.000478      0.000848      0.441375
     13.54192     13.54710     47.17425        -0.003057     -0.005194      0.364864
      2.45192      2.06295     44.04013         0.025475     -0.044977      0.020117
      2.44946     11.09435     44.04013         0.044771     -0.050264      0.069854
     11.48232      2.06295     44.04013         0.085075     -0.042693     -0.033626
     11.47986     11.09435     44.04013         0.064696     -0.044063     -0.037782
      6.57602      6.96845     44.04013        -0.045333      0.048073     -0.008866
      6.57356     15.99985     44.04013         0.024418      0.013214     -0.045289
     15.60642      6.96845     44.04013         0.030951     -0.011333      0.056463
     15.60396     15.99985     44.04013        -0.035747      0.004899      0.013340
      2.06108      6.57881     44.04000         0.047485     -0.038511      0.016820
      2.05862     15.61021     44.04000         0.019797      0.068037      0.023058
     11.09148      6.57881     44.04000        -0.059171     -0.076938     -0.005642
     11.08902     15.61021     44.04000        -0.018450     -0.006056     -0.015464
      6.96686      2.45259     44.04007        -0.056740     -0.059633      0.009177
      6.96440     11.48399     44.04007         0.028316     -0.008246     -0.026739
     15.99726      2.45259     44.04007        -0.004819      0.014075     -0.042524
     15.99481     11.48399     44.04007         0.005204      0.079998     -0.090471
      2.43163      2.08322     50.06849         0.000465     -0.018806      0.021641
      2.42917     11.11462     50.06849         0.007147     -0.012589      0.024841
     11.46203      2.08322     50.06849         0.008856     -0.013241      0.024313
     11.45957     11.11462     50.06849         0.022308      0.002370      0.021472
      6.59631      6.94818     50.06849        -0.015286      0.004882      0.024022
      6.59385     15.97958     50.06849        -0.003673      0.015830      0.022702
     15.62671      6.94818     50.06849        -0.010943      0.008723      0.022937
     15.62425     15.97958     50.06849        -0.010333      0.011488      0.023418
      2.08113      6.59901     50.06905        -0.012091     -0.010871      0.023614
      2.07867     15.63041     50.06905        -0.022136      0.002002      0.023798
     11.11153      6.59901     50.06905        -0.003248     -0.015527      0.023056
     11.10907     15.63041     50.06905        -0.005042     -0.016182      0.023104
      6.94681      2.43239     50.06905         0.012467      0.006080      0.024132
      6.94435     11.46379     50.06905         0.008940      0.012359      0.024182
     15.97721      2.43239     50.06905         0.017506      0.002779      0.023130
     15.97475     11.46379     50.06905         0.001499      0.017063      0.022371
     17.92115     18.04436     37.86446         0.060671     -0.083604     -0.014120
      0.15523      9.00587     37.90575        -0.006259      0.036332     -0.054062
      9.08461      0.17035     37.77230        -0.143790     -0.138378     -0.076548
      8.97136      8.90530     37.82409        -0.007884      0.031339     -0.116897
      4.41587      4.35807     37.72092        -0.011189      0.034646     -0.022899
      4.47772     13.47510     37.70048         0.024614      0.053663     -0.028624
     13.36235      4.45515     37.68564         0.043525      0.065245     -0.019168
     13.26452     13.62257     37.63705         0.043890      0.075624     -0.034832
      0.00001      0.00001     44.04300        -0.035629     -0.122823      0.221800
     -0.00245      9.03141     44.04300         0.009304     -0.054791      0.219130
      9.03041      0.00001     44.04300        -0.011526      0.063508      0.122549
      9.02795      9.03141     44.04300        -0.061634      0.013702      0.123087
      4.51397      4.51569     44.04275         0.057989      0.004637      0.143546
      4.51151     13.54709     44.04275        -0.078334     -0.025211      0.055936
     13.54437      4.51569     44.04275         0.032635      0.054499      0.129370
     13.54191     13.54709     44.04275        -0.031740      0.128361      0.055211
      0.00000      0.00000     50.44728         0.006171      0.000352     -0.613156
     -0.00246      9.03140     50.44728         0.007387     -0.002330     -0.638329
      9.03040      0.00000     50.44728        -0.006831      0.004371     -0.629622
      9.02794      9.03140     50.44728        -0.007851     -0.003282     -0.650562
      4.51397      4.51570     50.44728         0.007018      0.009627     -0.637083
      4.51151     13.54710     50.44728         0.005230     -0.010036     -0.648328
     13.54437      4.51570     50.44728        -0.008335      0.008282     -0.637748
     13.54191     13.54710     50.44728        -0.004836     -0.008934     -0.614523
 -----------------------------------------------------------------------------------
    total drift:                                0.078370      0.097001      0.251592


--------------------------------------------------------------------------------------------------------



  FREE ENERGIE OF THE ION-ELECTRON SYSTEM (eV)
  ---------------------------------------------------
  free  energy   TOTEN  =     -1574.69310442 eV

  energy  without entropy=    -1574.69310442  energy(sigma->0) =    -1574.69310442
 


--------------------------------------------------------------------------------------------------------


    POTLOK:  cpu time    0.4994: real time    0.4993


--------------------------------------------------------------------------------------------------------


     LOOP+:  cpu time  306.6144: real time  307.2616
 vacuum level on the upper side and lower side of the slab         2.277         1.606
    4ORBIT:  cpu time    0.0000: real time    0.0000

 total amount of memory used by VASP MPI-rank0  8653584. kBytes
=======================================================================

   base      :      30000. kBytes
   nonlr-proj:      53622. kBytes
   fftplans  :     249280. kBytes
   grid      :     701440. kBytes
   one-center:       2636. kBytes
   wavefun   :    7616606. kBytes
 
  
  
 General timing and accounting informations for this job:
 ========================================================
  
                  Total CPU time used (sec):      519.170
                            User time (sec):      418.329
                          System time (sec):      100.841
                         Elapsed time (sec):      522.300
  
                   Maximum memory used (kb):    10335856.
                   Average memory used (kb):          N/A
  
                          Minor page faults:      3737964
                          Major page faults:           12
                 Voluntary context switches:        10968
