<?xml version="1.0" encoding="ISO-8859-1"?>
<modeling>
 <generator>
  <i name="program" type="string">vasp </i>
  <i name="version" type="string">6.2.1  </i>
  <i name="subversion" type="string">16May21 (build Nov 15 2021 14:57:28) complex                          parallel </i>
  <i name="platform" type="string">LinuxPGI </i>
  <i name="date" type="string">2023 07 24 </i>
  <i name="time" type="string">23:41:37 </i>
 </generator>
 <incar>
  <i type="string" name="SYSTEM">PSC</i>
  <i type="int" name="ISTART">     1</i>
  <i type="string" name="PREC">Normal</i>
  <i name="BMIX">      0.01000000</i>
  <i name="AMIN">      0.01000000</i>
  <i type="int" name="ICHARG">     1</i>
  <i type="int" name="NELM">   600</i>
  <i type="int" name="ISYM">     0</i>
  <i name="ENCUT">    500.00000000</i>
  <i type="string" name="LREAL">Auto</i>
  <i type="int" name="ISMEAR">     0</i>
  <i name="SIGMA">      0.05000000</i>
  <i type="logical" name="LWAVE"> F  </i>
  <i type="logical" name="LVTOT"> T  </i>
  <i type="logical" name="GGA_COMPAT"> F  </i>
  <i type="logical" name="LDIPOL"> T  </i>
  <i type="int" name="IDIPOL">     3</i>
  <i type="int" name="IVDW">    12</i>
 </incar>
 <primitive_cell>
  <structure name="primitive_cell" >
   <crystal>
    <varray name="basis" >
     <v>      18.06080055       0.00000000       0.00000000 </v>
     <v>      -0.00491865      18.06279945       0.00000000 </v>
     <v>       0.00000000       0.00000000      62.48749924 </v>
    </varray>
    <i name="volume">  20385.21054034 </i>
    <varray name="rec_basis" >
     <v>       0.05536853       0.00001508      -0.00000000 </v>
     <v>       0.00000000       0.05536240       0.00000000 </v>
     <v>       0.00000000      -0.00000000       0.01600320 </v>
    </varray>
   </crystal>
   <varray name="positions" >
    <v>       0.43732023       0.31018083       0.57305883 </v>
    <v>       0.42869631       0.83568378       0.57289321 </v>
    <v>       0.98113396       0.31770014       0.58226056 </v>
    <v>       0.96368651       0.80943165       0.58085501 </v>
    <v>       0.31300399       0.96030184       0.57578832 </v>
    <v>       0.32461345       0.56279437       0.57517095 </v>
    <v>       0.79563857       0.07179810       0.58049385 </v>
    <v>       0.03397954       0.13702965       0.56178931 </v>
    <v>       0.05887380       0.64202408       0.56236706 </v>
    <v>       0.57639612       0.18264402       0.55264740 </v>
    <v>       0.52830154       0.66328614       0.56433535 </v>
    <v>       0.35454024       0.02304821       0.55825454 </v>
    <v>       0.28059653       0.62410982       0.55737869 </v>
    <v>       0.86776438       0.03833716       0.56453516 </v>
    <v>       0.00534968       0.18204966       0.58530542 </v>
    <v>       0.01209938       0.68045843       0.58424063 </v>
    <v>       0.56228490       0.25651386       0.57036329 </v>
    <v>       0.45960536       0.70038576       0.57984712 </v>
    <v>       0.27596953       0.43471099       0.57712105 </v>
    <v>       0.17636426       0.94193786       0.57307757 </v>
    <v>       0.67670971       0.01047986       0.57836244 </v>
    <v>       0.36785008       0.26654017       0.55826431 </v>
    <v>       0.48654798       0.88123669       0.55468351 </v>
    <v>       0.01554262       0.36063114       0.55923350 </v>
    <v>       0.98840095       0.85694890       0.55810772 </v>
    <v>       0.19458178       0.41711938       0.56233794 </v>
    <v>       0.13002653       0.99786876       0.55473846 </v>
    <v>       0.67327545       0.92895767       0.56239538 </v>
    <v>       0.45038659       0.18172901       0.54254541 </v>
    <v>       0.55541709       0.77491062       0.54721956 </v>
    <v>       0.04415159       0.24821771       0.54244431 </v>
    <v>       0.04944178       0.75314841       0.54288349 </v>
    <v>       0.19301898       0.53475161       0.54704887 </v>
    <v>       0.23886246       0.05601391       0.54289887 </v>
    <v>       0.79311905       0.94052270       0.55113184 </v>
    <v>       0.47014935       0.32201667       0.67275443 </v>
    <v>       0.43296055       0.81816255       0.67166907 </v>
    <v>       0.97071212       0.27656986       0.68184616 </v>
    <v>       0.91965383       0.76844353       0.67282995 </v>
    <v>       0.29944373       0.05476344       0.67430363 </v>
    <v>       0.30693282       0.54504779       0.67489451 </v>
    <v>       0.78968427       0.06516850       0.67498028 </v>
    <v>       0.79224774       0.59180570       0.66793267 </v>
    <v>       0.08629456       0.16733410       0.64488594 </v>
    <v>       0.09967311       0.69822956       0.65548737 </v>
    <v>       0.57825159       0.16695781       0.65176311 </v>
    <v>       0.57189593       0.67820117       0.65681625 </v>
    <v>       0.18181193       0.41060847       0.64997552 </v>
    <v>       0.17329268       0.92005753       0.64956351 </v>
    <v>       0.70456453       0.40911535       0.66076674 </v>
    <v>       0.67508337       0.92015511       0.65040151 </v>
    <v>       0.06915983       0.17912964       0.67227442 </v>
    <v>       0.03581373       0.68603550       0.67585283 </v>
    <v>       0.58378204       0.23858590       0.67060080 </v>
    <v>       0.52982129       0.71568881       0.67969424 </v>
    <v>       0.21199078       0.43578252       0.67512008 </v>
    <v>       0.19699822       0.95124415       0.67463597 </v>
    <v>       0.69769827       0.48783039       0.67700565 </v>
    <v>       0.68976291       0.96124244       0.67517740 </v>
    <v>       0.39853037       0.29671200       0.65567234 </v>
    <v>       0.42158152       0.83656978       0.64433755 </v>
    <v>       0.93261599       0.32059209       0.65958639 </v>
    <v>       0.91806429       0.82644033       0.65067336 </v>
    <v>       0.32856110       0.07760381       0.64869512 </v>
    <v>       0.32431538       0.58025024       0.64962670 </v>
    <v>       0.82993790       0.07875521       0.65003633 </v>
    <v>       0.84322841       0.57787017       0.64467399 </v>
    <v>       0.00200141       0.25554550       0.63518356 </v>
    <v>       0.03212507       0.78483489       0.63787209 </v>
    <v>       0.45984337       0.19891754       0.64074943 </v>
    <v>       0.50784548       0.75086052       0.63333639 </v>
    <v>       0.25340831       0.99642388       0.63137592 </v>
    <v>       0.25004066       0.49973876       0.63205739 </v>
    <v>       0.76089779       0.98839861       0.63290308 </v>
    <v>       0.79462834       0.45939329       0.63884836 </v>
    <v>       0.44874502       0.30128397       0.76888902 </v>
    <v>       0.44874501       0.80128391       0.76888902 </v>
    <v>       0.94874497       0.30128397       0.76888902 </v>
    <v>       0.94874501       0.80128391       0.76888902 </v>
    <v>       0.30127600       0.05129450       0.76887296 </v>
    <v>       0.30127601       0.55129450       0.76887296 </v>
    <v>       0.80127594       0.05129450       0.76887296 </v>
    <v>       0.80127598       0.55129450       0.76887296 </v>
    <v>       0.07877100       0.17118050       0.74344197 </v>
    <v>       0.07877101       0.67118045       0.74344197 </v>
    <v>       0.57877100       0.17118050       0.74344197 </v>
    <v>       0.57877099       0.67118045       0.74344197 </v>
    <v>       0.17119950       0.42117448       0.74342103 </v>
    <v>       0.17119950       0.92117451       0.74342103 </v>
    <v>       0.67119951       0.42117448       0.74342103 </v>
    <v>       0.67119950       0.92117451       0.74342103 </v>
    <v>       0.05125600       0.19871499       0.76888902 </v>
    <v>       0.05125600       0.69871493       0.76888902 </v>
    <v>       0.55125603       0.19871499       0.76888902 </v>
    <v>       0.55125602       0.69871493       0.76888902 </v>
    <v>       0.19872349       0.44870397       0.76887205 </v>
    <v>       0.19872349       0.94870397       0.76887205 </v>
    <v>       0.69872352       0.44870397       0.76887205 </v>
    <v>       0.69872351       0.94870397       0.76887205 </v>
    <v>       0.42123152       0.32881747       0.74344197 </v>
    <v>       0.42123151       0.82881744       0.74344197 </v>
    <v>       0.92123147       0.32881747       0.74344197 </v>
    <v>       0.92123151       0.82881744       0.74344197 </v>
    <v>       0.32880050       0.07882500       0.74342103 </v>
    <v>       0.32880049       0.57882496       0.74342103 </v>
    <v>       0.82880048       0.07882500       0.74342103 </v>
    <v>       0.82880052       0.57882496       0.74342103 </v>
    <v>       0.00000350       0.25000148       0.72582199 </v>
    <v>       0.00000350       0.75000145       0.72582199 </v>
    <v>       0.50000351       0.25000148       0.72582199 </v>
    <v>       0.50000350       0.75000145       0.72582199 </v>
    <v>       0.25000050       0.00000000       0.72580398 </v>
    <v>       0.25000052       0.50000000       0.72580398 </v>
    <v>       0.75000050       0.00000000       0.72580398 </v>
    <v>       0.75000049       0.50000000       0.72580398 </v>
    <v>       0.77546343       0.55472323       0.52118872 </v>
    <v>       0.72051639       0.47430822       0.52692583 </v>
    <v>       0.87330017       0.50065369       0.54288080 </v>
    <v>       0.85579727       0.47660740       0.56987552 </v>
    <v>       0.74231644       0.63933076       0.56009292 </v>
    <v>       0.80237837       0.59570402       0.57897011 </v>
    <v>       0.66723469       0.54638056       0.57105105 </v>
    <v>       0.67795026       0.45364546       0.56118359 </v>
    <v>       0.61323874       0.55006542       0.53830359 </v>
    <v>       0.66770705       0.63238686       0.53789579 </v>
    <v>       0.60610028       0.64681067       0.50630375 </v>
    <v>       0.68673974       0.60279876       0.49678879 </v>
    <v>       0.81633890       0.38734596       0.52986758 </v>
    <v>       0.76700769       0.37403933       0.55407261 </v>
    <v>       0.86302272       0.36171960       0.55395070 </v>
    <v>       0.86396209       0.69110767       0.55731270 </v>
    <v>       0.84805563       0.64487346       0.53325937 </v>
    <v>       0.90795725       0.60556278       0.55307565 </v>
    <v>       0.75595796       0.52175524       0.60071970 </v>
    <v>       0.77499551       0.43110074       0.59022621 </v>
    <v>       0.68591543       0.45234886       0.60002077 </v>
    <v>       0.53450809       0.53154330       0.50550437 </v>
    <v>       0.57663063       0.55107301       0.48038511 </v>
    <v>       0.69383098       0.47924586       0.46965674 </v>
    <v>       0.56108307       0.41835749       0.52374288 </v>
    <v>       0.76198923       0.35965608       0.47228273 </v>
    <v>       0.62783954       0.29972548       0.52669189 </v>
    <v>       0.72859887       0.27015803       0.50133215 </v>
    <v>       0.02205470       0.24828547       0.55870159 </v>
    <v>       0.02413576       0.74997025       0.55850636 </v>
    <v>       0.46943982       0.22307172       0.55386420 </v>
    <v>       0.50923089       0.77199676       0.55844556 </v>
    <v>       0.23687115       0.52063846       0.55862693 </v>
    <v>       0.24201016       0.01344820       0.55548293 </v>
    <v>       0.77037548       0.98114363       0.56251034 </v>
    <v>       0.00903353       0.24428460       0.65178021 </v>
    <v>       0.00904363       0.76287226       0.65250472 </v>
    <v>       0.48762320       0.23181726       0.65298015 </v>
    <v>       0.49695656       0.75730670       0.65015683 </v>
    <v>       0.25239903       0.49481944       0.64925492 </v>
    <v>       0.25141265       0.99940751       0.64860672 </v>
    <v>       0.77367605       0.49294459       0.65216834 </v>
    <v>       0.75350905       0.99967160       0.64976094 </v>
    <v>       0.49998898       0.24999498       0.74327702 </v>
    <v>       0.49998903       0.74999496       0.74327702 </v>
    <v>       0.99998898       0.24999498       0.74327702 </v>
    <v>       0.99998903       0.74999496       0.74327702 </v>
    <v>       0.25000050       0.00000100       0.74325596 </v>
    <v>       0.25000052       0.50000100       0.74325596 </v>
    <v>       0.75000050       0.00000100       0.74325596 </v>
    <v>       0.75000049       0.50000100       0.74325596 </v>
    <v>       0.62334422       0.45734917       0.49696637 </v>
    <v>       0.67989975       0.43963905       0.48259015 </v>
    <v>       0.60483463       0.40562949       0.51249985 </v>
    <v>       0.71729943       0.37287388       0.48373820 </v>
    <v>       0.64182561       0.33903794       0.51410020 </v>
    <v>       0.69871149       0.32215096       0.49983877 </v>
    <v>       0.73216178       0.53185745       0.53155633 </v>
    <v>       0.83245686       0.47571168       0.55364956 </v>
    <v>       0.79046004       0.60214175       0.56179193 </v>
    <v>       0.70503658       0.49942598       0.56964616 </v>
    <v>       0.65968185       0.57784673       0.52989432 </v>
    <v>       0.63696040       0.59326329       0.50661320 </v>
    <v>       0.81794119       0.39554598       0.54723165 </v>
    <v>       0.85599530       0.63586232       0.55051990 </v>
    <v>       0.73331746       0.47533117       0.59144581 </v>
    <v>       0.58790679       0.53292554       0.49678079 </v>
    <v>       0.02042191       0.18507468       0.56929978 </v>
    <v>       0.03368274       0.68789214       0.56900547 </v>
    <v>       0.54047947       0.22144085       0.55879847 </v>
    <v>       0.49865697       0.70877796       0.56828316 </v>
    <v>       0.42315890       0.27200685       0.56127761 </v>
    <v>       0.47101121       0.83192363       0.56141832 </v>
    <v>       0.00016631       0.31207759       0.56664831 </v>
    <v>       0.98580316       0.80666236       0.56567412 </v>
    <v>       0.23676001       0.45254263       0.56647707 </v>
    <v>       0.17999548       0.98010313       0.56111907 </v>
    <v>       0.70028653       0.97591932       0.56735103 </v>
    <v>       0.30642192       0.99984493       0.56414934 </v>
    <v>       0.28410597       0.57168492       0.56414677 </v>
    <v>       0.81430630       0.03258267       0.57034369 </v>
    <v>       0.05820595       0.19292687       0.65698230 </v>
    <v>       0.05074273       0.71160142       0.66208085 </v>
    <v>       0.55469424       0.21098190       0.65887794 </v>
    <v>       0.53497075       0.71474901       0.66331297 </v>
    <v>       0.21361138       0.44413459       0.65873680 </v>
    <v>       0.20408388       0.95427918       0.65825269 </v>
    <v>       0.72224841       0.46253686       0.66416537 </v>
    <v>       0.70289446       0.95753578       0.65908232 </v>
    <v>       0.45107182       0.28716948       0.66077883 </v>
    <v>       0.44747475       0.80664594       0.65600841 </v>
    <v>       0.96859879       0.28213569       0.66542655 </v>
    <v>       0.94490524       0.78657099       0.65922951 </v>
    <v>       0.29506189       0.04598020       0.65783940 </v>
    <v>       0.29728935       0.54336518       0.65856440 </v>
    <v>       0.79268060       0.05040117       0.65892501 </v>
    <v>       0.80236468       0.55767970       0.65530880 </v>
    <v>       0.04586250       0.20411950       0.75272599 </v>
    <v>       0.04586250       0.70411946       0.75272599 </v>
    <v>       0.54586251       0.20411950       0.75272599 </v>
    <v>       0.54586250       0.70411946       0.75272599 </v>
    <v>       0.20411900       0.45410100       0.75270499 </v>
    <v>       0.20411899       0.95410095       0.75270499 </v>
    <v>       0.70411898       0.45410100       0.75270499 </v>
    <v>       0.70411896       0.95410095       0.75270499 </v>
    <v>       0.45414002       0.29588849       0.75272697 </v>
    <v>       0.45414001       0.79588852       0.75272697 </v>
    <v>       0.95414002       0.29588849       0.75272697 </v>
    <v>       0.95414006       0.79588852       0.75272697 </v>
    <v>       0.29588249       0.04590050       0.75270499 </v>
    <v>       0.29588248       0.54590053       0.75270499 </v>
    <v>       0.79588244       0.04590050       0.75270499 </v>
    <v>       0.79588248       0.54590053       0.75270499 </v>
    <v>       0.76574839       0.52688353       0.55388935 </v>
    <v>       0.50501795       0.02047017       0.55306936 </v>
    <v>       0.47200298       0.50664111       0.55623717 </v>
    <v>       0.98948062       0.99794736       0.54992994 </v>
    <v>       0.03807230       0.49452720       0.55315184 </v>
    <v>       0.23097849       0.23349293       0.55344785 </v>
    <v>       0.25784940       0.76062350       0.55311063 </v>
    <v>       0.74082657       0.20647330       0.55521109 </v>
    <v>       0.71123000       0.78981995       0.54858891 </v>
    <v>       0.00170048       0.99021655       0.65488074 </v>
    <v>       0.01140603       0.49571035       0.65581086 </v>
    <v>       0.49947216       0.00887669       0.65470975 </v>
    <v>       0.50633742       0.49302125       0.65556136 </v>
    <v>       0.25606237       0.24458842       0.65487213 </v>
    <v>       0.24816276       0.75251811       0.65489960 </v>
    <v>       0.74534393       0.26666348       0.65476377 </v>
    <v>       0.75096568       0.75221125       0.65390618 </v>
    <v>       0.13830021       0.10451346       0.60949624 </v>
    <v>       0.14721950       0.60690743       0.60999548 </v>
    <v>       0.64868984       0.10262379       0.61168631 </v>
    <v>       0.61734863       0.63648365       0.61431214 </v>
    <v>       0.35797046       0.38984805       0.60910468 </v>
    <v>       0.36432744       0.88918280       0.60771255 </v>
    <v>       0.89331486       0.36254327       0.61397137 </v>
    <v>       0.86909876       0.87703705       0.60966521 </v>
    <v>       0.11963248       0.35783508       0.61087707 </v>
    <v>       0.12096184       0.86952267       0.60762550 </v>
    <v>       0.57931352       0.32923618       0.60439634 </v>
    <v>       0.61490844       0.86900710       0.61150213 </v>
    <v>       0.38431578       0.13216134       0.60609565 </v>
    <v>       0.38781474       0.63837180       0.61094465 </v>
    <v>       0.88996405       0.13876238       0.61351779 </v>
    <v>       0.91122405       0.64492563       0.61479881 </v>
    <v>       0.00000000       0.00000000       0.75492797 </v>
    <v>       0.00000000       0.50000000       0.75492797 </v>
    <v>       0.50000000       0.00000000       0.75492797 </v>
    <v>       0.49999999       0.50000000       0.75492797 </v>
    <v>       0.25000050       0.25000000       0.75493902 </v>
    <v>       0.25000051       0.74999997       0.75493902 </v>
    <v>       0.75000047       0.25000000       0.75493902 </v>
    <v>       0.75000046       0.74999997       0.75493902 </v>
    <v>       0.13579050       0.11421000       0.70478299 </v>
    <v>       0.13579050       0.61420998       0.70478299 </v>
    <v>       0.63579045       0.11421000       0.70478299 </v>
    <v>       0.63579049       0.61420998       0.70478299 </v>
    <v>       0.36420952       0.38578999       0.70478299 </v>
    <v>       0.36420950       0.88578996       0.70478299 </v>
    <v>       0.86420954       0.38578999       0.70478299 </v>
    <v>       0.86420953       0.88578996       0.70478299 </v>
    <v>       0.11421799       0.36421899       0.70478098 </v>
    <v>       0.11421799       0.86421899       0.70478098 </v>
    <v>       0.61421800       0.36421899       0.70478098 </v>
    <v>       0.61421799       0.86421899       0.70478098 </v>
    <v>       0.38578201       0.13578149       0.70478202 </v>
    <v>       0.38578200       0.63578149       0.70478202 </v>
    <v>       0.88578199       0.13578149       0.70478202 </v>
    <v>       0.88578203       0.63578149       0.70478202 </v>
    <v>       0.13466700       0.11533200       0.80125603 </v>
    <v>       0.13466699       0.61533199       0.80125603 </v>
    <v>       0.63466699       0.11533200       0.80125603 </v>
    <v>       0.63466698       0.61533199       0.80125603 </v>
    <v>       0.36533300       0.38466799       0.80125603 </v>
    <v>       0.36533299       0.88466796       0.80125603 </v>
    <v>       0.86533295       0.38466799       0.80125603 </v>
    <v>       0.86533294       0.88466796       0.80125603 </v>
    <v>       0.11532850       0.36533700       0.80126500 </v>
    <v>       0.11532850       0.86533698       0.80126500 </v>
    <v>       0.61532850       0.36533700       0.80126500 </v>
    <v>       0.61532849       0.86533698       0.80126500 </v>
    <v>       0.38467151       0.13466300       0.80126500 </v>
    <v>       0.38467150       0.63466297       0.80126500 </v>
    <v>       0.88467149       0.13466300       0.80126500 </v>
    <v>       0.88467153       0.63466297       0.80126500 </v>
    <v>       0.99253978       0.99897905       0.60595256 </v>
    <v>       0.00873092       0.49858687       0.60661340 </v>
    <v>       0.50300403       0.00943097       0.60447778 </v>
    <v>       0.49686525       0.49301909       0.60530655 </v>
    <v>       0.24456582       0.24127315       0.60365541 </v>
    <v>       0.24812775       0.74601412       0.60332831 </v>
    <v>       0.73992063       0.24664761       0.60309084 </v>
    <v>       0.73464215       0.75417807       0.60231334 </v>
    <v>       0.00000050       0.00000050       0.70482896 </v>
    <v>       0.00000050       0.50000048       0.70482896 </v>
    <v>       0.50000048       0.00000050       0.70482896 </v>
    <v>       0.50000046       0.50000048       0.70482896 </v>
    <v>       0.24999999       0.24999947       0.70482499 </v>
    <v>       0.25000001       0.74999950       0.70482499 </v>
    <v>       0.74999999       0.24999947       0.70482499 </v>
    <v>       0.74999998       0.74999950       0.70482499 </v>
    <v>       0.00000000       0.00000000       0.80731797 </v>
    <v>       0.00000000       0.50000000       0.80731797 </v>
    <v>       0.50000000       0.00000000       0.80731797 </v>
    <v>       0.49999999       0.50000000       0.80731797 </v>
    <v>       0.24999999       0.25000000       0.80731797 </v>
    <v>       0.25000001       0.74999997       0.80731797 </v>
    <v>       0.74999999       0.25000000       0.80731797 </v>
    <v>       0.74999998       0.74999997       0.80731797 </v>
   </varray>
  </structure>
  <varray name="primitive_index" >
   <v type="int" >        1 </v>
   <v type="int" >        2 </v>
   <v type="int" >        3 </v>
   <v type="int" >        4 </v>
   <v type="int" >        5 </v>
   <v type="int" >        6 </v>
   <v type="int" >        7 </v>
   <v type="int" >        8 </v>
   <v type="int" >        9 </v>
   <v type="int" >       10 </v>
   <v type="int" >       11 </v>
   <v type="int" >       12 </v>
   <v type="int" >       13 </v>
   <v type="int" >       14 </v>
   <v type="int" >       15 </v>
   <v type="int" >       16 </v>
   <v type="int" >       17 </v>
   <v type="int" >       18 </v>
   <v type="int" >       19 </v>
   <v type="int" >       20 </v>
   <v type="int" >       21 </v>
   <v type="int" >       22 </v>
   <v type="int" >       23 </v>
   <v type="int" >       24 </v>
   <v type="int" >       25 </v>
   <v type="int" >       26 </v>
   <v type="int" >       27 </v>
   <v type="int" >       28 </v>
   <v type="int" >       29 </v>
   <v type="int" >       30 </v>
   <v type="int" >       31 </v>
   <v type="int" >       32 </v>
   <v type="int" >       33 </v>
   <v type="int" >       34 </v>
   <v type="int" >       35 </v>
   <v type="int" >       36 </v>
   <v type="int" >       37 </v>
   <v type="int" >       38 </v>
   <v type="int" >       39 </v>
   <v type="int" >       40 </v>
   <v type="int" >       41 </v>
   <v type="int" >       42 </v>
   <v type="int" >       43 </v>
   <v type="int" >       44 </v>
   <v type="int" >       45 </v>
   <v type="int" >       46 </v>
   <v type="int" >       47 </v>
   <v type="int" >       48 </v>
   <v type="int" >       49 </v>
   <v type="int" >       50 </v>
   <v type="int" >       51 </v>
   <v type="int" >       52 </v>
   <v type="int" >       53 </v>
   <v type="int" >       54 </v>
   <v type="int" >       55 </v>
   <v type="int" >       56 </v>
   <v type="int" >       57 </v>
   <v type="int" >       58 </v>
   <v type="int" >       59 </v>
   <v type="int" >       60 </v>
   <v type="int" >       61 </v>
   <v type="int" >       62 </v>
   <v type="int" >       63 </v>
   <v type="int" >       64 </v>
   <v type="int" >       65 </v>
   <v type="int" >       66 </v>
   <v type="int" >       67 </v>
   <v type="int" >       68 </v>
   <v type="int" >       69 </v>
   <v type="int" >       70 </v>
   <v type="int" >       71 </v>
   <v type="int" >       72 </v>
   <v type="int" >       73 </v>
   <v type="int" >       74 </v>
   <v type="int" >       75 </v>
   <v type="int" >       76 </v>
   <v type="int" >       77 </v>
   <v type="int" >       78 </v>
   <v type="int" >       79 </v>
   <v type="int" >       80 </v>
   <v type="int" >       81 </v>
   <v type="int" >       82 </v>
   <v type="int" >       83 </v>
   <v type="int" >       84 </v>
   <v type="int" >       85 </v>
   <v type="int" >       86 </v>
   <v type="int" >       87 </v>
   <v type="int" >       88 </v>
   <v type="int" >       89 </v>
   <v type="int" >       90 </v>
   <v type="int" >       91 </v>
   <v type="int" >       92 </v>
   <v type="int" >       93 </v>
   <v type="int" >       94 </v>
   <v type="int" >       95 </v>
   <v type="int" >       96 </v>
   <v type="int" >       97 </v>
   <v type="int" >       98 </v>
   <v type="int" >       99 </v>
   <v type="int" >      100 </v>
   <v type="int" >      101 </v>
   <v type="int" >      102 </v>
   <v type="int" >      103 </v>
   <v type="int" >      104 </v>
   <v type="int" >      105 </v>
   <v type="int" >      106 </v>
   <v type="int" >      107 </v>
   <v type="int" >      108 </v>
   <v type="int" >      109 </v>
   <v type="int" >      110 </v>
   <v type="int" >      111 </v>
   <v type="int" >      112 </v>
   <v type="int" >      113 </v>
   <v type="int" >      114 </v>
   <v type="int" >      115 </v>
   <v type="int" >      116 </v>
   <v type="int" >      117 </v>
   <v type="int" >      118 </v>
   <v type="int" >      119 </v>
   <v type="int" >      120 </v>
   <v type="int" >      121 </v>
   <v type="int" >      122 </v>
   <v type="int" >      123 </v>
   <v type="int" >      124 </v>
   <v type="int" >      125 </v>
   <v type="int" >      126 </v>
   <v type="int" >      127 </v>
   <v type="int" >      128 </v>
   <v type="int" >      129 </v>
   <v type="int" >      130 </v>
   <v type="int" >      131 </v>
   <v type="int" >      132 </v>
   <v type="int" >      133 </v>
   <v type="int" >      134 </v>
   <v type="int" >      135 </v>
   <v type="int" >      136 </v>
   <v type="int" >      137 </v>
   <v type="int" >      138 </v>
   <v type="int" >      139 </v>
   <v type="int" >      140 </v>
   <v type="int" >      141 </v>
   <v type="int" >      142 </v>
   <v type="int" >      143 </v>
   <v type="int" >      144 </v>
   <v type="int" >      145 </v>
   <v type="int" >      146 </v>
   <v type="int" >      147 </v>
   <v type="int" >      148 </v>
   <v type="int" >      149 </v>
   <v type="int" >      150 </v>
   <v type="int" >      151 </v>
   <v type="int" >      152 </v>
   <v type="int" >      153 </v>
   <v type="int" >      154 </v>
   <v type="int" >      155 </v>
   <v type="int" >      156 </v>
   <v type="int" >      157 </v>
   <v type="int" >      158 </v>
   <v type="int" >      159 </v>
   <v type="int" >      160 </v>
   <v type="int" >      161 </v>
   <v type="int" >      162 </v>
   <v type="int" >      163 </v>
   <v type="int" >      164 </v>
   <v type="int" >      165 </v>
   <v type="int" >      166 </v>
   <v type="int" >      167 </v>
   <v type="int" >      168 </v>
   <v type="int" >      169 </v>
   <v type="int" >      170 </v>
   <v type="int" >      171 </v>
   <v type="int" >      172 </v>
   <v type="int" >      173 </v>
   <v type="int" >      174 </v>
   <v type="int" >      175 </v>
   <v type="int" >      176 </v>
   <v type="int" >      177 </v>
   <v type="int" >      178 </v>
   <v type="int" >      179 </v>
   <v type="int" >      180 </v>
   <v type="int" >      181 </v>
   <v type="int" >      182 </v>
   <v type="int" >      183 </v>
   <v type="int" >      184 </v>
   <v type="int" >      185 </v>
   <v type="int" >      186 </v>
   <v type="int" >      187 </v>
   <v type="int" >      188 </v>
   <v type="int" >      189 </v>
   <v type="int" >      190 </v>
   <v type="int" >      191 </v>
   <v type="int" >      192 </v>
   <v type="int" >      193 </v>
   <v type="int" >      194 </v>
   <v type="int" >      195 </v>
   <v type="int" >      196 </v>
   <v type="int" >      197 </v>
   <v type="int" >      198 </v>
   <v type="int" >      199 </v>
   <v type="int" >      200 </v>
   <v type="int" >      201 </v>
   <v type="int" >      202 </v>
   <v type="int" >      203 </v>
   <v type="int" >      204 </v>
   <v type="int" >      205 </v>
   <v type="int" >      206 </v>
   <v type="int" >      207 </v>
   <v type="int" >      208 </v>
   <v type="int" >      209 </v>
   <v type="int" >      210 </v>
   <v type="int" >      211 </v>
   <v type="int" >      212 </v>
   <v type="int" >      213 </v>
   <v type="int" >      214 </v>
   <v type="int" >      215 </v>
   <v type="int" >      216 </v>
   <v type="int" >      217 </v>
   <v type="int" >      218 </v>
   <v type="int" >      219 </v>
   <v type="int" >      220 </v>
   <v type="int" >      221 </v>
   <v type="int" >      222 </v>
   <v type="int" >      223 </v>
   <v type="int" >      224 </v>
   <v type="int" >      225 </v>
   <v type="int" >      226 </v>
   <v type="int" >      227 </v>
   <v type="int" >      228 </v>
   <v type="int" >      229 </v>
   <v type="int" >      230 </v>
   <v type="int" >      231 </v>
   <v type="int" >      232 </v>
   <v type="int" >      233 </v>
   <v type="int" >      234 </v>
   <v type="int" >      235 </v>
   <v type="int" >      236 </v>
   <v type="int" >      237 </v>
   <v type="int" >      238 </v>
   <v type="int" >      239 </v>
   <v type="int" >      240 </v>
   <v type="int" >      241 </v>
   <v type="int" >      242 </v>
   <v type="int" >      243 </v>
   <v type="int" >      244 </v>
   <v type="int" >      245 </v>
   <v type="int" >      246 </v>
   <v type="int" >      247 </v>
   <v type="int" >      248 </v>
   <v type="int" >      249 </v>
   <v type="int" >      250 </v>
   <v type="int" >      251 </v>
   <v type="int" >      252 </v>
   <v type="int" >      253 </v>
   <v type="int" >      254 </v>
   <v type="int" >      255 </v>
   <v type="int" >      256 </v>
   <v type="int" >      257 </v>
   <v type="int" >      258 </v>
   <v type="int" >      259 </v>
   <v type="int" >      260 </v>
   <v type="int" >      261 </v>
   <v type="int" >      262 </v>
   <v type="int" >      263 </v>
   <v type="int" >      264 </v>
   <v type="int" >      265 </v>
   <v type="int" >      266 </v>
   <v type="int" >      267 </v>
   <v type="int" >      268 </v>
   <v type="int" >      269 </v>
   <v type="int" >      270 </v>
   <v type="int" >      271 </v>
   <v type="int" >      272 </v>
   <v type="int" >      273 </v>
   <v type="int" >      274 </v>
   <v type="int" >      275 </v>
   <v type="int" >      276 </v>
   <v type="int" >      277 </v>
   <v type="int" >      278 </v>
   <v type="int" >      279 </v>
   <v type="int" >      280 </v>
   <v type="int" >      281 </v>
   <v type="int" >      282 </v>
   <v type="int" >      283 </v>
   <v type="int" >      284 </v>
   <v type="int" >      285 </v>
   <v type="int" >      286 </v>
   <v type="int" >      287 </v>
   <v type="int" >      288 </v>
   <v type="int" >      289 </v>
   <v type="int" >      290 </v>
   <v type="int" >      291 </v>
   <v type="int" >      292 </v>
   <v type="int" >      293 </v>
   <v type="int" >      294 </v>
   <v type="int" >      295 </v>
   <v type="int" >      296 </v>
   <v type="int" >      297 </v>
   <v type="int" >      298 </v>
   <v type="int" >      299 </v>
   <v type="int" >      300 </v>
   <v type="int" >      301 </v>
   <v type="int" >      302 </v>
   <v type="int" >      303 </v>
   <v type="int" >      304 </v>
   <v type="int" >      305 </v>
   <v type="int" >      306 </v>
   <v type="int" >      307 </v>
   <v type="int" >      308 </v>
   <v type="int" >      309 </v>
   <v type="int" >      310 </v>
   <v type="int" >      311 </v>
   <v type="int" >      312 </v>
   <v type="int" >      313 </v>
   <v type="int" >      314 </v>
   <v type="int" >      315 </v>
   <v type="int" >      316 </v>
   <v type="int" >      317 </v>
   <v type="int" >      318 </v>
   <v type="int" >      319 </v>
   <v type="int" >      320 </v>
   <v type="int" >      321 </v>
   <v type="int" >      322 </v>
   <v type="int" >      323 </v>
   <v type="int" >      324 </v>
   <v type="int" >      325 </v>
  </varray>
 </primitive_cell>
 <kpoints>
  <generation param="Gamma">
   <v type="int" name="divisions">       3        3        1 </v>
   <v name="usershift">      0.00000000       0.00000000       0.00000000 </v>
   <v name="genvec1">      0.33333333       0.00000000       0.00000000 </v>
   <v name="genvec2">      0.00000000       0.33333333       0.00000000 </v>
   <v name="genvec3">      0.00000000       0.00000000       1.00000000 </v>
   <v name="shift">      0.00000000       0.00000000       0.00000000 </v>
  </generation>
  <varray name="kpointlist" >
   <v>       0.00000000       0.00000000       0.00000000 </v>
   <v>       0.33333333       0.00000000       0.00000000 </v>
   <v>       0.00000000       0.33333333       0.00000000 </v>
   <v>       0.33333333       0.33333333       0.00000000 </v>
   <v>      -0.33333333       0.33333333       0.00000000 </v>
  </varray>
  <varray name="weights" >
   <v>       0.11111111 </v>
   <v>       0.22222222 </v>
   <v>       0.22222222 </v>
   <v>       0.22222222 </v>
   <v>       0.22222222 </v>
  </varray>
 </kpoints>
 <parameters>
  <separator name="general" >
   <i type="string" name="SYSTEM">PSC</i>
   <i type="logical" name="LCOMPAT"> F  </i>
  </separator>
  <separator name="electronic" >
   <i type="string" name="PREC">normal</i>
   <i name="ENMAX">    500.00000000</i>
   <i name="ENAUG">    644.87300000</i>
   <i name="EDIFF">      0.00010000</i>
   <i type="int" name="IALGO">    38</i>
   <i type="int" name="IWAVPR">    10</i>
   <i type="int" name="NBANDS">   732</i>
   <i type="int" name="NBANDSLOW">    -1</i>
   <i type="int" name="NBANDSHIGH">    -1</i>
   <i name="NELECT">   1134.00000000</i>
   <i type="int" name="TURBO">     0</i>
   <i type="int" name="IRESTART">     0</i>
   <i type="int" name="NREBOOT">     0</i>
   <i type="int" name="NMIN">     0</i>
   <i name="EREF">      0.00000000</i>
   <separator name="electronic smearing" >
    <i type="int" name="ISMEAR">     0</i>
    <i name="SIGMA">      0.05000000</i>
    <i name="KSPACING">      0.50000000</i>
    <i type="logical" name="KGAMMA"> T  </i>
    <i type="logical" name="KBLOWUP"> T  </i>
   </separator>
   <separator name="electronic projectors" >
    <i type="logical" name="LREAL"> T  </i>
    <v name="ROPT">     -0.00050000     -0.00050000     -0.00050000     -0.00050000     -0.00050000</v>
    <i type="int" name="LMAXPAW">  -100</i>
    <i type="int" name="LMAXMIX">     2</i>
    <i type="logical" name="NLSPLINE"> F  </i>
   </separator>
   <separator name="electronic startup" >
    <i type="int" name="ISTART">     0</i>
    <i type="int" name="ICHARG">     1</i>
    <i type="int" name="INIWAV">     1</i>
   </separator>
   <separator name="electronic spin" >
    <i type="int" name="ISPIN">     1</i>
    <i type="logical" name="LNONCOLLINEAR"> F  </i>
    <v name="MAGMOM">      1.00000000      1.00000000      1.00000000      1.00000000      1.00000000      1.00000000      1.00000000      1.00000000      1.00000000      1.00000000      1.00000000      1.00000000      1.00000000      1.00000000      1.00000000      1.00000000      1.00000000      1.00000000      1.00000000      1.00000000
      1.00000000      1.00000000      1.00000000      1.00000000      1.00000000      1.00000000      1.00000000      1.00000000      1.00000000      1.00000000      1.00000000      1.00000000      1.00000000      1.00000000      1.00000000      1.00000000      1.00000000      1.00000000      1.00000000      1.00000000
      1.00000000      1.00000000      1.00000000      1.00000000      1.00000000      1.00000000      1.00000000      1.00000000      1.00000000      1.00000000      1.00000000      1.00000000      1.00000000      1.00000000      1.00000000      1.00000000      1.00000000      1.00000000      1.00000000      1.00000000
      1.00000000      1.00000000      1.00000000      1.00000000      1.00000000      1.00000000      1.00000000      1.00000000      1.00000000      1.00000000      1.00000000      1.00000000      1.00000000      1.00000000      1.00000000      1.00000000      1.00000000      1.00000000      1.00000000      1.00000000
      1.00000000      1.00000000      1.00000000      1.00000000      1.00000000      1.00000000      1.00000000      1.00000000      1.00000000      1.00000000      1.00000000      1.00000000      1.00000000      1.00000000      1.00000000      1.00000000      1.00000000      1.00000000      1.00000000      1.00000000
      1.00000000      1.00000000      1.00000000      1.00000000      1.00000000      1.00000000      1.00000000      1.00000000      1.00000000      1.00000000      1.00000000      1.00000000      1.00000000      1.00000000      1.00000000      1.00000000      1.00000000      1.00000000      1.00000000      1.00000000
      1.00000000      1.00000000      1.00000000      1.00000000      1.00000000      1.00000000      1.00000000      1.00000000      1.00000000      1.00000000      1.00000000      1.00000000      1.00000000      1.00000000      1.00000000      1.00000000      1.00000000      1.00000000      1.00000000      1.00000000
      1.00000000      1.00000000      1.00000000      1.00000000      1.00000000      1.00000000      1.00000000      1.00000000      1.00000000      1.00000000      1.00000000      1.00000000      1.00000000      1.00000000      1.00000000      1.00000000      1.00000000      1.00000000      1.00000000      1.00000000
      1.00000000      1.00000000      1.00000000      1.00000000      1.00000000      1.00000000      1.00000000      1.00000000      1.00000000      1.00000000      1.00000000      1.00000000      1.00000000      1.00000000      1.00000000      1.00000000      1.00000000      1.00000000      1.00000000      1.00000000
      1.00000000      1.00000000      1.00000000      1.00000000      1.00000000      1.00000000      1.00000000      1.00000000      1.00000000      1.00000000      1.00000000      1.00000000      1.00000000      1.00000000      1.00000000      1.00000000      1.00000000      1.00000000      1.00000000      1.00000000
      1.00000000      1.00000000      1.00000000      1.00000000      1.00000000      1.00000000      1.00000000      1.00000000      1.00000000      1.00000000      1.00000000      1.00000000      1.00000000      1.00000000      1.00000000      1.00000000      1.00000000      1.00000000      1.00000000      1.00000000
      1.00000000      1.00000000      1.00000000      1.00000000      1.00000000      1.00000000      1.00000000      1.00000000      1.00000000      1.00000000      1.00000000      1.00000000      1.00000000      1.00000000      1.00000000      1.00000000      1.00000000      1.00000000      1.00000000      1.00000000
      1.00000000      1.00000000      1.00000000      1.00000000      1.00000000      1.00000000      1.00000000      1.00000000      1.00000000      1.00000000      1.00000000      1.00000000      1.00000000      1.00000000      1.00000000      1.00000000      1.00000000      1.00000000      1.00000000      1.00000000
      1.00000000      1.00000000      1.00000000      1.00000000      1.00000000      1.00000000      1.00000000      1.00000000      1.00000000      1.00000000      1.00000000      1.00000000      1.00000000      1.00000000      1.00000000      1.00000000      1.00000000      1.00000000      1.00000000      1.00000000
      1.00000000      1.00000000      1.00000000      1.00000000      1.00000000      1.00000000      1.00000000      1.00000000      1.00000000      1.00000000      1.00000000      1.00000000      1.00000000      1.00000000      1.00000000      1.00000000      1.00000000      1.00000000      1.00000000      1.00000000
      1.00000000      1.00000000      1.00000000      1.00000000      1.00000000      1.00000000      1.00000000      1.00000000      1.00000000      1.00000000      1.00000000      1.00000000      1.00000000      1.00000000      1.00000000      1.00000000      1.00000000      1.00000000      1.00000000      1.00000000
      1.00000000      1.00000000      1.00000000      1.00000000      1.00000000</v>
    <i name="NUPDOWN">     -1.00000000</i>
    <i type="logical" name="LSORBIT"> F  </i>
    <v name="SAXIS">      0.00000000      0.00000000      1.00000000</v>
    <i type="logical" name="LSPIRAL"> F  </i>
    <v name="QSPIRAL">      0.00000000      0.00000000      0.00000000</v>
    <i type="logical" name="LZEROZ"> F  </i>
   </separator>
   <separator name="electronic exchange-correlation" >
    <i type="logical" name="LASPH"> F  </i>
    <i type="logical" name="LMETAGGA"> F  </i>
   </separator>
   <separator name="electronic convergence" >
    <i type="int" name="NELM">   600</i>
    <i type="int" name="NELMDL">     0</i>
    <i type="int" name="NELMIN">     2</i>
    <i name="ENINI">    500.00000000</i>
    <separator name="electronic convergence detail" >
     <i type="logical" name="LDIAG"> T  </i>
     <i type="logical" name="LSUBROT"> F  </i>
     <i name="WEIMIN">      0.00000000</i>
     <i name="EBREAK">      0.00000003</i>
     <i name="DEPER">      0.30000000</i>
     <i type="int" name="NRMM">     4</i>
     <i name="TIME">      0.40000000</i>
    </separator>
   </separator>
   <separator name="electronic mixer" >
    <i name="AMIX">      0.40000000</i>
    <i name="BMIX">      0.01000000</i>
    <i name="AMIN">      0.01000000</i>
    <i name="AMIX_MAG">      1.60000000</i>
    <i name="BMIX_MAG">      0.01000000</i>
    <separator name="electronic mixer details" >
     <i type="int" name="IMIX">     4</i>
     <i type="logical" name="MIXFIRST"> F  </i>
     <i type="int" name="MAXMIX">   -45</i>
     <i name="WC">    100.00000000</i>
     <i type="int" name="INIMIX">     1</i>
     <i type="int" name="MIXPRE">     1</i>
     <i type="int" name="MREMOVE">     5</i>
    </separator>
   </separator>
   <separator name="electronic dipolcorrection" >
    <i type="logical" name="LDIPOL"> T  </i>
    <i type="logical" name="LMONO"> F  </i>
    <i type="int" name="IDIPOL">     3</i>
    <i name="EPSILON">      1.00000000</i>
    <v name="DIPOL">   -100.00000000   -100.00000000   -100.00000000</v>
    <i name="EFIELD">      0.00000000</i>
   </separator>
  </separator>
  <separator name="grids" >
   <i type="int" name="NGX">   100</i>
   <i type="int" name="NGY">   100</i>
   <i type="int" name="NGZ">   350</i>
   <i type="int" name="NGXF">   200</i>
   <i type="int" name="NGYF">   200</i>
   <i type="int" name="NGZF">   700</i>
   <i type="logical" name="ADDGRID"> F  </i>
  </separator>
  <separator name="ionic" >
   <i type="int" name="NSW">     0</i>
   <i type="int" name="IBRION">    -1</i>
   <i type="int" name="MDALGO">     0</i>
   <i type="int" name="ISIF">     2</i>
   <i name="PSTRESS">      0.00000000</i>
   <i name="EDIFFG">      0.00100000</i>
   <i type="int" name="NFREE">     0</i>
   <i name="POTIM">      0.50000000</i>
   <i name="SMASS">     -3.00000000</i>
   <i name="SCALEE">      1.00000000</i>
  </separator>
  <separator name="ionic md" >
   <i name="TEBEG">      0.00010000</i>
   <i name="TEEND">      0.00010000</i>
   <i type="int" name="NBLOCK">     1</i>
   <i type="int" name="KBLOCK">     1</i>
   <i type="int" name="NPACO">   256</i>
   <i name="APACO">     16.00000000</i>
  </separator>
  <separator name="symmetry" >
   <i type="int" name="ISYM">     0</i>
   <i name="SYMPREC">      0.00001000</i>
  </separator>
  <separator name="dos" >
   <i type="int" name="LORBIT">     0</i>
   <v name="RWIGS">     -1.00000000     -1.00000000     -1.00000000     -1.00000000     -1.00000000</v>
   <i type="int" name="NEDOS">   301</i>
   <i name="EMIN">     10.00000000</i>
   <i name="EMAX">    -10.00000000</i>
   <i name="EFERMI">      0.00000000</i>
  </separator>
  <separator name="writing" >
   <i type="int" name="NWRITE">     2</i>
   <i type="logical" name="LWAVE"> F  </i>
   <i type="logical" name="LDOWNSAMPLE"> F  </i>
   <i type="logical" name="LCHARG"> T  </i>
   <i type="logical" name="LPARD"> F  </i>
   <i type="logical" name="LVTOT"> T  </i>
   <i type="logical" name="LVHAR"> F  </i>
   <i type="logical" name="LELF"> F  </i>
   <i type="logical" name="LOPTICS"> F  </i>
   <v name="STM">      0.00000000      0.00000000      0.00000000      0.00000000      0.00000000      0.00000000      0.00000000</v>
  </separator>
  <separator name="performance" >
   <i type="int" name="NPAR">     4</i>
   <i type="int" name="NSIM">     4</i>
   <i type="int" name="NBLK">    -1</i>
   <i type="logical" name="LPLANE"> T  </i>
   <i type="logical" name="LSCALAPACK"> T  </i>
   <i type="logical" name="LSCAAWARE"> F  </i>
   <i type="logical" name="LSCALU"> F  </i>
   <i type="logical" name="LASYNC"> F  </i>
   <i type="logical" name="LORBITALREAL"> F  </i>
  </separator>
  <separator name="miscellaneous" >
   <i type="int" name="IDIOT">     3</i>
   <i type="int" name="PHON_NSTRUCT">    -1</i>
   <i type="logical" name="LMUSIC"> F  </i>
   <v name="POMASS">      1.00000000     12.01100000     14.00100000    126.90400000    207.20000000</v>
   <v name="DARWINR">      0.00000000      0.00000000      0.00000000      0.00000000      0.00000000</v>
   <v name="DARWINV">      1.00000000      1.00000000      1.00000000      1.00000000      1.00000000</v>
   <i type="logical" name="LCORR"> T  </i>
  </separator>
  <i type="logical" name="GGA_COMPAT"> F  </i>
  <i type="logical" name="LBERRY"> F  </i>
  <i type="int" name="ICORELEVEL">     0</i>
  <i type="logical" name="LDAU"> F  </i>
  <i type="int" name="I_CONSTRAINED_M">     0</i>
  <separator name="electronic exchange-correlation" >
   <i type="string" name="GGA">--</i>
   <i type="int" name="VOSKOWN">     0</i>
   <i type="logical" name="LHFCALC"> F  </i>
   <i type="string" name="PRECFOCK"></i>
   <i type="logical" name="LSYMGRAD"> F  </i>
   <i type="logical" name="LHFONE"> F  </i>
   <i type="logical" name="LRHFCALC"> F  </i>
   <i type="logical" name="LTHOMAS"> F  </i>
   <i type="logical" name="LMODELHF"> F  </i>
   <i type="logical" name="LFOCKACE"> F  </i>
   <i name="ENCUT4O">     -1.00000000</i>
   <i type="int" name="EXXOEP">     0</i>
   <i type="int" name="FOURORBIT">     0</i>
   <i name="AEXX">      0.00000000</i>
   <i name="HFALPHA">      0.00000000</i>
   <i name="MCALPHA">      0.00000000</i>
   <i name="ALDAX">      1.00000000</i>
   <i name="AGGAX">      1.00000000</i>
   <i name="ALDAC">      1.00000000</i>
   <i name="AGGAC">      1.00000000</i>
   <i type="int" name="NKREDX">     1</i>
   <i type="int" name="NKREDY">     1</i>
   <i type="int" name="NKREDZ">     1</i>
   <i type="logical" name="SHIFTRED"> F  </i>
   <i type="logical" name="ODDONLY"> F  </i>
   <i type="logical" name="EVENONLY"> F  </i>
   <i type="int" name="LMAXFOCK">     0</i>
   <i type="int" name="NMAXFOCKAE">     0</i>
   <i type="logical" name="LFOCKAEDFT"> F  </i>
   <i name="HFSCREEN">      0.00000000</i>
   <i name="HFSCREENC">      0.00000000</i>
   <i type="int" name="NBANDSGWLOW">     0</i>
  </separator>
  <separator name="vdW DFT" >
   <i type="logical" name="LUSE_VDW"> F  </i>
   <i name="Zab_VDW">     -0.84910000</i>
   <i name="PARAM1">      0.12340000</i>
   <i name="PARAM2">      1.00000000</i>
   <i name="PARAM3">      0.00000000</i>
  </separator>
  <separator name="model GW" >
   <i type="int" name="MODEL_GW">     0</i>
   <i name="MODEL_EPS0">     37.63423484</i>
   <i name="MODEL_ALPHA">      1.00000000</i>
  </separator>
  <separator name="linear response parameters" >
   <i type="logical" name="LEPSILON"> F  </i>
   <i type="logical" name="LRPA"> F  </i>
   <i type="logical" name="LNABLA"> F  </i>
   <i type="logical" name="LVEL"> F  </i>
   <i type="int" name="KINTER">     0</i>
   <i name="CSHIFT">      0.10000000</i>
   <i name="OMEGAMAX">     -1.00000000</i>
   <i name="DEG_THRESHOLD">      0.00200000</i>
   <i name="RTIME">     -0.10000000</i>
   <i name="WPLASMAI">      0.00000000</i>
   <v name="DFIELD">      0.00000000      0.00000000      0.00000000</v>
   <v name="WPLASMA">      0.00000000      0.00000000      0.00000000      0.00000000      0.00000000      0.00000000      0.00000000      0.00000000      0.00000000</v>
  </separator>
  <separator name="orbital magnetization" >
   <i type="logical" name="NUCIND"> F  </i>
   <v name="MAGPOS">      0.00000000      0.00000000      0.00000000</v>
   <i type="logical" name="LNICSALL"> T  </i>
   <i type="logical" name="ORBITALMAG"> F  </i>
   <i type="logical" name="LMAGBLOCH"> F  </i>
   <i type="logical" name="LCHIMAG"> F  </i>
   <i type="logical" name="LGAUGE"> T  </i>
   <i type="int" name="MAGATOM">     0</i>
   <v name="MAGDIPOL">      0.00000000      0.00000000      0.00000000</v>
   <v name="AVECCONST">      0.00000000      0.00000000      0.00000000</v>
  </separator>
  <separator name="response functions" >
   <i type="logical" name="LFINITE_TEMPERATURE"> F  </i>
   <i type="logical" name="LADDER"> F  </i>
   <i type="logical" name="LRPAFORCE"> F  </i>
   <i type="logical" name="LFXC"> F  </i>
   <i type="logical" name="LHARTREE"> T  </i>
   <i type="int" name="IBSE">     0</i>
   <v type="int" name="KPOINT">    -1     0     0     0</v>
   <i type="logical" name="LTCTC"> F  </i>
   <i type="logical" name="LTCTE"> F  </i>
   <i type="logical" name="LTETE"> F  </i>
   <i type="logical" name="LTRIPLET"> F  </i>
   <i type="logical" name="LFXCEPS"> F  </i>
   <i type="logical" name="LFXHEG"> F  </i>
   <i type="int" name="NATURALO">     2</i>
   <i type="logical" name="LHOLEGF"> F  </i>
   <i type="logical" name="L2ORDER"> F  </i>
   <i type="logical" name="LDMP1"> F  </i>
   <i type="logical" name="LMP2LT"> F  </i>
   <i type="logical" name="LSMP2LT"> F  </i>
   <i type="logical" name="LGWLF"> F  </i>
   <i name="ENCUTGW">     -2.00000000</i>
   <i name="ENCUTGWSOFT">     -2.00000000</i>
   <i name="ENCUTLF">     -1.00000000</i>
   <i type="logical" name="LESF_SPLINES"> F  </i>
   <i type="int" name="LMAXMP2">    -1</i>
   <i name="SCISSOR">      0.00000000</i>
   <i type="int" name="NOMEGA">     0</i>
   <i type="int" name="NOMEGAR">     0</i>
   <i type="int" name="NBANDSGW">    -1</i>
   <i type="int" name="NBANDSO">    -1</i>
   <i type="int" name="NBANDSV">    -1</i>
   <i type="int" name="NELM">   600</i>
   <i type="int" name="NELMHF">     1</i>
   <i type="int" name="DIM">     3</i>
   <i type="int" name="IESPILON">     4</i>
   <i type="int" name="ANTIRES">     0</i>
   <i name="OMEGAMAX">    -30.00000000</i>
   <i name="OMEGAMIN">    -30.00000000</i>
   <i name="OMEGATL">   -200.00000000</i>
   <i type="int" name="OMEGAGRID">     0</i>
   <i name="CSHIFT">     -0.10000000</i>
   <i type="logical" name="LSELFENERGY"> F  </i>
   <i type="logical" name="LSPECTRAL"> F  </i>
   <i type="logical" name="LSPECTRALGW"> F  </i>
   <i type="logical" name="LSINGLES"> F  </i>
   <i type="logical" name="LFERMIGW"> F  </i>
   <i type="logical" name="ODDONLYGW"> F  </i>
   <i type="logical" name="EVENONLYGW"> F  </i>
   <i type="int" name="NKREDLFX">     1</i>
   <i type="int" name="NKREDLFY">     1</i>
   <i type="int" name="NKREDLFZ">     1</i>
   <i type="int" name="MAXMEM">  2800</i>
   <i type="int" name="TELESCOPE">     0</i>
   <i type="int" name="NTAUPAR">    -1</i>
   <i type="int" name="NOMEGAPAR">    -1</i>
   <i name="DAMP_NEWTON">      0.80000001</i>
   <i name="LAMBDA">      1.00000000</i>
  </separator>
  <separator name="External order field" >
   <i name="OFIELD_KAPPA">      0.00000000</i>
   <v name="OFIELD_K">      0.00000000      0.00000000      0.00000000</v>
   <i name="OFIELD_Q6_NEAR">      0.00000000</i>
   <i name="OFIELD_Q6_FAR">      0.00000000</i>
   <i name="OFIELD_A">      0.00000000</i>
  </separator>
 </parameters>
 <atominfo>
  <atoms>     325 </atoms>
  <types>       5 </types>
  <array name="atoms" >
   <dimension dim="1">ion</dimension>
   <field type="string">element</field>
   <field type="int">atomtype</field>
   <set>
    <rc><c>H </c><c>   1</c></rc>
    <rc><c>H </c><c>   1</c></rc>
    <rc><c>H </c><c>   1</c></rc>
    <rc><c>H </c><c>   1</c></rc>
    <rc><c>H </c><c>   1</c></rc>
    <rc><c>H </c><c>   1</c></rc>
    <rc><c>H </c><c>   1</c></rc>
    <rc><c>H </c><c>   1</c></rc>
    <rc><c>H </c><c>   1</c></rc>
    <rc><c>H </c><c>   1</c></rc>
    <rc><c>H </c><c>   1</c></rc>
    <rc><c>H </c><c>   1</c></rc>
    <rc><c>H </c><c>   1</c></rc>
    <rc><c>H </c><c>   1</c></rc>
    <rc><c>H </c><c>   1</c></rc>
    <rc><c>H </c><c>   1</c></rc>
    <rc><c>H </c><c>   1</c></rc>
    <rc><c>H </c><c>   1</c></rc>
    <rc><c>H </c><c>   1</c></rc>
    <rc><c>H </c><c>   1</c></rc>
    <rc><c>H </c><c>   1</c></rc>
    <rc><c>H </c><c>   1</c></rc>
    <rc><c>H </c><c>   1</c></rc>
    <rc><c>H </c><c>   1</c></rc>
    <rc><c>H </c><c>   1</c></rc>
    <rc><c>H </c><c>   1</c></rc>
    <rc><c>H </c><c>   1</c></rc>
    <rc><c>H </c><c>   1</c></rc>
    <rc><c>H </c><c>   1</c></rc>
    <rc><c>H </c><c>   1</c></rc>
    <rc><c>H </c><c>   1</c></rc>
    <rc><c>H </c><c>   1</c></rc>
    <rc><c>H </c><c>   1</c></rc>
    <rc><c>H </c><c>   1</c></rc>
    <rc><c>H </c><c>   1</c></rc>
    <rc><c>H </c><c>   1</c></rc>
    <rc><c>H </c><c>   1</c></rc>
    <rc><c>H </c><c>   1</c></rc>
    <rc><c>H </c><c>   1</c></rc>
    <rc><c>H </c><c>   1</c></rc>
    <rc><c>H </c><c>   1</c></rc>
    <rc><c>H </c><c>   1</c></rc>
    <rc><c>H </c><c>   1</c></rc>
    <rc><c>H </c><c>   1</c></rc>
    <rc><c>H </c><c>   1</c></rc>
    <rc><c>H </c><c>   1</c></rc>
    <rc><c>H </c><c>   1</c></rc>
    <rc><c>H </c><c>   1</c></rc>
    <rc><c>H </c><c>   1</c></rc>
    <rc><c>H </c><c>   1</c></rc>
    <rc><c>H </c><c>   1</c></rc>
    <rc><c>H </c><c>   1</c></rc>
    <rc><c>H </c><c>   1</c></rc>
    <rc><c>H </c><c>   1</c></rc>
    <rc><c>H </c><c>   1</c></rc>
    <rc><c>H </c><c>   1</c></rc>
    <rc><c>H </c><c>   1</c></rc>
    <rc><c>H </c><c>   1</c></rc>
    <rc><c>H </c><c>   1</c></rc>
    <rc><c>H </c><c>   1</c></rc>
    <rc><c>H </c><c>   1</c></rc>
    <rc><c>H </c><c>   1</c></rc>
    <rc><c>H </c><c>   1</c></rc>
    <rc><c>H </c><c>   1</c></rc>
    <rc><c>H </c><c>   1</c></rc>
    <rc><c>H </c><c>   1</c></rc>
    <rc><c>H </c><c>   1</c></rc>
    <rc><c>H </c><c>   1</c></rc>
    <rc><c>H </c><c>   1</c></rc>
    <rc><c>H </c><c>   1</c></rc>
    <rc><c>H </c><c>   1</c></rc>
    <rc><c>H </c><c>   1</c></rc>
    <rc><c>H </c><c>   1</c></rc>
    <rc><c>H </c><c>   1</c></rc>
    <rc><c>H </c><c>   1</c></rc>
    <rc><c>H </c><c>   1</c></rc>
    <rc><c>H </c><c>   1</c></rc>
    <rc><c>H </c><c>   1</c></rc>
    <rc><c>H </c><c>   1</c></rc>
    <rc><c>H </c><c>   1</c></rc>
    <rc><c>H </c><c>   1</c></rc>
    <rc><c>H </c><c>   1</c></rc>
    <rc><c>H </c><c>   1</c></rc>
    <rc><c>H </c><c>   1</c></rc>
    <rc><c>H </c><c>   1</c></rc>
    <rc><c>H </c><c>   1</c></rc>
    <rc><c>H </c><c>   1</c></rc>
    <rc><c>H </c><c>   1</c></rc>
    <rc><c>H </c><c>   1</c></rc>
    <rc><c>H </c><c>   1</c></rc>
    <rc><c>H </c><c>   1</c></rc>
    <rc><c>H </c><c>   1</c></rc>
    <rc><c>H </c><c>   1</c></rc>
    <rc><c>H </c><c>   1</c></rc>
    <rc><c>H </c><c>   1</c></rc>
    <rc><c>H </c><c>   1</c></rc>
    <rc><c>H </c><c>   1</c></rc>
    <rc><c>H </c><c>   1</c></rc>
    <rc><c>H </c><c>   1</c></rc>
    <rc><c>H </c><c>   1</c></rc>
    <rc><c>H </c><c>   1</c></rc>
    <rc><c>H </c><c>   1</c></rc>
    <rc><c>H </c><c>   1</c></rc>
    <rc><c>H </c><c>   1</c></rc>
    <rc><c>H </c><c>   1</c></rc>
    <rc><c>H </c><c>   1</c></rc>
    <rc><c>H </c><c>   1</c></rc>
    <rc><c>H </c><c>   1</c></rc>
    <rc><c>H </c><c>   1</c></rc>
    <rc><c>H </c><c>   1</c></rc>
    <rc><c>H </c><c>   1</c></rc>
    <rc><c>H </c><c>   1</c></rc>
    <rc><c>H </c><c>   1</c></rc>
    <rc><c>H </c><c>   1</c></rc>
    <rc><c>H </c><c>   1</c></rc>
    <rc><c>H </c><c>   1</c></rc>
    <rc><c>H </c><c>   1</c></rc>
    <rc><c>H </c><c>   1</c></rc>
    <rc><c>H </c><c>   1</c></rc>
    <rc><c>H </c><c>   1</c></rc>
    <rc><c>H </c><c>   1</c></rc>
    <rc><c>H </c><c>   1</c></rc>
    <rc><c>H </c><c>   1</c></rc>
    <rc><c>H </c><c>   1</c></rc>
    <rc><c>H </c><c>   1</c></rc>
    <rc><c>H </c><c>   1</c></rc>
    <rc><c>H </c><c>   1</c></rc>
    <rc><c>H </c><c>   1</c></rc>
    <rc><c>H </c><c>   1</c></rc>
    <rc><c>H </c><c>   1</c></rc>
    <rc><c>H </c><c>   1</c></rc>
    <rc><c>H </c><c>   1</c></rc>
    <rc><c>H </c><c>   1</c></rc>
    <rc><c>H </c><c>   1</c></rc>
    <rc><c>H </c><c>   1</c></rc>
    <rc><c>H </c><c>   1</c></rc>
    <rc><c>H </c><c>   1</c></rc>
    <rc><c>H </c><c>   1</c></rc>
    <rc><c>H </c><c>   1</c></rc>
    <rc><c>H </c><c>   1</c></rc>
    <rc><c>H </c><c>   1</c></rc>
    <rc><c>H </c><c>   1</c></rc>
    <rc><c>H </c><c>   1</c></rc>
    <rc><c>C </c><c>   2</c></rc>
    <rc><c>C </c><c>   2</c></rc>
    <rc><c>C </c><c>   2</c></rc>
    <rc><c>C </c><c>   2</c></rc>
    <rc><c>C </c><c>   2</c></rc>
    <rc><c>C </c><c>   2</c></rc>
    <rc><c>C </c><c>   2</c></rc>
    <rc><c>C </c><c>   2</c></rc>
    <rc><c>C </c><c>   2</c></rc>
    <rc><c>C </c><c>   2</c></rc>
    <rc><c>C </c><c>   2</c></rc>
    <rc><c>C </c><c>   2</c></rc>
    <rc><c>C </c><c>   2</c></rc>
    <rc><c>C </c><c>   2</c></rc>
    <rc><c>C </c><c>   2</c></rc>
    <rc><c>C </c><c>   2</c></rc>
    <rc><c>C </c><c>   2</c></rc>
    <rc><c>C </c><c>   2</c></rc>
    <rc><c>C </c><c>   2</c></rc>
    <rc><c>C </c><c>   2</c></rc>
    <rc><c>C </c><c>   2</c></rc>
    <rc><c>C </c><c>   2</c></rc>
    <rc><c>C </c><c>   2</c></rc>
    <rc><c>C </c><c>   2</c></rc>
    <rc><c>C </c><c>   2</c></rc>
    <rc><c>C </c><c>   2</c></rc>
    <rc><c>C </c><c>   2</c></rc>
    <rc><c>C </c><c>   2</c></rc>
    <rc><c>C </c><c>   2</c></rc>
    <rc><c>C </c><c>   2</c></rc>
    <rc><c>C </c><c>   2</c></rc>
    <rc><c>C </c><c>   2</c></rc>
    <rc><c>C </c><c>   2</c></rc>
    <rc><c>C </c><c>   2</c></rc>
    <rc><c>C </c><c>   2</c></rc>
    <rc><c>C </c><c>   2</c></rc>
    <rc><c>C </c><c>   2</c></rc>
    <rc><c>C </c><c>   2</c></rc>
    <rc><c>C </c><c>   2</c></rc>
    <rc><c>N </c><c>   3</c></rc>
    <rc><c>N </c><c>   3</c></rc>
    <rc><c>N </c><c>   3</c></rc>
    <rc><c>N </c><c>   3</c></rc>
    <rc><c>N </c><c>   3</c></rc>
    <rc><c>N </c><c>   3</c></rc>
    <rc><c>N </c><c>   3</c></rc>
    <rc><c>N </c><c>   3</c></rc>
    <rc><c>N </c><c>   3</c></rc>
    <rc><c>N </c><c>   3</c></rc>
    <rc><c>N </c><c>   3</c></rc>
    <rc><c>N </c><c>   3</c></rc>
    <rc><c>N </c><c>   3</c></rc>
    <rc><c>N </c><c>   3</c></rc>
    <rc><c>N </c><c>   3</c></rc>
    <rc><c>N </c><c>   3</c></rc>
    <rc><c>N </c><c>   3</c></rc>
    <rc><c>N </c><c>   3</c></rc>
    <rc><c>N </c><c>   3</c></rc>
    <rc><c>N </c><c>   3</c></rc>
    <rc><c>N </c><c>   3</c></rc>
    <rc><c>N </c><c>   3</c></rc>
    <rc><c>N </c><c>   3</c></rc>
    <rc><c>N </c><c>   3</c></rc>
    <rc><c>N </c><c>   3</c></rc>
    <rc><c>N </c><c>   3</c></rc>
    <rc><c>N </c><c>   3</c></rc>
    <rc><c>N </c><c>   3</c></rc>
    <rc><c>N </c><c>   3</c></rc>
    <rc><c>N </c><c>   3</c></rc>
    <rc><c>N </c><c>   3</c></rc>
    <rc><c>N </c><c>   3</c></rc>
    <rc><c>N </c><c>   3</c></rc>
    <rc><c>N </c><c>   3</c></rc>
    <rc><c>N </c><c>   3</c></rc>
    <rc><c>N </c><c>   3</c></rc>
    <rc><c>N </c><c>   3</c></rc>
    <rc><c>N </c><c>   3</c></rc>
    <rc><c>N </c><c>   3</c></rc>
    <rc><c>N </c><c>   3</c></rc>
    <rc><c>N </c><c>   3</c></rc>
    <rc><c>N </c><c>   3</c></rc>
    <rc><c>N </c><c>   3</c></rc>
    <rc><c>N </c><c>   3</c></rc>
    <rc><c>N </c><c>   3</c></rc>
    <rc><c>N </c><c>   3</c></rc>
    <rc><c>N </c><c>   3</c></rc>
    <rc><c>I </c><c>   4</c></rc>
    <rc><c>I </c><c>   4</c></rc>
    <rc><c>I </c><c>   4</c></rc>
    <rc><c>I </c><c>   4</c></rc>
    <rc><c>I </c><c>   4</c></rc>
    <rc><c>I </c><c>   4</c></rc>
    <rc><c>I </c><c>   4</c></rc>
    <rc><c>I </c><c>   4</c></rc>
    <rc><c>I </c><c>   4</c></rc>
    <rc><c>I </c><c>   4</c></rc>
    <rc><c>I </c><c>   4</c></rc>
    <rc><c>I </c><c>   4</c></rc>
    <rc><c>I </c><c>   4</c></rc>
    <rc><c>I </c><c>   4</c></rc>
    <rc><c>I </c><c>   4</c></rc>
    <rc><c>I </c><c>   4</c></rc>
    <rc><c>I </c><c>   4</c></rc>
    <rc><c>I </c><c>   4</c></rc>
    <rc><c>I </c><c>   4</c></rc>
    <rc><c>I </c><c>   4</c></rc>
    <rc><c>I </c><c>   4</c></rc>
    <rc><c>I </c><c>   4</c></rc>
    <rc><c>I </c><c>   4</c></rc>
    <rc><c>I </c><c>   4</c></rc>
    <rc><c>I </c><c>   4</c></rc>
    <rc><c>I </c><c>   4</c></rc>
    <rc><c>I </c><c>   4</c></rc>
    <rc><c>I </c><c>   4</c></rc>
    <rc><c>I </c><c>   4</c></rc>
    <rc><c>I </c><c>   4</c></rc>
    <rc><c>I </c><c>   4</c></rc>
    <rc><c>I </c><c>   4</c></rc>
    <rc><c>I </c><c>   4</c></rc>
    <rc><c>I </c><c>   4</c></rc>
    <rc><c>I </c><c>   4</c></rc>
    <rc><c>I </c><c>   4</c></rc>
    <rc><c>I </c><c>   4</c></rc>
    <rc><c>I </c><c>   4</c></rc>
    <rc><c>I </c><c>   4</c></rc>
    <rc><c>I </c><c>   4</c></rc>
    <rc><c>I </c><c>   4</c></rc>
    <rc><c>I </c><c>   4</c></rc>
    <rc><c>I </c><c>   4</c></rc>
    <rc><c>I </c><c>   4</c></rc>
    <rc><c>I </c><c>   4</c></rc>
    <rc><c>I </c><c>   4</c></rc>
    <rc><c>I </c><c>   4</c></rc>
    <rc><c>I </c><c>   4</c></rc>
    <rc><c>I </c><c>   4</c></rc>
    <rc><c>I </c><c>   4</c></rc>
    <rc><c>I </c><c>   4</c></rc>
    <rc><c>I </c><c>   4</c></rc>
    <rc><c>I </c><c>   4</c></rc>
    <rc><c>I </c><c>   4</c></rc>
    <rc><c>I </c><c>   4</c></rc>
    <rc><c>I </c><c>   4</c></rc>
    <rc><c>I </c><c>   4</c></rc>
    <rc><c>I </c><c>   4</c></rc>
    <rc><c>I </c><c>   4</c></rc>
    <rc><c>I </c><c>   4</c></rc>
    <rc><c>I </c><c>   4</c></rc>
    <rc><c>I </c><c>   4</c></rc>
    <rc><c>I </c><c>   4</c></rc>
    <rc><c>I </c><c>   4</c></rc>
    <rc><c>I </c><c>   4</c></rc>
    <rc><c>I </c><c>   4</c></rc>
    <rc><c>I </c><c>   4</c></rc>
    <rc><c>I </c><c>   4</c></rc>
    <rc><c>I </c><c>   4</c></rc>
    <rc><c>I </c><c>   4</c></rc>
    <rc><c>I </c><c>   4</c></rc>
    <rc><c>I </c><c>   4</c></rc>
    <rc><c>Pb</c><c>   5</c></rc>
    <rc><c>Pb</c><c>   5</c></rc>
    <rc><c>Pb</c><c>   5</c></rc>
    <rc><c>Pb</c><c>   5</c></rc>
    <rc><c>Pb</c><c>   5</c></rc>
    <rc><c>Pb</c><c>   5</c></rc>
    <rc><c>Pb</c><c>   5</c></rc>
    <rc><c>Pb</c><c>   5</c></rc>
    <rc><c>Pb</c><c>   5</c></rc>
    <rc><c>Pb</c><c>   5</c></rc>
    <rc><c>Pb</c><c>   5</c></rc>
    <rc><c>Pb</c><c>   5</c></rc>
    <rc><c>Pb</c><c>   5</c></rc>
    <rc><c>Pb</c><c>   5</c></rc>
    <rc><c>Pb</c><c>   5</c></rc>
    <rc><c>Pb</c><c>   5</c></rc>
    <rc><c>Pb</c><c>   5</c></rc>
    <rc><c>Pb</c><c>   5</c></rc>
    <rc><c>Pb</c><c>   5</c></rc>
    <rc><c>Pb</c><c>   5</c></rc>
    <rc><c>Pb</c><c>   5</c></rc>
    <rc><c>Pb</c><c>   5</c></rc>
    <rc><c>Pb</c><c>   5</c></rc>
    <rc><c>Pb</c><c>   5</c></rc>
   </set>
  </array>
  <array name="atomtypes" >
   <dimension dim="1">type</dimension>
   <field type="int">atomspertype</field>
   <field type="string">element</field>
   <field>mass</field>
   <field>valence</field>
   <field type="string">pseudopotential</field>
   <set>
    <rc><c> 143</c><c>H </c><c>      1.00000000</c><c>      1.00000000</c><c>  PAW_PBE H 15Jun2001                   </c></rc>
    <rc><c>  39</c><c>C </c><c>     12.01100000</c><c>      4.00000000</c><c>  PAW_PBE C 08Apr2002                   </c></rc>
    <rc><c>  47</c><c>N </c><c>     14.00100000</c><c>      5.00000000</c><c>  PAW_PBE N 08Apr2002                   </c></rc>
    <rc><c>  72</c><c>I </c><c>    126.90400000</c><c>      7.00000000</c><c>  PAW_PBE I 08Apr2002                   </c></rc>
    <rc><c>  24</c><c>Pb</c><c>    207.20000000</c><c>      4.00000000</c><c>  PAW_PBE Pb 08Apr2002                  </c></rc>
   </set>
  </array>
 </atominfo>
 <structure name="initialpos" >
  <crystal>
   <varray name="basis" >
    <v>      18.06080055       0.00000000       0.00000000 </v>
    <v>      -0.00491865      18.06279945       0.00000000 </v>
    <v>       0.00000000       0.00000000      62.48749924 </v>
   </varray>
   <i name="volume">  20385.21054034 </i>
   <varray name="rec_basis" >
    <v>       0.05536853       0.00001508      -0.00000000 </v>
    <v>       0.00000000       0.05536240       0.00000000 </v>
    <v>       0.00000000      -0.00000000       0.01600320 </v>
   </varray>
  </crystal>
  <varray name="positions" >
   <v>       0.43732023       0.31018083       0.57305883 </v>
   <v>       0.42869631       0.83568378       0.57289321 </v>
   <v>       0.98113396       0.31770014       0.58226056 </v>
   <v>       0.96368651       0.80943165       0.58085501 </v>
   <v>       0.31300399       0.96030184       0.57578832 </v>
   <v>       0.32461345       0.56279437       0.57517095 </v>
   <v>       0.79563857       0.07179810       0.58049385 </v>
   <v>       0.03397954       0.13702965       0.56178931 </v>
   <v>       0.05887380       0.64202408       0.56236706 </v>
   <v>       0.57639612       0.18264402       0.55264740 </v>
   <v>       0.52830154       0.66328614       0.56433535 </v>
   <v>       0.35454024       0.02304821       0.55825454 </v>
   <v>       0.28059653       0.62410982       0.55737869 </v>
   <v>       0.86776438       0.03833716       0.56453516 </v>
   <v>       0.00534968       0.18204966       0.58530542 </v>
   <v>       0.01209938       0.68045843       0.58424063 </v>
   <v>       0.56228490       0.25651386       0.57036329 </v>
   <v>       0.45960536       0.70038576       0.57984712 </v>
   <v>       0.27596953       0.43471099       0.57712105 </v>
   <v>       0.17636426       0.94193786       0.57307757 </v>
   <v>       0.67670971       0.01047986       0.57836244 </v>
   <v>       0.36785008       0.26654017       0.55826431 </v>
   <v>       0.48654798       0.88123669       0.55468351 </v>
   <v>       0.01554262       0.36063114       0.55923350 </v>
   <v>       0.98840095       0.85694890       0.55810772 </v>
   <v>       0.19458178       0.41711938       0.56233794 </v>
   <v>       0.13002653       0.99786876       0.55473846 </v>
   <v>       0.67327545       0.92895767       0.56239538 </v>
   <v>       0.45038659       0.18172901       0.54254541 </v>
   <v>       0.55541709       0.77491062       0.54721956 </v>
   <v>       0.04415159       0.24821771       0.54244431 </v>
   <v>       0.04944178       0.75314841       0.54288349 </v>
   <v>       0.19301898       0.53475161       0.54704887 </v>
   <v>       0.23886246       0.05601391       0.54289887 </v>
   <v>       0.79311905       0.94052270       0.55113184 </v>
   <v>       0.47014935       0.32201667       0.67275443 </v>
   <v>       0.43296055       0.81816255       0.67166907 </v>
   <v>       0.97071212       0.27656986       0.68184616 </v>
   <v>       0.91965383       0.76844353       0.67282995 </v>
   <v>       0.29944373       0.05476344       0.67430363 </v>
   <v>       0.30693282       0.54504779       0.67489451 </v>
   <v>       0.78968427       0.06516850       0.67498028 </v>
   <v>       0.79224774       0.59180570       0.66793267 </v>
   <v>       0.08629456       0.16733410       0.64488594 </v>
   <v>       0.09967311       0.69822956       0.65548737 </v>
   <v>       0.57825159       0.16695781       0.65176311 </v>
   <v>       0.57189593       0.67820117       0.65681625 </v>
   <v>       0.18181193       0.41060847       0.64997552 </v>
   <v>       0.17329268       0.92005753       0.64956351 </v>
   <v>       0.70456453       0.40911535       0.66076674 </v>
   <v>       0.67508337       0.92015511       0.65040151 </v>
   <v>       0.06915983       0.17912964       0.67227442 </v>
   <v>       0.03581373       0.68603550       0.67585283 </v>
   <v>       0.58378204       0.23858590       0.67060080 </v>
   <v>       0.52982129       0.71568881       0.67969424 </v>
   <v>       0.21199078       0.43578252       0.67512008 </v>
   <v>       0.19699822       0.95124415       0.67463597 </v>
   <v>       0.69769827       0.48783039       0.67700565 </v>
   <v>       0.68976291       0.96124244       0.67517740 </v>
   <v>       0.39853037       0.29671200       0.65567234 </v>
   <v>       0.42158152       0.83656978       0.64433755 </v>
   <v>       0.93261599       0.32059209       0.65958639 </v>
   <v>       0.91806429       0.82644033       0.65067336 </v>
   <v>       0.32856110       0.07760381       0.64869512 </v>
   <v>       0.32431538       0.58025024       0.64962670 </v>
   <v>       0.82993790       0.07875521       0.65003633 </v>
   <v>       0.84322841       0.57787017       0.64467399 </v>
   <v>       0.00200141       0.25554550       0.63518356 </v>
   <v>       0.03212507       0.78483489       0.63787209 </v>
   <v>       0.45984337       0.19891754       0.64074943 </v>
   <v>       0.50784548       0.75086052       0.63333639 </v>
   <v>       0.25340831       0.99642388       0.63137592 </v>
   <v>       0.25004066       0.49973876       0.63205739 </v>
   <v>       0.76089779       0.98839861       0.63290308 </v>
   <v>       0.79462834       0.45939329       0.63884836 </v>
   <v>       0.44874502       0.30128397       0.76888902 </v>
   <v>       0.44874501       0.80128391       0.76888902 </v>
   <v>       0.94874497       0.30128397       0.76888902 </v>
   <v>       0.94874501       0.80128391       0.76888902 </v>
   <v>       0.30127600       0.05129450       0.76887296 </v>
   <v>       0.30127601       0.55129450       0.76887296 </v>
   <v>       0.80127594       0.05129450       0.76887296 </v>
   <v>       0.80127598       0.55129450       0.76887296 </v>
   <v>       0.07877100       0.17118050       0.74344197 </v>
   <v>       0.07877101       0.67118045       0.74344197 </v>
   <v>       0.57877100       0.17118050       0.74344197 </v>
   <v>       0.57877099       0.67118045       0.74344197 </v>
   <v>       0.17119950       0.42117448       0.74342103 </v>
   <v>       0.17119950       0.92117451       0.74342103 </v>
   <v>       0.67119951       0.42117448       0.74342103 </v>
   <v>       0.67119950       0.92117451       0.74342103 </v>
   <v>       0.05125600       0.19871499       0.76888902 </v>
   <v>       0.05125600       0.69871493       0.76888902 </v>
   <v>       0.55125603       0.19871499       0.76888902 </v>
   <v>       0.55125602       0.69871493       0.76888902 </v>
   <v>       0.19872349       0.44870397       0.76887205 </v>
   <v>       0.19872349       0.94870397       0.76887205 </v>
   <v>       0.69872352       0.44870397       0.76887205 </v>
   <v>       0.69872351       0.94870397       0.76887205 </v>
   <v>       0.42123152       0.32881747       0.74344197 </v>
   <v>       0.42123151       0.82881744       0.74344197 </v>
   <v>       0.92123147       0.32881747       0.74344197 </v>
   <v>       0.92123151       0.82881744       0.74344197 </v>
   <v>       0.32880050       0.07882500       0.74342103 </v>
   <v>       0.32880049       0.57882496       0.74342103 </v>
   <v>       0.82880048       0.07882500       0.74342103 </v>
   <v>       0.82880052       0.57882496       0.74342103 </v>
   <v>       0.00000350       0.25000148       0.72582199 </v>
   <v>       0.00000350       0.75000145       0.72582199 </v>
   <v>       0.50000351       0.25000148       0.72582199 </v>
   <v>       0.50000350       0.75000145       0.72582199 </v>
   <v>       0.25000050       0.00000000       0.72580398 </v>
   <v>       0.25000052       0.50000000       0.72580398 </v>
   <v>       0.75000050       0.00000000       0.72580398 </v>
   <v>       0.75000049       0.50000000       0.72580398 </v>
   <v>       0.77546343       0.55472323       0.52118872 </v>
   <v>       0.72051639       0.47430822       0.52692583 </v>
   <v>       0.87330017       0.50065369       0.54288080 </v>
   <v>       0.85579727       0.47660740       0.56987552 </v>
   <v>       0.74231644       0.63933076       0.56009292 </v>
   <v>       0.80237837       0.59570402       0.57897011 </v>
   <v>       0.66723469       0.54638056       0.57105105 </v>
   <v>       0.67795026       0.45364546       0.56118359 </v>
   <v>       0.61323874       0.55006542       0.53830359 </v>
   <v>       0.66770705       0.63238686       0.53789579 </v>
   <v>       0.60610028       0.64681067       0.50630375 </v>
   <v>       0.68673974       0.60279876       0.49678879 </v>
   <v>       0.81633890       0.38734596       0.52986758 </v>
   <v>       0.76700769       0.37403933       0.55407261 </v>
   <v>       0.86302272       0.36171960       0.55395070 </v>
   <v>       0.86396209       0.69110767       0.55731270 </v>
   <v>       0.84805563       0.64487346       0.53325937 </v>
   <v>       0.90795725       0.60556278       0.55307565 </v>
   <v>       0.75595796       0.52175524       0.60071970 </v>
   <v>       0.77499551       0.43110074       0.59022621 </v>
   <v>       0.68591543       0.45234886       0.60002077 </v>
   <v>       0.53450809       0.53154330       0.50550437 </v>
   <v>       0.57663063       0.55107301       0.48038511 </v>
   <v>       0.69383098       0.47924586       0.46965674 </v>
   <v>       0.56108307       0.41835749       0.52374288 </v>
   <v>       0.76198923       0.35965608       0.47228273 </v>
   <v>       0.62783954       0.29972548       0.52669189 </v>
   <v>       0.72859887       0.27015803       0.50133215 </v>
   <v>       0.02205470       0.24828547       0.55870159 </v>
   <v>       0.02413576       0.74997025       0.55850636 </v>
   <v>       0.46943982       0.22307172       0.55386420 </v>
   <v>       0.50923089       0.77199676       0.55844556 </v>
   <v>       0.23687115       0.52063846       0.55862693 </v>
   <v>       0.24201016       0.01344820       0.55548293 </v>
   <v>       0.77037548       0.98114363       0.56251034 </v>
   <v>       0.00903353       0.24428460       0.65178021 </v>
   <v>       0.00904363       0.76287226       0.65250472 </v>
   <v>       0.48762320       0.23181726       0.65298015 </v>
   <v>       0.49695656       0.75730670       0.65015683 </v>
   <v>       0.25239903       0.49481944       0.64925492 </v>
   <v>       0.25141265       0.99940751       0.64860672 </v>
   <v>       0.77367605       0.49294459       0.65216834 </v>
   <v>       0.75350905       0.99967160       0.64976094 </v>
   <v>       0.49998898       0.24999498       0.74327702 </v>
   <v>       0.49998903       0.74999496       0.74327702 </v>
   <v>       0.99998898       0.24999498       0.74327702 </v>
   <v>       0.99998903       0.74999496       0.74327702 </v>
   <v>       0.25000050       0.00000100       0.74325596 </v>
   <v>       0.25000052       0.50000100       0.74325596 </v>
   <v>       0.75000050       0.00000100       0.74325596 </v>
   <v>       0.75000049       0.50000100       0.74325596 </v>
   <v>       0.62334422       0.45734917       0.49696637 </v>
   <v>       0.67989975       0.43963905       0.48259015 </v>
   <v>       0.60483463       0.40562949       0.51249985 </v>
   <v>       0.71729943       0.37287388       0.48373820 </v>
   <v>       0.64182561       0.33903794       0.51410020 </v>
   <v>       0.69871149       0.32215096       0.49983877 </v>
   <v>       0.73216178       0.53185745       0.53155633 </v>
   <v>       0.83245686       0.47571168       0.55364956 </v>
   <v>       0.79046004       0.60214175       0.56179193 </v>
   <v>       0.70503658       0.49942598       0.56964616 </v>
   <v>       0.65968185       0.57784673       0.52989432 </v>
   <v>       0.63696040       0.59326329       0.50661320 </v>
   <v>       0.81794119       0.39554598       0.54723165 </v>
   <v>       0.85599530       0.63586232       0.55051990 </v>
   <v>       0.73331746       0.47533117       0.59144581 </v>
   <v>       0.58790679       0.53292554       0.49678079 </v>
   <v>       0.02042191       0.18507468       0.56929978 </v>
   <v>       0.03368274       0.68789214       0.56900547 </v>
   <v>       0.54047947       0.22144085       0.55879847 </v>
   <v>       0.49865697       0.70877796       0.56828316 </v>
   <v>       0.42315890       0.27200685       0.56127761 </v>
   <v>       0.47101121       0.83192363       0.56141832 </v>
   <v>       0.00016631       0.31207759       0.56664831 </v>
   <v>       0.98580316       0.80666236       0.56567412 </v>
   <v>       0.23676001       0.45254263       0.56647707 </v>
   <v>       0.17999548       0.98010313       0.56111907 </v>
   <v>       0.70028653       0.97591932       0.56735103 </v>
   <v>       0.30642192       0.99984493       0.56414934 </v>
   <v>       0.28410597       0.57168492       0.56414677 </v>
   <v>       0.81430630       0.03258267       0.57034369 </v>
   <v>       0.05820595       0.19292687       0.65698230 </v>
   <v>       0.05074273       0.71160142       0.66208085 </v>
   <v>       0.55469424       0.21098190       0.65887794 </v>
   <v>       0.53497075       0.71474901       0.66331297 </v>
   <v>       0.21361138       0.44413459       0.65873680 </v>
   <v>       0.20408388       0.95427918       0.65825269 </v>
   <v>       0.72224841       0.46253686       0.66416537 </v>
   <v>       0.70289446       0.95753578       0.65908232 </v>
   <v>       0.45107182       0.28716948       0.66077883 </v>
   <v>       0.44747475       0.80664594       0.65600841 </v>
   <v>       0.96859879       0.28213569       0.66542655 </v>
   <v>       0.94490524       0.78657099       0.65922951 </v>
   <v>       0.29506189       0.04598020       0.65783940 </v>
   <v>       0.29728935       0.54336518       0.65856440 </v>
   <v>       0.79268060       0.05040117       0.65892501 </v>
   <v>       0.80236468       0.55767970       0.65530880 </v>
   <v>       0.04586250       0.20411950       0.75272599 </v>
   <v>       0.04586250       0.70411946       0.75272599 </v>
   <v>       0.54586251       0.20411950       0.75272599 </v>
   <v>       0.54586250       0.70411946       0.75272599 </v>
   <v>       0.20411900       0.45410100       0.75270499 </v>
   <v>       0.20411899       0.95410095       0.75270499 </v>
   <v>       0.70411898       0.45410100       0.75270499 </v>
   <v>       0.70411896       0.95410095       0.75270499 </v>
   <v>       0.45414002       0.29588849       0.75272697 </v>
   <v>       0.45414001       0.79588852       0.75272697 </v>
   <v>       0.95414002       0.29588849       0.75272697 </v>
[...]
   <v>       0.57639612       0.18264402       0.55264740 </v>
   <v>       0.52830154       0.66328614       0.56433535 </v>
   <v>       0.35454024       0.02304821       0.55825454 </v>
   <v>       0.28059653       0.62410982       0.55737869 </v>
   <v>       0.86776438       0.03833716       0.56453516 </v>
   <v>       0.00534968       0.18204966       0.58530542 </v>
   <v>       0.01209938       0.68045843       0.58424063 </v>
   <v>       0.56228490       0.25651386       0.57036329 </v>
   <v>       0.45960536       0.70038576       0.57984712 </v>
   <v>       0.27596953       0.43471099       0.57712105 </v>
   <v>       0.17636426       0.94193786       0.57307757 </v>
   <v>       0.67670971       0.01047986       0.57836244 </v>
   <v>       0.36785008       0.26654017       0.55826431 </v>
   <v>       0.48654798       0.88123669       0.55468351 </v>
   <v>       0.01554262       0.36063114       0.55923350 </v>
   <v>       0.98840095       0.85694890       0.55810772 </v>
   <v>       0.19458178       0.41711938       0.56233794 </v>
   <v>       0.13002653       0.99786876       0.55473846 </v>
   <v>       0.67327545       0.92895767       0.56239538 </v>
   <v>       0.45038659       0.18172901       0.54254541 </v>
   <v>       0.55541709       0.77491062       0.54721956 </v>
   <v>       0.04415159       0.24821771       0.54244431 </v>
   <v>       0.04944178       0.75314841       0.54288349 </v>
   <v>       0.19301898       0.53475161       0.54704887 </v>
   <v>       0.23886246       0.05601391       0.54289887 </v>
   <v>       0.79311905       0.94052270       0.55113184 </v>
   <v>       0.47014935       0.32201667       0.67275443 </v>
   <v>       0.43296055       0.81816255       0.67166907 </v>
   <v>       0.97071212       0.27656986       0.68184616 </v>
   <v>       0.91965383       0.76844353       0.67282995 </v>
   <v>       0.29944373       0.05476344       0.67430363 </v>
   <v>       0.30693282       0.54504779       0.67489451 </v>
   <v>       0.78968427       0.06516850       0.67498028 </v>
   <v>       0.79224774       0.59180570       0.66793267 </v>
   <v>       0.08629456       0.16733410       0.64488594 </v>
   <v>       0.09967311       0.69822956       0.65548737 </v>
   <v>       0.57825159       0.16695781       0.65176311 </v>
   <v>       0.57189593       0.67820117       0.65681625 </v>
   <v>       0.18181193       0.41060847       0.64997552 </v>
   <v>       0.17329268       0.92005753       0.64956351 </v>
   <v>       0.70456453       0.40911535       0.66076674 </v>
   <v>       0.67508337       0.92015511       0.65040151 </v>
   <v>       0.06915983       0.17912964       0.67227442 </v>
   <v>       0.03581373       0.68603550       0.67585283 </v>
   <v>       0.58378204       0.23858590       0.67060080 </v>
   <v>       0.52982129       0.71568881       0.67969424 </v>
   <v>       0.21199078       0.43578252       0.67512008 </v>
   <v>       0.19699822       0.95124415       0.67463597 </v>
   <v>       0.69769827       0.48783039       0.67700565 </v>
   <v>       0.68976291       0.96124244       0.67517740 </v>
   <v>       0.39853037       0.29671200       0.65567234 </v>
   <v>       0.42158152       0.83656978       0.64433755 </v>
   <v>       0.93261599       0.32059209       0.65958639 </v>
   <v>       0.91806429       0.82644033       0.65067336 </v>
   <v>       0.32856110       0.07760381       0.64869512 </v>
   <v>       0.32431538       0.58025024       0.64962670 </v>
   <v>       0.82993790       0.07875521       0.65003633 </v>
   <v>       0.84322841       0.57787017       0.64467399 </v>
   <v>       0.00200141       0.25554550       0.63518356 </v>
   <v>       0.03212507       0.78483489       0.63787209 </v>
   <v>       0.45984337       0.19891754       0.64074943 </v>
   <v>       0.50784548       0.75086052       0.63333639 </v>
   <v>       0.25340831       0.99642388       0.63137592 </v>
   <v>       0.25004066       0.49973876       0.63205739 </v>
   <v>       0.76089779       0.98839861       0.63290308 </v>
   <v>       0.79462834       0.45939329       0.63884836 </v>
   <v>       0.44874502       0.30128397       0.76888902 </v>
   <v>       0.44874501       0.80128391       0.76888902 </v>
   <v>       0.94874497       0.30128397       0.76888902 </v>
   <v>       0.94874501       0.80128391       0.76888902 </v>
   <v>       0.30127600       0.05129450       0.76887296 </v>
   <v>       0.30127601       0.55129450       0.76887296 </v>
   <v>       0.80127594       0.05129450       0.76887296 </v>
   <v>       0.80127598       0.55129450       0.76887296 </v>
   <v>       0.07877100       0.17118050       0.74344197 </v>
   <v>       0.07877101       0.67118045       0.74344197 </v>
   <v>       0.57877100       0.17118050       0.74344197 </v>
   <v>       0.57877099       0.67118045       0.74344197 </v>
   <v>       0.17119950       0.42117448       0.74342103 </v>
   <v>       0.17119950       0.92117451       0.74342103 </v>
   <v>       0.67119951       0.42117448       0.74342103 </v>
   <v>       0.67119950       0.92117451       0.74342103 </v>
   <v>       0.05125600       0.19871499       0.76888902 </v>
   <v>       0.05125600       0.69871493       0.76888902 </v>
   <v>       0.55125603       0.19871499       0.76888902 </v>
   <v>       0.55125602       0.69871493       0.76888902 </v>
   <v>       0.19872349       0.44870397       0.76887205 </v>
   <v>       0.19872349       0.94870397       0.76887205 </v>
   <v>       0.69872352       0.44870397       0.76887205 </v>
   <v>       0.69872351       0.94870397       0.76887205 </v>
   <v>       0.42123152       0.32881747       0.74344197 </v>
   <v>       0.42123151       0.82881744       0.74344197 </v>
   <v>       0.92123147       0.32881747       0.74344197 </v>
   <v>       0.92123151       0.82881744       0.74344197 </v>
   <v>       0.32880050       0.07882500       0.74342103 </v>
   <v>       0.32880049       0.57882496       0.74342103 </v>
   <v>       0.82880048       0.07882500       0.74342103 </v>
   <v>       0.82880052       0.57882496       0.74342103 </v>
   <v>       0.00000350       0.25000148       0.72582199 </v>
   <v>       0.00000350       0.75000145       0.72582199 </v>
   <v>       0.50000351       0.25000148       0.72582199 </v>
   <v>       0.50000350       0.75000145       0.72582199 </v>
   <v>       0.25000050       0.00000000       0.72580398 </v>
   <v>       0.25000052       0.50000000       0.72580398 </v>
   <v>       0.75000050       0.00000000       0.72580398 </v>
   <v>       0.75000049       0.50000000       0.72580398 </v>
   <v>       0.77546343       0.55472323       0.52118872 </v>
   <v>       0.72051639       0.47430822       0.52692583 </v>
   <v>       0.87330017       0.50065369       0.54288080 </v>
   <v>       0.85579727       0.47660740       0.56987552 </v>
   <v>       0.74231644       0.63933076       0.56009292 </v>
   <v>       0.80237837       0.59570402       0.57897011 </v>
   <v>       0.66723469       0.54638056       0.57105105 </v>
   <v>       0.67795026       0.45364546       0.56118359 </v>
   <v>       0.61323874       0.55006542       0.53830359 </v>
   <v>       0.66770705       0.63238686       0.53789579 </v>
   <v>       0.60610028       0.64681067       0.50630375 </v>
   <v>       0.68673974       0.60279876       0.49678879 </v>
   <v>       0.81633890       0.38734596       0.52986758 </v>
   <v>       0.76700769       0.37403933       0.55407261 </v>
   <v>       0.86302272       0.36171960       0.55395070 </v>
   <v>       0.86396209       0.69110767       0.55731270 </v>
   <v>       0.84805563       0.64487346       0.53325937 </v>
   <v>       0.90795725       0.60556278       0.55307565 </v>
   <v>       0.75595796       0.52175524       0.60071970 </v>
   <v>       0.77499551       0.43110074       0.59022621 </v>
   <v>       0.68591543       0.45234886       0.60002077 </v>
   <v>       0.53450809       0.53154330       0.50550437 </v>
   <v>       0.57663063       0.55107301       0.48038511 </v>
   <v>       0.69383098       0.47924586       0.46965674 </v>
   <v>       0.56108307       0.41835749       0.52374288 </v>
   <v>       0.76198923       0.35965608       0.47228273 </v>
   <v>       0.62783954       0.29972548       0.52669189 </v>
   <v>       0.72859887       0.27015803       0.50133215 </v>
   <v>       0.02205470       0.24828547       0.55870159 </v>
   <v>       0.02413576       0.74997025       0.55850636 </v>
   <v>       0.46943982       0.22307172       0.55386420 </v>
   <v>       0.50923089       0.77199676       0.55844556 </v>
   <v>       0.23687115       0.52063846       0.55862693 </v>
   <v>       0.24201016       0.01344820       0.55548293 </v>
   <v>       0.77037548       0.98114363       0.56251034 </v>
   <v>       0.00903353       0.24428460       0.65178021 </v>
   <v>       0.00904363       0.76287226       0.65250472 </v>
   <v>       0.48762320       0.23181726       0.65298015 </v>
   <v>       0.49695656       0.75730670       0.65015683 </v>
   <v>       0.25239903       0.49481944       0.64925492 </v>
   <v>       0.25141265       0.99940751       0.64860672 </v>
   <v>       0.77367605       0.49294459       0.65216834 </v>
   <v>       0.75350905       0.99967160       0.64976094 </v>
   <v>       0.49998898       0.24999498       0.74327702 </v>
   <v>       0.49998903       0.74999496       0.74327702 </v>
   <v>       0.99998898       0.24999498       0.74327702 </v>
   <v>       0.99998903       0.74999496       0.74327702 </v>
   <v>       0.25000050       0.00000100       0.74325596 </v>
   <v>       0.25000052       0.50000100       0.74325596 </v>
   <v>       0.75000050       0.00000100       0.74325596 </v>
   <v>       0.75000049       0.50000100       0.74325596 </v>
   <v>       0.62334422       0.45734917       0.49696637 </v>
   <v>       0.67989975       0.43963905       0.48259015 </v>
   <v>       0.60483463       0.40562949       0.51249985 </v>
   <v>       0.71729943       0.37287388       0.48373820 </v>
   <v>       0.64182561       0.33903794       0.51410020 </v>
   <v>       0.69871149       0.32215096       0.49983877 </v>
   <v>       0.73216178       0.53185745       0.53155633 </v>
   <v>       0.83245686       0.47571168       0.55364956 </v>
   <v>       0.79046004       0.60214175       0.56179193 </v>
   <v>       0.70503658       0.49942598       0.56964616 </v>
   <v>       0.65968185       0.57784673       0.52989432 </v>
   <v>       0.63696040       0.59326329       0.50661320 </v>
   <v>       0.81794119       0.39554598       0.54723165 </v>
   <v>       0.85599530       0.63586232       0.55051990 </v>
   <v>       0.73331746       0.47533117       0.59144581 </v>
   <v>       0.58790679       0.53292554       0.49678079 </v>
   <v>       0.02042191       0.18507468       0.56929978 </v>
   <v>       0.03368274       0.68789214       0.56900547 </v>
   <v>       0.54047947       0.22144085       0.55879847 </v>
   <v>       0.49865697       0.70877796       0.56828316 </v>
   <v>       0.42315890       0.27200685       0.56127761 </v>
   <v>       0.47101121       0.83192363       0.56141832 </v>
   <v>       0.00016631       0.31207759       0.56664831 </v>
   <v>       0.98580316       0.80666236       0.56567412 </v>
   <v>       0.23676001       0.45254263       0.56647707 </v>
   <v>       0.17999548       0.98010313       0.56111907 </v>
   <v>       0.70028653       0.97591932       0.56735103 </v>
   <v>       0.30642192       0.99984493       0.56414934 </v>
   <v>       0.28410597       0.57168492       0.56414677 </v>
   <v>       0.81430630       0.03258267       0.57034369 </v>
   <v>       0.05820595       0.19292687       0.65698230 </v>
   <v>       0.05074273       0.71160142       0.66208085 </v>
   <v>       0.55469424       0.21098190       0.65887794 </v>
   <v>       0.53497075       0.71474901       0.66331297 </v>
   <v>       0.21361138       0.44413459       0.65873680 </v>
   <v>       0.20408388       0.95427918       0.65825269 </v>
   <v>       0.72224841       0.46253686       0.66416537 </v>
   <v>       0.70289446       0.95753578       0.65908232 </v>
   <v>       0.45107182       0.28716948       0.66077883 </v>
   <v>       0.44747475       0.80664594       0.65600841 </v>
   <v>       0.96859879       0.28213569       0.66542655 </v>
   <v>       0.94490524       0.78657099       0.65922951 </v>
   <v>       0.29506189       0.04598020       0.65783940 </v>
   <v>       0.29728935       0.54336518       0.65856440 </v>
   <v>       0.79268060       0.05040117       0.65892501 </v>
   <v>       0.80236468       0.55767970       0.65530880 </v>
   <v>       0.04586250       0.20411950       0.75272599 </v>
   <v>       0.04586250       0.70411946       0.75272599 </v>
   <v>       0.54586251       0.20411950       0.75272599 </v>
   <v>       0.54586250       0.70411946       0.75272599 </v>
   <v>       0.20411900       0.45410100       0.75270499 </v>
   <v>       0.20411899       0.95410095       0.75270499 </v>
   <v>       0.70411898       0.45410100       0.75270499 </v>
   <v>       0.70411896       0.95410095       0.75270499 </v>
   <v>       0.45414002       0.29588849       0.75272697 </v>
   <v>       0.45414001       0.79588852       0.75272697 </v>
   <v>       0.95414002       0.29588849       0.75272697 </v>
   <v>       0.95414006       0.79588852       0.75272697 </v>
   <v>       0.29588249       0.04590050       0.75270499 </v>
   <v>       0.29588248       0.54590053       0.75270499 </v>
   <v>       0.79588244       0.04590050       0.75270499 </v>
   <v>       0.79588248       0.54590053       0.75270499 </v>
   <v>       0.76574839       0.52688353       0.55388935 </v>
   <v>       0.50501795       0.02047017       0.55306936 </v>
   <v>       0.47200298       0.50664111       0.55623717 </v>
   <v>       0.98948062       0.99794736       0.54992994 </v>
   <v>       0.03807230       0.49452720       0.55315184 </v>
   <v>       0.23097849       0.23349293       0.55344785 </v>
   <v>       0.25784940       0.76062350       0.55311063 </v>
   <v>       0.74082657       0.20647330       0.55521109 </v>
   <v>       0.71123000       0.78981995       0.54858891 </v>
   <v>       0.00170048       0.99021655       0.65488074 </v>
   <v>       0.01140603       0.49571035       0.65581086 </v>
   <v>       0.49947216       0.00887669       0.65470975 </v>
   <v>       0.50633742       0.49302125       0.65556136 </v>
   <v>       0.25606237       0.24458842       0.65487213 </v>
   <v>       0.24816276       0.75251811       0.65489960 </v>
   <v>       0.74534393       0.26666348       0.65476377 </v>
   <v>       0.75096568       0.75221125       0.65390618 </v>
   <v>       0.13830021       0.10451346       0.60949624 </v>
   <v>       0.14721950       0.60690743       0.60999548 </v>
   <v>       0.64868984       0.10262379       0.61168631 </v>
   <v>       0.61734863       0.63648365       0.61431214 </v>
   <v>       0.35797046       0.38984805       0.60910468 </v>
   <v>       0.36432744       0.88918280       0.60771255 </v>
   <v>       0.89331486       0.36254327       0.61397137 </v>
   <v>       0.86909876       0.87703705       0.60966521 </v>
   <v>       0.11963248       0.35783508       0.61087707 </v>
   <v>       0.12096184       0.86952267       0.60762550 </v>
   <v>       0.57931352       0.32923618       0.60439634 </v>
   <v>       0.61490844       0.86900710       0.61150213 </v>
   <v>       0.38431578       0.13216134       0.60609565 </v>
   <v>       0.38781474       0.63837180       0.61094465 </v>
   <v>       0.88996405       0.13876238       0.61351779 </v>
   <v>       0.91122405       0.64492563       0.61479881 </v>
   <v>       0.00000000       0.00000000       0.75492797 </v>
   <v>       0.00000000       0.50000000       0.75492797 </v>
   <v>       0.50000000       0.00000000       0.75492797 </v>
   <v>       0.49999999       0.50000000       0.75492797 </v>
   <v>       0.25000050       0.25000000       0.75493902 </v>
   <v>       0.25000051       0.74999997       0.75493902 </v>
   <v>       0.75000047       0.25000000       0.75493902 </v>
   <v>       0.75000046       0.74999997       0.75493902 </v>
   <v>       0.13579050       0.11421000       0.70478299 </v>
   <v>       0.13579050       0.61420998       0.70478299 </v>
   <v>       0.63579045       0.11421000       0.70478299 </v>
   <v>       0.63579049       0.61420998       0.70478299 </v>
   <v>       0.36420952       0.38578999       0.70478299 </v>
   <v>       0.36420950       0.88578996       0.70478299 </v>
   <v>       0.86420954       0.38578999       0.70478299 </v>
   <v>       0.86420953       0.88578996       0.70478299 </v>
   <v>       0.11421799       0.36421899       0.70478098 </v>
   <v>       0.11421799       0.86421899       0.70478098 </v>
   <v>       0.61421800       0.36421899       0.70478098 </v>
   <v>       0.61421799       0.86421899       0.70478098 </v>
   <v>       0.38578201       0.13578149       0.70478202 </v>
   <v>       0.38578200       0.63578149       0.70478202 </v>
   <v>       0.88578199       0.13578149       0.70478202 </v>
   <v>       0.88578203       0.63578149       0.70478202 </v>
   <v>       0.13466700       0.11533200       0.80125603 </v>
   <v>       0.13466699       0.61533199       0.80125603 </v>
   <v>       0.63466699       0.11533200       0.80125603 </v>
   <v>       0.63466698       0.61533199       0.80125603 </v>
   <v>       0.36533300       0.38466799       0.80125603 </v>
   <v>       0.36533299       0.88466796       0.80125603 </v>
   <v>       0.86533295       0.38466799       0.80125603 </v>
   <v>       0.86533294       0.88466796       0.80125603 </v>
   <v>       0.11532850       0.36533700       0.80126500 </v>
   <v>       0.11532850       0.86533698       0.80126500 </v>
   <v>       0.61532850       0.36533700       0.80126500 </v>
   <v>       0.61532849       0.86533698       0.80126500 </v>
   <v>       0.38467151       0.13466300       0.80126500 </v>
   <v>       0.38467150       0.63466297       0.80126500 </v>
   <v>       0.88467149       0.13466300       0.80126500 </v>
   <v>       0.88467153       0.63466297       0.80126500 </v>
   <v>       0.99253978       0.99897905       0.60595256 </v>
   <v>       0.00873092       0.49858687       0.60661340 </v>
   <v>       0.50300403       0.00943097       0.60447778 </v>
   <v>       0.49686525       0.49301909       0.60530655 </v>
   <v>       0.24456582       0.24127315       0.60365541 </v>
   <v>       0.24812775       0.74601412       0.60332831 </v>
   <v>       0.73992063       0.24664761       0.60309084 </v>
   <v>       0.73464215       0.75417807       0.60231334 </v>
   <v>       0.00000050       0.00000050       0.70482896 </v>
   <v>       0.00000050       0.50000048       0.70482896 </v>
   <v>       0.50000048       0.00000050       0.70482896 </v>
   <v>       0.50000046       0.50000048       0.70482896 </v>
   <v>       0.24999999       0.24999947       0.70482499 </v>
   <v>       0.25000001       0.74999950       0.70482499 </v>
   <v>       0.74999999       0.24999947       0.70482499 </v>
   <v>       0.74999998       0.74999950       0.70482499 </v>
   <v>       0.00000000       0.00000000       0.80731797 </v>
   <v>       0.00000000       0.50000000       0.80731797 </v>
   <v>       0.50000000       0.00000000       0.80731797 </v>
   <v>       0.49999999       0.50000000       0.80731797 </v>
   <v>       0.24999999       0.25000000       0.80731797 </v>
   <v>       0.25000001       0.74999997       0.80731797 </v>
   <v>       0.74999999       0.25000000       0.80731797 </v>
   <v>       0.74999998       0.74999997       0.80731797 </v>
  </varray>
 </structure>
</modeling>
