<?xml version="1.0" encoding="ISO-8859-1"?>
<modeling>
 <generator>
  <i name="program" type="string">vasp </i>
  <i name="version" type="string">6.2.1  </i>
  <i name="subversion" type="string">16May21 (build Nov 15 2021 14:57:28) complex                          parallel </i>
  <i name="platform" type="string">LinuxPGI </i>
  <i name="date" type="string">2023 07 30 </i>
  <i name="time" type="string">18:36:37 </i>
 </generator>
 <incar>
  <i type="string" name="SYSTEM">PSC</i>
  <i type="int" name="ISTART">     1</i>
  <i type="string" name="PREC">Normal</i>
  <i name="BMIX">      0.01000000</i>
  <i name="AMIN">      0.01000000</i>
  <i type="int" name="ICHARG">     1</i>
  <i type="int" name="NELM">   600</i>
  <i type="int" name="ISYM">     0</i>
  <i name="ENCUT">    500.00000000</i>
  <i type="string" name="LREAL">Auto</i>
  <i type="int" name="ISMEAR">     0</i>
  <i name="SIGMA">      0.05000000</i>
  <i type="logical" name="LWAVE"> F  </i>
  <i type="logical" name="LVTOT"> T  </i>
  <i type="logical" name="GGA_COMPAT"> F  </i>
  <i type="logical" name="LDIPOL"> T  </i>
  <i type="int" name="IDIPOL">     3</i>
  <i type="int" name="IVDW">    12</i>
 </incar>
 <primitive_cell>
  <structure name="primitive_cell" >
   <crystal>
    <varray name="basis" >
     <v>      18.06080055       0.00000000       0.00000000 </v>
     <v>      -0.00491865      18.06279945       0.00000000 </v>
     <v>       0.00000000       0.00000000      62.48749924 </v>
    </varray>
    <i name="volume">  20385.21054034 </i>
    <varray name="rec_basis" >
     <v>       0.05536853       0.00001508      -0.00000000 </v>
     <v>       0.00000000       0.05536240       0.00000000 </v>
     <v>       0.00000000      -0.00000000       0.01600320 </v>
    </varray>
   </crystal>
   <varray name="positions" >
    <v>       0.45119871       0.31609517       0.57856946 </v>
    <v>       0.44902118       0.84513283       0.57502651 </v>
    <v>       0.92770068       0.25410513       0.58191845 </v>
    <v>       0.95343221       0.80648607       0.58380818 </v>
    <v>       0.29745967       0.05682236       0.57957936 </v>
    <v>       0.31045937       0.56082221       0.58028586 </v>
    <v>       0.78900335       0.07245777       0.58115139 </v>
    <v>       0.10868518       0.22474084       0.55749304 </v>
    <v>       0.09239245       0.68083461       0.56271246 </v>
    <v>       0.57313363       0.17539380       0.55658874 </v>
    <v>       0.50551308       0.65366307       0.56691643 </v>
    <v>       0.35959293       0.02107706       0.56112456 </v>
    <v>       0.28395353       0.61696038       0.55892301 </v>
    <v>       0.86314051       0.04366180       0.56560037 </v>
    <v>       0.06475261       0.22119009       0.58197755 </v>
    <v>       0.03341491       0.69135023       0.58409662 </v>
    <v>       0.56763584       0.24948409       0.57538358 </v>
    <v>       0.48005695       0.71624978       0.58701664 </v>
    <v>       0.25663880       0.43294708       0.58138173 </v>
    <v>       0.16638566       0.01191821       0.57621095 </v>
    <v>       0.67380819       0.99820865       0.57948248 </v>
    <v>       0.37746910       0.28576897       0.56245222 </v>
    <v>       0.47150357       0.86691785       0.54886393 </v>
    <v>       0.88486444       0.26227866       0.55748614 </v>
    <v>       0.97053781       0.86773753       0.56259940 </v>
    <v>       0.19576010       0.41006489       0.56102237 </v>
    <v>       0.14538543       0.95495513       0.55468187 </v>
    <v>       0.67783830       0.91922111       0.56302832 </v>
    <v>       0.44802323       0.19612284       0.54552372 </v>
    <v>       0.50928496       0.74506011       0.54098296 </v>
    <v>       0.99907424       0.24890756       0.53882719 </v>
    <v>       0.05713507       0.79123862       0.54634487 </v>
    <v>       0.20721475       0.52597378       0.54459593 </v>
    <v>       0.26944794       0.95324769       0.54320527 </v>
    <v>       0.79745977       0.94249250       0.55208931 </v>
    <v>       0.46026064       0.30870484       0.67654291 </v>
    <v>       0.42997541       0.81272877       0.67171058 </v>
    <v>       0.96230788       0.28002180       0.68013158 </v>
    <v>       0.93457225       0.78668202       0.67423990 </v>
    <v>       0.30492980       0.05667788       0.67372417 </v>
    <v>       0.29689503       0.54391438       0.67704289 </v>
    <v>       0.79284129       0.04985647       0.67741467 </v>
    <v>       0.84208994       0.51536318       0.66911461 </v>
    <v>       0.08738805       0.17732936       0.64490584 </v>
    <v>       0.09628603       0.68993720       0.65418053 </v>
    <v>       0.57117582       0.16370549       0.65048820 </v>
    <v>       0.57622612       0.67988198       0.65738576 </v>
    <v>       0.17604580       0.41630263       0.64813189 </v>
    <v>       0.17483924       0.92057075       0.65147595 </v>
    <v>       0.65096415       0.46928990       0.65756164 </v>
    <v>       0.67120563       0.92284975       0.64760347 </v>
    <v>       0.06743540       0.18536815       0.67192816 </v>
    <v>       0.04102440       0.69292402       0.67656153 </v>
    <v>       0.55935473       0.20613984       0.67547452 </v>
    <v>       0.53104708       0.71611061       0.67971768 </v>
    <v>       0.20181999       0.43743058       0.67388527 </v>
    <v>       0.20201646       0.95408817       0.67594941 </v>
    <v>       0.72055479       0.44934573       0.67519193 </v>
    <v>       0.68907954       0.94926351       0.67363119 </v>
    <v>       0.41696109       0.32398743       0.65225741 </v>
    <v>       0.41974441       0.83196703       0.64455085 </v>
    <v>       0.92406504       0.32248116       0.65732508 </v>
    <v>       0.92944490       0.83623399       0.65028119 </v>
    <v>       0.33114879       0.07847312       0.64788862 </v>
    <v>       0.32284695       0.58174320       0.65295561 </v>
    <v>       0.83233591       0.07524244       0.65334180 </v>
    <v>       0.84767590       0.56800904       0.64531529 </v>
    <v>       0.00090637       0.26112453       0.63393942 </v>
    <v>       0.03311520       0.77942593       0.63606454 </v>
    <v>       0.48282660       0.23482243       0.63402531 </v>
    <v>       0.51065396       0.75131242       0.63368937 </v>
    <v>       0.25129198       0.99518705       0.63194683 </v>
    <v>       0.25069261       0.50639649       0.63273044 </v>
    <v>       0.75918855       0.99928617       0.63288061 </v>
    <v>       0.72583159       0.54564229       0.63662300 </v>
    <v>       0.44874502       0.30128397       0.76888902 </v>
    <v>       0.44874501       0.80128391       0.76888902 </v>
    <v>       0.94874497       0.30128397       0.76888902 </v>
    <v>       0.94874501       0.80128391       0.76888902 </v>
    <v>       0.30127600       0.05129450       0.76887296 </v>
    <v>       0.30127601       0.55129450       0.76887296 </v>
    <v>       0.80127594       0.05129450       0.76887296 </v>
    <v>       0.80127598       0.55129450       0.76887296 </v>
    <v>       0.07877100       0.17118050       0.74344197 </v>
    <v>       0.07877101       0.67118045       0.74344197 </v>
    <v>       0.57877100       0.17118050       0.74344197 </v>
    <v>       0.57877099       0.67118045       0.74344197 </v>
    <v>       0.17119950       0.42117448       0.74342103 </v>
    <v>       0.17119950       0.92117451       0.74342103 </v>
    <v>       0.67119951       0.42117448       0.74342103 </v>
    <v>       0.67119950       0.92117451       0.74342103 </v>
    <v>       0.05125600       0.19871499       0.76888902 </v>
    <v>       0.05125600       0.69871493       0.76888902 </v>
    <v>       0.55125603       0.19871499       0.76888902 </v>
    <v>       0.55125602       0.69871493       0.76888902 </v>
    <v>       0.19872349       0.44870397       0.76887205 </v>
    <v>       0.19872349       0.94870397       0.76887205 </v>
    <v>       0.69872352       0.44870397       0.76887205 </v>
    <v>       0.69872351       0.94870397       0.76887205 </v>
    <v>       0.42123152       0.32881747       0.74344197 </v>
    <v>       0.42123151       0.82881744       0.74344197 </v>
    <v>       0.92123147       0.32881747       0.74344197 </v>
    <v>       0.92123151       0.82881744       0.74344197 </v>
    <v>       0.32880050       0.07882500       0.74342103 </v>
    <v>       0.32880049       0.57882496       0.74342103 </v>
    <v>       0.82880048       0.07882500       0.74342103 </v>
    <v>       0.82880052       0.57882496       0.74342103 </v>
    <v>       0.00000350       0.25000148       0.72582199 </v>
    <v>       0.00000350       0.75000145       0.72582199 </v>
    <v>       0.50000351       0.25000148       0.72582199 </v>
    <v>       0.50000350       0.75000145       0.72582199 </v>
    <v>       0.25000050       0.00000000       0.72580398 </v>
    <v>       0.25000052       0.50000000       0.72580398 </v>
    <v>       0.75000050       0.00000000       0.72580398 </v>
    <v>       0.75000049       0.50000000       0.72580398 </v>
    <v>       0.71705464       0.43980386       0.54223266 </v>
    <v>       0.73593293       0.49919061       0.52106052 </v>
    <v>       0.65294974       0.54577714       0.56154322 </v>
    <v>       0.69721273       0.63299995       0.56063649 </v>
    <v>       0.84106027       0.50413084       0.57397839 </v>
    <v>       0.77359226       0.56782572       0.58340050 </v>
    <v>       0.86531590       0.55745066       0.53548149 </v>
    <v>       0.79402370       0.62057765       0.52846684 </v>
    <v>       0.86437510       0.47176738       0.52061597 </v>
    <v>       0.86594285       0.43419548       0.54653107 </v>
    <v>       0.87860308       0.33724680       0.52012588 </v>
    <v>       0.79151899       0.32633980       0.53282593 </v>
    <v>       0.63219594       0.54693721       0.52250526 </v>
    <v>       0.69123265       0.62612965       0.51955137 </v>
    <v>       0.60689253       0.63339414       0.53322268 </v>
    <v>       0.75324712       0.44766343       0.59873865 </v>
    <v>       0.74050663       0.40461160       0.57373927 </v>
    <v>       0.67484632       0.47076084       0.58300369 </v>
    <v>       0.82976670       0.68286300       0.56654148 </v>
    <v>       0.88493104       0.69083344       0.54376837 </v>
    <v>       0.91074463       0.62604575       0.56356169 </v>
    <v>       0.82352178       0.39377224       0.48829285 </v>
    <v>       0.78677336       0.30340712       0.49268186 </v>
    <v>       0.66276204       0.31823551       0.52195211 </v>
    <v>       0.73667016       0.46715307       0.47310314 </v>
    <v>       0.53899526       0.37460176       0.52061304 </v>
    <v>       0.61277247       0.52502901       0.47174786 </v>
    <v>       0.51130627       0.47802861       0.49548060 </v>
    <v>       0.99720775       0.24470418       0.55650370 </v>
    <v>       0.03054369       0.77365451       0.56140990 </v>
    <v>       0.47314054       0.22998912       0.55807921 </v>
    <v>       0.49228597       0.76020640       0.55707102 </v>
    <v>       0.23875134       0.51351553       0.55898851 </v>
    <v>       0.25326079       0.98697589       0.55688482 </v>
    <v>       0.76991326       0.98066552       0.56317612 </v>
    <v>       0.00536604       0.25028445       0.65097896 </v>
    <v>       0.01275618       0.76384981       0.65194741 </v>
    <v>       0.49368700       0.24421609       0.65084398 </v>
    <v>       0.49825739       0.75642625       0.65071810 </v>
    <v>       0.24917166       0.49933385       0.65007253 </v>
    <v>       0.25307325       0.99951341       0.64927268 </v>
    <v>       0.74918322       0.51811030       0.65088739 </v>
    <v>       0.75235425       0.99953110       0.65010677 </v>
    <v>       0.49998898       0.24999498       0.74327702 </v>
    <v>       0.49998903       0.74999496       0.74327702 </v>
    <v>       0.99998898       0.24999498       0.74327702 </v>
    <v>       0.99998903       0.74999496       0.74327702 </v>
    <v>       0.25000050       0.00000100       0.74325596 </v>
    <v>       0.25000052       0.50000100       0.74325596 </v>
    <v>       0.75000050       0.00000100       0.74325596 </v>
    <v>       0.75000049       0.50000100       0.74325596 </v>
    <v>       0.70906879       0.38958147       0.49764342 </v>
    <v>       0.65271839       0.36284677       0.51073112 </v>
    <v>       0.69308642       0.44810223       0.48354807 </v>
    <v>       0.58235413       0.39427424       0.50983128 </v>
    <v>       0.62286175       0.47887326       0.48269319 </v>
    <v>       0.56696449       0.45285968       0.49593574 </v>
    <v>       0.75906673       0.47780126       0.53594356 </v>
    <v>       0.68832611       0.58162551       0.55184316 </v>
    <v>       0.78152578       0.51797931       0.57368127 </v>
    <v>       0.82324378       0.59450704       0.54189977 </v>
    <v>       0.83186734       0.43880176       0.53201266 </v>
    <v>       0.82305434       0.36209277       0.52193423 </v>
    <v>       0.65361403       0.59664224       0.53036334 </v>
    <v>       0.73372899       0.45642885       0.58237747 </v>
    <v>       0.86351953       0.65091484       0.55539746 </v>
    <v>       0.78788230       0.36064173       0.49920156 </v>
    <v>       0.05982220       0.22841796       0.56588827 </v>
    <v>       0.05363274       0.71183109       0.56981368 </v>
    <v>       0.54204759       0.21530004       0.56410599 </v>
    <v>       0.49668950       0.70833699       0.57156024 </v>
    <v>       0.43303592       0.28308362       0.56614845 </v>
    <v>       0.46975022       0.82789279       0.56065584 </v>
    <v>       0.93352091       0.25572689       0.56570879 </v>
    <v>       0.97813153       0.81593596       0.56907354 </v>
    <v>       0.23118457       0.44904758       0.56780858 </v>
    <v>       0.18382322       0.98415939       0.56316189 </v>
    <v>       0.70150121       0.96831575       0.56844713 </v>
    <v>       0.30438077       0.02503554       0.56642945 </v>
    <v>       0.28121775       0.56626555       0.56660466 </v>
    <v>       0.80966603       0.03570131       0.57078201 </v>
    <v>       0.05677870       0.20157276       0.65645912 </v>
    <v>       0.05179889       0.71194202       0.66179735 </v>
    <v>       0.54514530       0.20187860       0.65961045 </v>
    <v>       0.53742978       0.71502440       0.66389860 </v>
    <v>       0.20690831       0.44769390       0.65803103 </v>
    <v>       0.20816318       0.95617682       0.65984707 </v>
    <v>       0.70507188       0.47450842       0.66165309 </v>
    <v>       0.70202629       0.95511785       0.65788622 </v>
    <v>       0.45536937       0.29504048       0.66064727 </v>
    <v>       0.44662865       0.80304630       0.65628782 </v>
    <v>       0.96167923       0.28557356       0.66373120 </v>
    <v>       0.95452901       0.79765998       0.65962449 </v>
    <v>       0.29870027       0.04724457       0.65765083 </v>
    <v>       0.29289467       0.54482277       0.66090233 </v>
    <v>       0.79429486       0.04382733       0.66119841 </v>
    <v>       0.81735151       0.53390288       0.65545727 </v>
    <v>       0.04586250       0.20411950       0.75272599 </v>
    <v>       0.04586250       0.70411946       0.75272599 </v>
    <v>       0.54586251       0.20411950       0.75272599 </v>
    <v>       0.54586250       0.70411946       0.75272599 </v>
    <v>       0.20411900       0.45410100       0.75270499 </v>
    <v>       0.20411899       0.95410095       0.75270499 </v>
    <v>       0.70411898       0.45410100       0.75270499 </v>
    <v>       0.70411896       0.95410095       0.75270499 </v>
    <v>       0.45414002       0.29588849       0.75272697 </v>
    <v>       0.45414001       0.79588852       0.75272697 </v>
    <v>       0.95414002       0.29588849       0.75272697 </v>
    <v>       0.95414006       0.79588852       0.75272697 </v>
    <v>       0.29588249       0.04590050       0.75270499 </v>
    <v>       0.29588248       0.54590053       0.75270499 </v>
    <v>       0.79588244       0.04590050       0.75270499 </v>
    <v>       0.79588248       0.54590053       0.75270499 </v>
    <v>       0.76252344       0.54383508       0.55126852 </v>
    <v>       0.49809903       0.01924774       0.55137762 </v>
    <v>       0.48215259       0.51662563       0.55568316 </v>
    <v>       0.99278586       0.00236601       0.55259539 </v>
    <v>       0.03418839       0.50350175       0.55369485 </v>
    <v>       0.24838893       0.24427256       0.55127634 </v>
    <v>       0.25643867       0.75914982       0.55229125 </v>
    <v>       0.74484409       0.21408515       0.55800999 </v>
    <v>       0.71041635       0.78904287       0.54743829 </v>
    <v>       0.00642419       0.99963373       0.65484448 </v>
    <v>       0.01210089       0.49013955       0.65518665 </v>
    <v>       0.49843152       0.00542513       0.65439963 </v>
    <v>       0.50792292       0.49155812       0.65555397 </v>
    <v>       0.25214806       0.24697865       0.65498953 </v>
    <v>       0.24719644       0.75593032       0.65479253 </v>
    <v>       0.74189970       0.25439203       0.65596677 </v>
    <v>       0.74985982       0.75515556       0.65282686 </v>
    <v>       0.14258469       0.10814291       0.60727973 </v>
    <v>       0.14383850       0.61158383       0.61151483 </v>
    <v>       0.64608572       0.10607802       0.61055712 </v>
    <v>       0.61995421       0.63082658       0.61533407 </v>
    <v>       0.35567491       0.39406381       0.61078275 </v>
    <v>       0.36841220       0.88679634       0.60886684 </v>
    <v>       0.88360443       0.37079584       0.61375807 </v>
    <v>       0.86185154       0.88559905       0.61061609 </v>
    <v>       0.11210806       0.35464101       0.60946150 </v>
    <v>       0.12258656       0.87634366       0.60893234 </v>
    <v>       0.58657681       0.34284700       0.60606244 </v>
    <v>       0.61082139       0.86356783       0.61082603 </v>
    <v>       0.38734137       0.13370279       0.60857808 </v>
    <v>       0.38214164       0.63208591       0.61298332 </v>
    <v>       0.88657330       0.14139737       0.61316714 </v>
    <v>       0.91463677       0.65198637       0.61726067 </v>
    <v>       0.00000000       0.00000000       0.75492797 </v>
    <v>       0.00000000       0.50000000       0.75492797 </v>
    <v>       0.50000000       0.00000000       0.75492797 </v>
    <v>       0.49999999       0.50000000       0.75492797 </v>
    <v>       0.25000050       0.25000000       0.75493902 </v>
    <v>       0.25000051       0.74999997       0.75493902 </v>
    <v>       0.75000047       0.25000000       0.75493902 </v>
    <v>       0.75000046       0.74999997       0.75493902 </v>
    <v>       0.13579050       0.11421000       0.70478299 </v>
    <v>       0.13579050       0.61420998       0.70478299 </v>
    <v>       0.63579045       0.11421000       0.70478299 </v>
    <v>       0.63579049       0.61420998       0.70478299 </v>
    <v>       0.36420952       0.38578999       0.70478299 </v>
    <v>       0.36420950       0.88578996       0.70478299 </v>
    <v>       0.86420954       0.38578999       0.70478299 </v>
    <v>       0.86420953       0.88578996       0.70478299 </v>
    <v>       0.11421799       0.36421899       0.70478098 </v>
    <v>       0.11421799       0.86421899       0.70478098 </v>
    <v>       0.61421800       0.36421899       0.70478098 </v>
    <v>       0.61421799       0.86421899       0.70478098 </v>
    <v>       0.38578201       0.13578149       0.70478202 </v>
    <v>       0.38578200       0.63578149       0.70478202 </v>
    <v>       0.88578199       0.13578149       0.70478202 </v>
    <v>       0.88578203       0.63578149       0.70478202 </v>
    <v>       0.13466700       0.11533200       0.80125603 </v>
    <v>       0.13466699       0.61533199       0.80125603 </v>
    <v>       0.63466699       0.11533200       0.80125603 </v>
    <v>       0.63466698       0.61533199       0.80125603 </v>
    <v>       0.36533300       0.38466799       0.80125603 </v>
    <v>       0.36533299       0.88466796       0.80125603 </v>
    <v>       0.86533295       0.38466799       0.80125603 </v>
    <v>       0.86533294       0.88466796       0.80125603 </v>
    <v>       0.11532850       0.36533700       0.80126500 </v>
    <v>       0.11532850       0.86533698       0.80126500 </v>
    <v>       0.61532850       0.36533700       0.80126500 </v>
    <v>       0.61532849       0.86533698       0.80126500 </v>
    <v>       0.38467151       0.13466300       0.80126500 </v>
    <v>       0.38467150       0.63466297       0.80126500 </v>
    <v>       0.88467149       0.13466300       0.80126500 </v>
    <v>       0.88467153       0.63466297       0.80126500 </v>
    <v>       0.99286628       0.00530259       0.60521944 </v>
    <v>       0.00719061       0.50543885       0.60427846 </v>
    <v>       0.50300460       0.00881603       0.60334584 </v>
    <v>       0.49883625       0.50232130       0.60536742 </v>
    <v>       0.25018682       0.25382094       0.60420300 </v>
    <v>       0.24752364       0.75517436       0.60357281 </v>
    <v>       0.74420398       0.25822493       0.60677566 </v>
    <v>       0.74115881       0.75711853       0.60252054 </v>
    <v>       0.00000050       0.00000050       0.70482896 </v>
    <v>       0.00000050       0.50000048       0.70482896 </v>
    <v>       0.50000048       0.00000050       0.70482896 </v>
    <v>       0.50000046       0.50000048       0.70482896 </v>
    <v>       0.24999999       0.24999947       0.70482499 </v>
    <v>       0.25000001       0.74999950       0.70482499 </v>
    <v>       0.74999999       0.24999947       0.70482499 </v>
    <v>       0.74999998       0.74999950       0.70482499 </v>
    <v>       0.00000000       0.00000000       0.80731797 </v>
    <v>       0.00000000       0.50000000       0.80731797 </v>
    <v>       0.50000000       0.00000000       0.80731797 </v>
    <v>       0.49999999       0.50000000       0.80731797 </v>
    <v>       0.24999999       0.25000000       0.80731797 </v>
    <v>       0.25000001       0.74999997       0.80731797 </v>
    <v>       0.74999999       0.25000000       0.80731797 </v>
    <v>       0.74999998       0.74999997       0.80731797 </v>
   </varray>
  </structure>
  <varray name="primitive_index" >
   <v type="int" >        1 </v>
   <v type="int" >        2 </v>
   <v type="int" >        3 </v>
   <v type="int" >        4 </v>
   <v type="int" >        5 </v>
   <v type="int" >        6 </v>
   <v type="int" >        7 </v>
   <v type="int" >        8 </v>
   <v type="int" >        9 </v>
   <v type="int" >       10 </v>
   <v type="int" >       11 </v>
   <v type="int" >       12 </v>
   <v type="int" >       13 </v>
   <v type="int" >       14 </v>
   <v type="int" >       15 </v>
   <v type="int" >       16 </v>
   <v type="int" >       17 </v>
   <v type="int" >       18 </v>
   <v type="int" >       19 </v>
   <v type="int" >       20 </v>
   <v type="int" >       21 </v>
   <v type="int" >       22 </v>
   <v type="int" >       23 </v>
   <v type="int" >       24 </v>
   <v type="int" >       25 </v>
   <v type="int" >       26 </v>
   <v type="int" >       27 </v>
   <v type="int" >       28 </v>
   <v type="int" >       29 </v>
   <v type="int" >       30 </v>
   <v type="int" >       31 </v>
   <v type="int" >       32 </v>
   <v type="int" >       33 </v>
   <v type="int" >       34 </v>
   <v type="int" >       35 </v>
   <v type="int" >       36 </v>
   <v type="int" >       37 </v>
   <v type="int" >       38 </v>
   <v type="int" >       39 </v>
   <v type="int" >       40 </v>
   <v type="int" >       41 </v>
   <v type="int" >       42 </v>
   <v type="int" >       43 </v>
   <v type="int" >       44 </v>
   <v type="int" >       45 </v>
   <v type="int" >       46 </v>
   <v type="int" >       47 </v>
   <v type="int" >       48 </v>
   <v type="int" >       49 </v>
   <v type="int" >       50 </v>
   <v type="int" >       51 </v>
   <v type="int" >       52 </v>
   <v type="int" >       53 </v>
   <v type="int" >       54 </v>
   <v type="int" >       55 </v>
   <v type="int" >       56 </v>
   <v type="int" >       57 </v>
   <v type="int" >       58 </v>
   <v type="int" >       59 </v>
   <v type="int" >       60 </v>
   <v type="int" >       61 </v>
   <v type="int" >       62 </v>
   <v type="int" >       63 </v>
   <v type="int" >       64 </v>
   <v type="int" >       65 </v>
   <v type="int" >       66 </v>
   <v type="int" >       67 </v>
   <v type="int" >       68 </v>
   <v type="int" >       69 </v>
   <v type="int" >       70 </v>
   <v type="int" >       71 </v>
   <v type="int" >       72 </v>
   <v type="int" >       73 </v>
   <v type="int" >       74 </v>
   <v type="int" >       75 </v>
   <v type="int" >       76 </v>
   <v type="int" >       77 </v>
   <v type="int" >       78 </v>
   <v type="int" >       79 </v>
   <v type="int" >       80 </v>
   <v type="int" >       81 </v>
   <v type="int" >       82 </v>
   <v type="int" >       83 </v>
   <v type="int" >       84 </v>
   <v type="int" >       85 </v>
   <v type="int" >       86 </v>
   <v type="int" >       87 </v>
   <v type="int" >       88 </v>
   <v type="int" >       89 </v>
   <v type="int" >       90 </v>
   <v type="int" >       91 </v>
   <v type="int" >       92 </v>
   <v type="int" >       93 </v>
   <v type="int" >       94 </v>
   <v type="int" >       95 </v>
   <v type="int" >       96 </v>
   <v type="int" >       97 </v>
   <v type="int" >       98 </v>
   <v type="int" >       99 </v>
   <v type="int" >      100 </v>
   <v type="int" >      101 </v>
   <v type="int" >      102 </v>
   <v type="int" >      103 </v>
   <v type="int" >      104 </v>
   <v type="int" >      105 </v>
   <v type="int" >      106 </v>
   <v type="int" >      107 </v>
   <v type="int" >      108 </v>
   <v type="int" >      109 </v>
   <v type="int" >      110 </v>
   <v type="int" >      111 </v>
   <v type="int" >      112 </v>
   <v type="int" >      113 </v>
   <v type="int" >      114 </v>
   <v type="int" >      115 </v>
   <v type="int" >      116 </v>
   <v type="int" >      117 </v>
   <v type="int" >      118 </v>
   <v type="int" >      119 </v>
   <v type="int" >      120 </v>
   <v type="int" >      121 </v>
   <v type="int" >      122 </v>
   <v type="int" >      123 </v>
   <v type="int" >      124 </v>
   <v type="int" >      125 </v>
   <v type="int" >      126 </v>
   <v type="int" >      127 </v>
   <v type="int" >      128 </v>
   <v type="int" >      129 </v>
   <v type="int" >      130 </v>
   <v type="int" >      131 </v>
   <v type="int" >      132 </v>
   <v type="int" >      133 </v>
   <v type="int" >      134 </v>
   <v type="int" >      135 </v>
   <v type="int" >      136 </v>
   <v type="int" >      137 </v>
   <v type="int" >      138 </v>
   <v type="int" >      139 </v>
   <v type="int" >      140 </v>
   <v type="int" >      141 </v>
   <v type="int" >      142 </v>
   <v type="int" >      143 </v>
   <v type="int" >      144 </v>
   <v type="int" >      145 </v>
   <v type="int" >      146 </v>
   <v type="int" >      147 </v>
   <v type="int" >      148 </v>
   <v type="int" >      149 </v>
   <v type="int" >      150 </v>
   <v type="int" >      151 </v>
   <v type="int" >      152 </v>
   <v type="int" >      153 </v>
   <v type="int" >      154 </v>
   <v type="int" >      155 </v>
   <v type="int" >      156 </v>
   <v type="int" >      157 </v>
   <v type="int" >      158 </v>
   <v type="int" >      159 </v>
   <v type="int" >      160 </v>
   <v type="int" >      161 </v>
   <v type="int" >      162 </v>
   <v type="int" >      163 </v>
   <v type="int" >      164 </v>
   <v type="int" >      165 </v>
   <v type="int" >      166 </v>
   <v type="int" >      167 </v>
   <v type="int" >      168 </v>
   <v type="int" >      169 </v>
   <v type="int" >      170 </v>
   <v type="int" >      171 </v>
   <v type="int" >      172 </v>
   <v type="int" >      173 </v>
   <v type="int" >      174 </v>
   <v type="int" >      175 </v>
   <v type="int" >      176 </v>
   <v type="int" >      177 </v>
   <v type="int" >      178 </v>
   <v type="int" >      179 </v>
   <v type="int" >      180 </v>
   <v type="int" >      181 </v>
   <v type="int" >      182 </v>
   <v type="int" >      183 </v>
   <v type="int" >      184 </v>
   <v type="int" >      185 </v>
   <v type="int" >      186 </v>
   <v type="int" >      187 </v>
   <v type="int" >      188 </v>
   <v type="int" >      189 </v>
   <v type="int" >      190 </v>
   <v type="int" >      191 </v>
   <v type="int" >      192 </v>
   <v type="int" >      193 </v>
   <v type="int" >      194 </v>
   <v type="int" >      195 </v>
   <v type="int" >      196 </v>
   <v type="int" >      197 </v>
   <v type="int" >      198 </v>
   <v type="int" >      199 </v>
   <v type="int" >      200 </v>
   <v type="int" >      201 </v>
   <v type="int" >      202 </v>
   <v type="int" >      203 </v>
   <v type="int" >      204 </v>
   <v type="int" >      205 </v>
   <v type="int" >      206 </v>
   <v type="int" >      207 </v>
   <v type="int" >      208 </v>
   <v type="int" >      209 </v>
   <v type="int" >      210 </v>
   <v type="int" >      211 </v>
   <v type="int" >      212 </v>
   <v type="int" >      213 </v>
   <v type="int" >      214 </v>
   <v type="int" >      215 </v>
   <v type="int" >      216 </v>
   <v type="int" >      217 </v>
   <v type="int" >      218 </v>
   <v type="int" >      219 </v>
   <v type="int" >      220 </v>
   <v type="int" >      221 </v>
   <v type="int" >      222 </v>
   <v type="int" >      223 </v>
   <v type="int" >      224 </v>
   <v type="int" >      225 </v>
   <v type="int" >      226 </v>
   <v type="int" >      227 </v>
   <v type="int" >      228 </v>
   <v type="int" >      229 </v>
   <v type="int" >      230 </v>
   <v type="int" >      231 </v>
   <v type="int" >      232 </v>
   <v type="int" >      233 </v>
   <v type="int" >      234 </v>
   <v type="int" >      235 </v>
   <v type="int" >      236 </v>
   <v type="int" >      237 </v>
   <v type="int" >      238 </v>
   <v type="int" >      239 </v>
   <v type="int" >      240 </v>
   <v type="int" >      241 </v>
   <v type="int" >      242 </v>
   <v type="int" >      243 </v>
   <v type="int" >      244 </v>
   <v type="int" >      245 </v>
   <v type="int" >      246 </v>
   <v type="int" >      247 </v>
   <v type="int" >      248 </v>
   <v type="int" >      249 </v>
   <v type="int" >      250 </v>
   <v type="int" >      251 </v>
   <v type="int" >      252 </v>
   <v type="int" >      253 </v>
   <v type="int" >      254 </v>
   <v type="int" >      255 </v>
   <v type="int" >      256 </v>
   <v type="int" >      257 </v>
   <v type="int" >      258 </v>
   <v type="int" >      259 </v>
   <v type="int" >      260 </v>
   <v type="int" >      261 </v>
   <v type="int" >      262 </v>
   <v type="int" >      263 </v>
   <v type="int" >      264 </v>
   <v type="int" >      265 </v>
   <v type="int" >      266 </v>
   <v type="int" >      267 </v>
   <v type="int" >      268 </v>
   <v type="int" >      269 </v>
   <v type="int" >      270 </v>
   <v type="int" >      271 </v>
   <v type="int" >      272 </v>
   <v type="int" >      273 </v>
   <v type="int" >      274 </v>
   <v type="int" >      275 </v>
   <v type="int" >      276 </v>
   <v type="int" >      277 </v>
   <v type="int" >      278 </v>
   <v type="int" >      279 </v>
   <v type="int" >      280 </v>
   <v type="int" >      281 </v>
   <v type="int" >      282 </v>
   <v type="int" >      283 </v>
   <v type="int" >      284 </v>
   <v type="int" >      285 </v>
   <v type="int" >      286 </v>
   <v type="int" >      287 </v>
   <v type="int" >      288 </v>
   <v type="int" >      289 </v>
   <v type="int" >      290 </v>
   <v type="int" >      291 </v>
   <v type="int" >      292 </v>
   <v type="int" >      293 </v>
   <v type="int" >      294 </v>
   <v type="int" >      295 </v>
   <v type="int" >      296 </v>
   <v type="int" >      297 </v>
   <v type="int" >      298 </v>
   <v type="int" >      299 </v>
   <v type="int" >      300 </v>
   <v type="int" >      301 </v>
   <v type="int" >      302 </v>
   <v type="int" >      303 </v>
   <v type="int" >      304 </v>
   <v type="int" >      305 </v>
   <v type="int" >      306 </v>
   <v type="int" >      307 </v>
   <v type="int" >      308 </v>
   <v type="int" >      309 </v>
   <v type="int" >      310 </v>
   <v type="int" >      311 </v>
   <v type="int" >      312 </v>
   <v type="int" >      313 </v>
   <v type="int" >      314 </v>
   <v type="int" >      315 </v>
   <v type="int" >      316 </v>
   <v type="int" >      317 </v>
   <v type="int" >      318 </v>
   <v type="int" >      319 </v>
   <v type="int" >      320 </v>
   <v type="int" >      321 </v>
   <v type="int" >      322 </v>
   <v type="int" >      323 </v>
   <v type="int" >      324 </v>
   <v type="int" >      325 </v>
  </varray>
 </primitive_cell>
 <kpoints>
  <generation param="Gamma">
   <v type="int" name="divisions">       3        3        1 </v>
   <v name="usershift">      0.00000000       0.00000000       0.00000000 </v>
   <v name="genvec1">      0.33333333       0.00000000       0.00000000 </v>
   <v name="genvec2">      0.00000000       0.33333333       0.00000000 </v>
   <v name="genvec3">      0.00000000       0.00000000       1.00000000 </v>
   <v name="shift">      0.00000000       0.00000000       0.00000000 </v>
  </generation>
  <varray name="kpointlist" >
   <v>       0.00000000       0.00000000       0.00000000 </v>
   <v>       0.33333333       0.00000000       0.00000000 </v>
   <v>       0.00000000       0.33333333       0.00000000 </v>
   <v>       0.33333333       0.33333333       0.00000000 </v>
   <v>      -0.33333333       0.33333333       0.00000000 </v>
  </varray>
  <varray name="weights" >
   <v>       0.11111111 </v>
   <v>       0.22222222 </v>
   <v>       0.22222222 </v>
   <v>       0.22222222 </v>
   <v>       0.22222222 </v>
  </varray>
 </kpoints>
 <parameters>
  <separator name="general" >
   <i type="string" name="SYSTEM">PSC</i>
   <i type="logical" name="LCOMPAT"> F  </i>
  </separator>
  <separator name="electronic" >
   <i type="string" name="PREC">normal</i>
   <i name="ENMAX">    500.00000000</i>
   <i name="ENAUG">    644.87300000</i>
   <i name="EDIFF">      0.00010000</i>
   <i type="int" name="IALGO">    38</i>
   <i type="int" name="IWAVPR">    10</i>
   <i type="int" name="NBANDS">   732</i>
   <i type="int" name="NBANDSLOW">    -1</i>
   <i type="int" name="NBANDSHIGH">    -1</i>
   <i name="NELECT">   1134.00000000</i>
   <i type="int" name="TURBO">     0</i>
   <i type="int" name="IRESTART">     0</i>
   <i type="int" name="NREBOOT">     0</i>
   <i type="int" name="NMIN">     0</i>
   <i name="EREF">      0.00000000</i>
   <separator name="electronic smearing" >
    <i type="int" name="ISMEAR">     0</i>
    <i name="SIGMA">      0.05000000</i>
    <i name="KSPACING">      0.50000000</i>
    <i type="logical" name="KGAMMA"> T  </i>
    <i type="logical" name="KBLOWUP"> T  </i>
   </separator>
   <separator name="electronic projectors" >
    <i type="logical" name="LREAL"> T  </i>
    <v name="ROPT">     -0.00050000     -0.00050000     -0.00050000     -0.00050000     -0.00050000</v>
    <i type="int" name="LMAXPAW">  -100</i>
    <i type="int" name="LMAXMIX">     2</i>
    <i type="logical" name="NLSPLINE"> F  </i>
   </separator>
   <separator name="electronic startup" >
    <i type="int" name="ISTART">     0</i>
    <i type="int" name="ICHARG">     1</i>
    <i type="int" name="INIWAV">     1</i>
   </separator>
   <separator name="electronic spin" >
    <i type="int" name="ISPIN">     1</i>
    <i type="logical" name="LNONCOLLINEAR"> F  </i>
    <v name="MAGMOM">      1.00000000      1.00000000      1.00000000      1.00000000      1.00000000      1.00000000      1.00000000      1.00000000      1.00000000      1.00000000      1.00000000      1.00000000      1.00000000      1.00000000      1.00000000      1.00000000      1.00000000      1.00000000      1.00000000      1.00000000
      1.00000000      1.00000000      1.00000000      1.00000000      1.00000000      1.00000000      1.00000000      1.00000000      1.00000000      1.00000000      1.00000000      1.00000000      1.00000000      1.00000000      1.00000000      1.00000000      1.00000000      1.00000000      1.00000000      1.00000000
      1.00000000      1.00000000      1.00000000      1.00000000      1.00000000      1.00000000      1.00000000      1.00000000      1.00000000      1.00000000      1.00000000      1.00000000      1.00000000      1.00000000      1.00000000      1.00000000      1.00000000      1.00000000      1.00000000      1.00000000
      1.00000000      1.00000000      1.00000000      1.00000000      1.00000000      1.00000000      1.00000000      1.00000000      1.00000000      1.00000000      1.00000000      1.00000000      1.00000000      1.00000000      1.00000000      1.00000000      1.00000000      1.00000000      1.00000000      1.00000000
      1.00000000      1.00000000      1.00000000      1.00000000      1.00000000      1.00000000      1.00000000      1.00000000      1.00000000      1.00000000      1.00000000      1.00000000      1.00000000      1.00000000      1.00000000      1.00000000      1.00000000      1.00000000      1.00000000      1.00000000
      1.00000000      1.00000000      1.00000000      1.00000000      1.00000000      1.00000000      1.00000000      1.00000000      1.00000000      1.00000000      1.00000000      1.00000000      1.00000000      1.00000000      1.00000000      1.00000000      1.00000000      1.00000000      1.00000000      1.00000000
      1.00000000      1.00000000      1.00000000      1.00000000      1.00000000      1.00000000      1.00000000      1.00000000      1.00000000      1.00000000      1.00000000      1.00000000      1.00000000      1.00000000      1.00000000      1.00000000      1.00000000      1.00000000      1.00000000      1.00000000
      1.00000000      1.00000000      1.00000000      1.00000000      1.00000000      1.00000000      1.00000000      1.00000000      1.00000000      1.00000000      1.00000000      1.00000000      1.00000000      1.00000000      1.00000000      1.00000000      1.00000000      1.00000000      1.00000000      1.00000000
      1.00000000      1.00000000      1.00000000      1.00000000      1.00000000      1.00000000      1.00000000      1.00000000      1.00000000      1.00000000      1.00000000      1.00000000      1.00000000      1.00000000      1.00000000      1.00000000      1.00000000      1.00000000      1.00000000      1.00000000
      1.00000000      1.00000000      1.00000000      1.00000000      1.00000000      1.00000000      1.00000000      1.00000000      1.00000000      1.00000000      1.00000000      1.00000000      1.00000000      1.00000000      1.00000000      1.00000000      1.00000000      1.00000000      1.00000000      1.00000000
      1.00000000      1.00000000      1.00000000      1.00000000      1.00000000      1.00000000      1.00000000      1.00000000      1.00000000      1.00000000      1.00000000      1.00000000      1.00000000      1.00000000      1.00000000      1.00000000      1.00000000      1.00000000      1.00000000      1.00000000
      1.00000000      1.00000000      1.00000000      1.00000000      1.00000000      1.00000000      1.00000000      1.00000000      1.00000000      1.00000000      1.00000000      1.00000000      1.00000000      1.00000000      1.00000000      1.00000000      1.00000000      1.00000000      1.00000000      1.00000000
      1.00000000      1.00000000      1.00000000      1.00000000      1.00000000      1.00000000      1.00000000      1.00000000      1.00000000      1.00000000      1.00000000      1.00000000      1.00000000      1.00000000      1.00000000      1.00000000      1.00000000      1.00000000      1.00000000      1.00000000
      1.00000000      1.00000000      1.00000000      1.00000000      1.00000000      1.00000000      1.00000000      1.00000000      1.00000000      1.00000000      1.00000000      1.00000000      1.00000000      1.00000000      1.00000000      1.00000000      1.00000000      1.00000000      1.00000000      1.00000000
      1.00000000      1.00000000      1.00000000      1.00000000      1.00000000      1.00000000      1.00000000      1.00000000      1.00000000      1.00000000      1.00000000      1.00000000      1.00000000      1.00000000      1.00000000      1.00000000      1.00000000      1.00000000      1.00000000      1.00000000
      1.00000000      1.00000000      1.00000000      1.00000000      1.00000000      1.00000000      1.00000000      1.00000000      1.00000000      1.00000000      1.00000000      1.00000000      1.00000000      1.00000000      1.00000000      1.00000000      1.00000000      1.00000000      1.00000000      1.00000000
      1.00000000      1.00000000      1.00000000      1.00000000      1.00000000</v>
    <i name="NUPDOWN">     -1.00000000</i>
    <i type="logical" name="LSORBIT"> F  </i>
    <v name="SAXIS">      0.00000000      0.00000000      1.00000000</v>
    <i type="logical" name="LSPIRAL"> F  </i>
    <v name="QSPIRAL">      0.00000000      0.00000000      0.00000000</v>
    <i type="logical" name="LZEROZ"> F  </i>
   </separator>
   <separator name="electronic exchange-correlation" >
    <i type="logical" name="LASPH"> F  </i>
    <i type="logical" name="LMETAGGA"> F  </i>
   </separator>
   <separator name="electronic convergence" >
    <i type="int" name="NELM">   600</i>
    <i type="int" name="NELMDL">     0</i>
    <i type="int" name="NELMIN">     2</i>
    <i name="ENINI">    500.00000000</i>
    <separator name="electronic convergence detail" >
     <i type="logical" name="LDIAG"> T  </i>
     <i type="logical" name="LSUBROT"> F  </i>
     <i name="WEIMIN">      0.00000000</i>
     <i name="EBREAK">      0.00000003</i>
     <i name="DEPER">      0.30000000</i>
     <i type="int" name="NRMM">     4</i>
     <i name="TIME">      0.40000000</i>
    </separator>
   </separator>
   <separator name="electronic mixer" >
    <i name="AMIX">      0.40000000</i>
    <i name="BMIX">      0.01000000</i>
    <i name="AMIN">      0.01000000</i>
    <i name="AMIX_MAG">      1.60000000</i>
    <i name="BMIX_MAG">      0.01000000</i>
    <separator name="electronic mixer details" >
     <i type="int" name="IMIX">     4</i>
     <i type="logical" name="MIXFIRST"> F  </i>
     <i type="int" name="MAXMIX">   -45</i>
     <i name="WC">    100.00000000</i>
     <i type="int" name="INIMIX">     1</i>
     <i type="int" name="MIXPRE">     1</i>
     <i type="int" name="MREMOVE">     5</i>
    </separator>
   </separator>
   <separator name="electronic dipolcorrection" >
    <i type="logical" name="LDIPOL"> T  </i>
    <i type="logical" name="LMONO"> F  </i>
    <i type="int" name="IDIPOL">     3</i>
    <i name="EPSILON">      1.00000000</i>
    <v name="DIPOL">   -100.00000000   -100.00000000   -100.00000000</v>
    <i name="EFIELD">      0.00000000</i>
   </separator>
  </separator>
  <separator name="grids" >
   <i type="int" name="NGX">   100</i>
   <i type="int" name="NGY">   100</i>
   <i type="int" name="NGZ">   350</i>
   <i type="int" name="NGXF">   200</i>
   <i type="int" name="NGYF">   200</i>
   <i type="int" name="NGZF">   700</i>
   <i type="logical" name="ADDGRID"> F  </i>
  </separator>
  <separator name="ionic" >
   <i type="int" name="NSW">     0</i>
   <i type="int" name="IBRION">    -1</i>
   <i type="int" name="MDALGO">     0</i>
   <i type="int" name="ISIF">     2</i>
   <i name="PSTRESS">      0.00000000</i>
   <i name="EDIFFG">      0.00100000</i>
   <i type="int" name="NFREE">     0</i>
   <i name="POTIM">      0.50000000</i>
   <i name="SMASS">     -3.00000000</i>
   <i name="SCALEE">      1.00000000</i>
  </separator>
  <separator name="ionic md" >
   <i name="TEBEG">      0.00010000</i>
   <i name="TEEND">      0.00010000</i>
   <i type="int" name="NBLOCK">     1</i>
   <i type="int" name="KBLOCK">     1</i>
   <i type="int" name="NPACO">   256</i>
   <i name="APACO">     16.00000000</i>
  </separator>
  <separator name="symmetry" >
   <i type="int" name="ISYM">     0</i>
   <i name="SYMPREC">      0.00001000</i>
  </separator>
  <separator name="dos" >
   <i type="int" name="LORBIT">     0</i>
   <v name="RWIGS">     -1.00000000     -1.00000000     -1.00000000     -1.00000000     -1.00000000</v>
   <i type="int" name="NEDOS">   301</i>
   <i name="EMIN">     10.00000000</i>
   <i name="EMAX">    -10.00000000</i>
   <i name="EFERMI">      0.00000000</i>
  </separator>
  <separator name="writing" >
   <i type="int" name="NWRITE">     2</i>
   <i type="logical" name="LWAVE"> F  </i>
   <i type="logical" name="LDOWNSAMPLE"> F  </i>
   <i type="logical" name="LCHARG"> T  </i>
   <i type="logical" name="LPARD"> F  </i>
   <i type="logical" name="LVTOT"> T  </i>
   <i type="logical" name="LVHAR"> F  </i>
   <i type="logical" name="LELF"> F  </i>
   <i type="logical" name="LOPTICS"> F  </i>
   <v name="STM">      0.00000000      0.00000000      0.00000000      0.00000000      0.00000000      0.00000000      0.00000000</v>
  </separator>
  <separator name="performance" >
   <i type="int" name="NPAR">     4</i>
   <i type="int" name="NSIM">     4</i>
   <i type="int" name="NBLK">    -1</i>
   <i type="logical" name="LPLANE"> T  </i>
   <i type="logical" name="LSCALAPACK"> T  </i>
   <i type="logical" name="LSCAAWARE"> F  </i>
   <i type="logical" name="LSCALU"> F  </i>
   <i type="logical" name="LASYNC"> F  </i>
   <i type="logical" name="LORBITALREAL"> F  </i>
  </separator>
  <separator name="miscellaneous" >
   <i type="int" name="IDIOT">     3</i>
   <i type="int" name="PHON_NSTRUCT">    -1</i>
   <i type="logical" name="LMUSIC"> F  </i>
   <v name="POMASS">      1.00000000     12.01100000     14.00100000    126.90400000    207.20000000</v>
   <v name="DARWINR">      0.00000000      0.00000000      0.00000000      0.00000000      0.00000000</v>
   <v name="DARWINV">      1.00000000      1.00000000      1.00000000      1.00000000      1.00000000</v>
   <i type="logical" name="LCORR"> T  </i>
  </separator>
  <i type="logical" name="GGA_COMPAT"> F  </i>
  <i type="logical" name="LBERRY"> F  </i>
  <i type="int" name="ICORELEVEL">     0</i>
  <i type="logical" name="LDAU"> F  </i>
  <i type="int" name="I_CONSTRAINED_M">     0</i>
  <separator name="electronic exchange-correlation" >
   <i type="string" name="GGA">--</i>
   <i type="int" name="VOSKOWN">     0</i>
   <i type="logical" name="LHFCALC"> F  </i>
   <i type="string" name="PRECFOCK"></i>
   <i type="logical" name="LSYMGRAD"> F  </i>
   <i type="logical" name="LHFONE"> F  </i>
   <i type="logical" name="LRHFCALC"> F  </i>
   <i type="logical" name="LTHOMAS"> F  </i>
   <i type="logical" name="LMODELHF"> F  </i>
   <i type="logical" name="LFOCKACE"> F  </i>
   <i name="ENCUT4O">     -1.00000000</i>
   <i type="int" name="EXXOEP">     0</i>
   <i type="int" name="FOURORBIT">     0</i>
   <i name="AEXX">      0.00000000</i>
   <i name="HFALPHA">      0.00000000</i>
   <i name="MCALPHA">      0.00000000</i>
   <i name="ALDAX">      1.00000000</i>
   <i name="AGGAX">      1.00000000</i>
   <i name="ALDAC">      1.00000000</i>
   <i name="AGGAC">      1.00000000</i>
   <i type="int" name="NKREDX">     1</i>
   <i type="int" name="NKREDY">     1</i>
   <i type="int" name="NKREDZ">     1</i>
   <i type="logical" name="SHIFTRED"> F  </i>
   <i type="logical" name="ODDONLY"> F  </i>
   <i type="logical" name="EVENONLY"> F  </i>
   <i type="int" name="LMAXFOCK">     0</i>
   <i type="int" name="NMAXFOCKAE">     0</i>
   <i type="logical" name="LFOCKAEDFT"> F  </i>
   <i name="HFSCREEN">      0.00000000</i>
   <i name="HFSCREENC">      0.00000000</i>
   <i type="int" name="NBANDSGWLOW">     0</i>
  </separator>
  <separator name="vdW DFT" >
   <i type="logical" name="LUSE_VDW"> F  </i>
   <i name="Zab_VDW">     -0.84910000</i>
   <i name="PARAM1">      0.12340000</i>
   <i name="PARAM2">      1.00000000</i>
   <i name="PARAM3">      0.00000000</i>
  </separator>
  <separator name="model GW" >
   <i type="int" name="MODEL_GW">     0</i>
   <i name="MODEL_EPS0">     37.63423484</i>
   <i name="MODEL_ALPHA">      1.00000000</i>
  </separator>
  <separator name="linear response parameters" >
   <i type="logical" name="LEPSILON"> F  </i>
   <i type="logical" name="LRPA"> F  </i>
   <i type="logical" name="LNABLA"> F  </i>
   <i type="logical" name="LVEL"> F  </i>
   <i type="int" name="KINTER">     0</i>
   <i name="CSHIFT">      0.10000000</i>
   <i name="OMEGAMAX">     -1.00000000</i>
   <i name="DEG_THRESHOLD">      0.00200000</i>
   <i name="RTIME">     -0.10000000</i>
   <i name="WPLASMAI">      0.00000000</i>
   <v name="DFIELD">      0.00000000      0.00000000      0.00000000</v>
   <v name="WPLASMA">      0.00000000      0.00000000      0.00000000      0.00000000      0.00000000      0.00000000      0.00000000      0.00000000      0.00000000</v>
  </separator>
  <separator name="orbital magnetization" >
   <i type="logical" name="NUCIND"> F  </i>
   <v name="MAGPOS">      0.00000000      0.00000000      0.00000000</v>
   <i type="logical" name="LNICSALL"> T  </i>
   <i type="logical" name="ORBITALMAG"> F  </i>
   <i type="logical" name="LMAGBLOCH"> F  </i>
   <i type="logical" name="LCHIMAG"> F  </i>
   <i type="logical" name="LGAUGE"> T  </i>
   <i type="int" name="MAGATOM">     0</i>
   <v name="MAGDIPOL">      0.00000000      0.00000000      0.00000000</v>
   <v name="AVECCONST">      0.00000000      0.00000000      0.00000000</v>
  </separator>
  <separator name="response functions" >
   <i type="logical" name="LFINITE_TEMPERATURE"> F  </i>
   <i type="logical" name="LADDER"> F  </i>
   <i type="logical" name="LRPAFORCE"> F  </i>
   <i type="logical" name="LFXC"> F  </i>
   <i type="logical" name="LHARTREE"> T  </i>
   <i type="int" name="IBSE">     0</i>
   <v type="int" name="KPOINT">    -1     0     0     0</v>
   <i type="logical" name="LTCTC"> F  </i>
   <i type="logical" name="LTCTE"> F  </i>
   <i type="logical" name="LTETE"> F  </i>
   <i type="logical" name="LTRIPLET"> F  </i>
   <i type="logical" name="LFXCEPS"> F  </i>
   <i type="logical" name="LFXHEG"> F  </i>
   <i type="int" name="NATURALO">     2</i>
   <i type="logical" name="LHOLEGF"> F  </i>
   <i type="logical" name="L2ORDER"> F  </i>
   <i type="logical" name="LDMP1"> F  </i>
   <i type="logical" name="LMP2LT"> F  </i>
   <i type="logical" name="LSMP2LT"> F  </i>
   <i type="logical" name="LGWLF"> F  </i>
   <i name="ENCUTGW">     -2.00000000</i>
   <i name="ENCUTGWSOFT">     -2.00000000</i>
   <i name="ENCUTLF">     -1.00000000</i>
   <i type="logical" name="LESF_SPLINES"> F  </i>
   <i type="int" name="LMAXMP2">    -1</i>
   <i name="SCISSOR">      0.00000000</i>
   <i type="int" name="NOMEGA">     0</i>
   <i type="int" name="NOMEGAR">     0</i>
   <i type="int" name="NBANDSGW">    -1</i>
   <i type="int" name="NBANDSO">    -1</i>
   <i type="int" name="NBANDSV">    -1</i>
   <i type="int" name="NELM">   600</i>
   <i type="int" name="NELMHF">     1</i>
   <i type="int" name="DIM">     3</i>
   <i type="int" name="IESPILON">     4</i>
   <i type="int" name="ANTIRES">     0</i>
   <i name="OMEGAMAX">    -30.00000000</i>
   <i name="OMEGAMIN">    -30.00000000</i>
   <i name="OMEGATL">   -200.00000000</i>
   <i type="int" name="OMEGAGRID">     0</i>
   <i name="CSHIFT">     -0.10000000</i>
   <i type="logical" name="LSELFENERGY"> F  </i>
   <i type="logical" name="LSPECTRAL"> F  </i>
   <i type="logical" name="LSPECTRALGW"> F  </i>
   <i type="logical" name="LSINGLES"> F  </i>
   <i type="logical" name="LFERMIGW"> F  </i>
   <i type="logical" name="ODDONLYGW"> F  </i>
   <i type="logical" name="EVENONLYGW"> F  </i>
   <i type="int" name="NKREDLFX">     1</i>
   <i type="int" name="NKREDLFY">     1</i>
   <i type="int" name="NKREDLFZ">     1</i>
   <i type="int" name="MAXMEM">  2800</i>
   <i type="int" name="TELESCOPE">     0</i>
   <i type="int" name="NTAUPAR">    -1</i>
   <i type="int" name="NOMEGAPAR">    -1</i>
   <i name="DAMP_NEWTON">      0.80000001</i>
   <i name="LAMBDA">      1.00000000</i>
  </separator>
  <separator name="External order field" >
   <i name="OFIELD_KAPPA">      0.00000000</i>
   <v name="OFIELD_K">      0.00000000      0.00000000      0.00000000</v>
   <i name="OFIELD_Q6_NEAR">      0.00000000</i>
   <i name="OFIELD_Q6_FAR">      0.00000000</i>
   <i name="OFIELD_A">      0.00000000</i>
  </separator>
 </parameters>
 <atominfo>
  <atoms>     325 </atoms>
  <types>       5 </types>
  <array name="atoms" >
   <dimension dim="1">ion</dimension>
   <field type="string">element</field>
   <field type="int">atomtype</field>
   <set>
    <rc><c>H </c><c>   1</c></rc>
    <rc><c>H </c><c>   1</c></rc>
    <rc><c>H </c><c>   1</c></rc>
    <rc><c>H </c><c>   1</c></rc>
    <rc><c>H </c><c>   1</c></rc>
    <rc><c>H </c><c>   1</c></rc>
    <rc><c>H </c><c>   1</c></rc>
    <rc><c>H </c><c>   1</c></rc>
    <rc><c>H </c><c>   1</c></rc>
    <rc><c>H </c><c>   1</c></rc>
    <rc><c>H </c><c>   1</c></rc>
    <rc><c>H </c><c>   1</c></rc>
    <rc><c>H </c><c>   1</c></rc>
    <rc><c>H </c><c>   1</c></rc>
    <rc><c>H </c><c>   1</c></rc>
    <rc><c>H </c><c>   1</c></rc>
    <rc><c>H </c><c>   1</c></rc>
    <rc><c>H </c><c>   1</c></rc>
    <rc><c>H </c><c>   1</c></rc>
    <rc><c>H </c><c>   1</c></rc>
    <rc><c>H </c><c>   1</c></rc>
    <rc><c>H </c><c>   1</c></rc>
    <rc><c>H </c><c>   1</c></rc>
    <rc><c>H </c><c>   1</c></rc>
    <rc><c>H </c><c>   1</c></rc>
    <rc><c>H </c><c>   1</c></rc>
    <rc><c>H </c><c>   1</c></rc>
    <rc><c>H </c><c>   1</c></rc>
    <rc><c>H </c><c>   1</c></rc>
    <rc><c>H </c><c>   1</c></rc>
    <rc><c>H </c><c>   1</c></rc>
    <rc><c>H </c><c>   1</c></rc>
    <rc><c>H </c><c>   1</c></rc>
    <rc><c>H </c><c>   1</c></rc>
    <rc><c>H </c><c>   1</c></rc>
    <rc><c>H </c><c>   1</c></rc>
    <rc><c>H </c><c>   1</c></rc>
    <rc><c>H </c><c>   1</c></rc>
    <rc><c>H </c><c>   1</c></rc>
    <rc><c>H </c><c>   1</c></rc>
    <rc><c>H </c><c>   1</c></rc>
    <rc><c>H </c><c>   1</c></rc>
    <rc><c>H </c><c>   1</c></rc>
    <rc><c>H </c><c>   1</c></rc>
    <rc><c>H </c><c>   1</c></rc>
    <rc><c>H </c><c>   1</c></rc>
    <rc><c>H </c><c>   1</c></rc>
    <rc><c>H </c><c>   1</c></rc>
    <rc><c>H </c><c>   1</c></rc>
    <rc><c>H </c><c>   1</c></rc>
    <rc><c>H </c><c>   1</c></rc>
    <rc><c>H </c><c>   1</c></rc>
    <rc><c>H </c><c>   1</c></rc>
    <rc><c>H </c><c>   1</c></rc>
    <rc><c>H </c><c>   1</c></rc>
    <rc><c>H </c><c>   1</c></rc>
    <rc><c>H </c><c>   1</c></rc>
    <rc><c>H </c><c>   1</c></rc>
    <rc><c>H </c><c>   1</c></rc>
    <rc><c>H </c><c>   1</c></rc>
    <rc><c>H </c><c>   1</c></rc>
    <rc><c>H </c><c>   1</c></rc>
    <rc><c>H </c><c>   1</c></rc>
    <rc><c>H </c><c>   1</c></rc>
    <rc><c>H </c><c>   1</c></rc>
    <rc><c>H </c><c>   1</c></rc>
    <rc><c>H </c><c>   1</c></rc>
    <rc><c>H </c><c>   1</c></rc>
    <rc><c>H </c><c>   1</c></rc>
    <rc><c>H </c><c>   1</c></rc>
    <rc><c>H </c><c>   1</c></rc>
    <rc><c>H </c><c>   1</c></rc>
    <rc><c>H </c><c>   1</c></rc>
    <rc><c>H </c><c>   1</c></rc>
    <rc><c>H </c><c>   1</c></rc>
    <rc><c>H </c><c>   1</c></rc>
    <rc><c>H </c><c>   1</c></rc>
    <rc><c>H </c><c>   1</c></rc>
    <rc><c>H </c><c>   1</c></rc>
    <rc><c>H </c><c>   1</c></rc>
    <rc><c>H </c><c>   1</c></rc>
    <rc><c>H </c><c>   1</c></rc>
    <rc><c>H </c><c>   1</c></rc>
    <rc><c>H </c><c>   1</c></rc>
    <rc><c>H </c><c>   1</c></rc>
    <rc><c>H </c><c>   1</c></rc>
    <rc><c>H </c><c>   1</c></rc>
    <rc><c>H </c><c>   1</c></rc>
    <rc><c>H </c><c>   1</c></rc>
    <rc><c>H </c><c>   1</c></rc>
    <rc><c>H </c><c>   1</c></rc>
    <rc><c>H </c><c>   1</c></rc>
    <rc><c>H </c><c>   1</c></rc>
    <rc><c>H </c><c>   1</c></rc>
    <rc><c>H </c><c>   1</c></rc>
    <rc><c>H </c><c>   1</c></rc>
    <rc><c>H </c><c>   1</c></rc>
    <rc><c>H </c><c>   1</c></rc>
    <rc><c>H </c><c>   1</c></rc>
    <rc><c>H </c><c>   1</c></rc>
    <rc><c>H </c><c>   1</c></rc>
    <rc><c>H </c><c>   1</c></rc>
    <rc><c>H </c><c>   1</c></rc>
    <rc><c>H </c><c>   1</c></rc>
    <rc><c>H </c><c>   1</c></rc>
    <rc><c>H </c><c>   1</c></rc>
    <rc><c>H </c><c>   1</c></rc>
    <rc><c>H </c><c>   1</c></rc>
    <rc><c>H </c><c>   1</c></rc>
    <rc><c>H </c><c>   1</c></rc>
    <rc><c>H </c><c>   1</c></rc>
    <rc><c>H </c><c>   1</c></rc>
    <rc><c>H </c><c>   1</c></rc>
    <rc><c>H </c><c>   1</c></rc>
    <rc><c>H </c><c>   1</c></rc>
    <rc><c>H </c><c>   1</c></rc>
    <rc><c>H </c><c>   1</c></rc>
    <rc><c>H </c><c>   1</c></rc>
    <rc><c>H </c><c>   1</c></rc>
    <rc><c>H </c><c>   1</c></rc>
    <rc><c>H </c><c>   1</c></rc>
    <rc><c>H </c><c>   1</c></rc>
    <rc><c>H </c><c>   1</c></rc>
    <rc><c>H </c><c>   1</c></rc>
    <rc><c>H </c><c>   1</c></rc>
    <rc><c>H </c><c>   1</c></rc>
    <rc><c>H </c><c>   1</c></rc>
    <rc><c>H </c><c>   1</c></rc>
    <rc><c>H </c><c>   1</c></rc>
    <rc><c>H </c><c>   1</c></rc>
    <rc><c>H </c><c>   1</c></rc>
    <rc><c>H </c><c>   1</c></rc>
    <rc><c>H </c><c>   1</c></rc>
    <rc><c>H </c><c>   1</c></rc>
    <rc><c>H </c><c>   1</c></rc>
    <rc><c>H </c><c>   1</c></rc>
    <rc><c>H </c><c>   1</c></rc>
    <rc><c>H </c><c>   1</c></rc>
    <rc><c>H </c><c>   1</c></rc>
    <rc><c>H </c><c>   1</c></rc>
    <rc><c>H </c><c>   1</c></rc>
    <rc><c>H </c><c>   1</c></rc>
    <rc><c>H </c><c>   1</c></rc>
    <rc><c>C </c><c>   2</c></rc>
    <rc><c>C </c><c>   2</c></rc>
    <rc><c>C </c><c>   2</c></rc>
    <rc><c>C </c><c>   2</c></rc>
    <rc><c>C </c><c>   2</c></rc>
    <rc><c>C </c><c>   2</c></rc>
    <rc><c>C </c><c>   2</c></rc>
    <rc><c>C </c><c>   2</c></rc>
    <rc><c>C </c><c>   2</c></rc>
    <rc><c>C </c><c>   2</c></rc>
    <rc><c>C </c><c>   2</c></rc>
    <rc><c>C </c><c>   2</c></rc>
    <rc><c>C </c><c>   2</c></rc>
    <rc><c>C </c><c>   2</c></rc>
    <rc><c>C </c><c>   2</c></rc>
    <rc><c>C </c><c>   2</c></rc>
    <rc><c>C </c><c>   2</c></rc>
    <rc><c>C </c><c>   2</c></rc>
    <rc><c>C </c><c>   2</c></rc>
    <rc><c>C </c><c>   2</c></rc>
    <rc><c>C </c><c>   2</c></rc>
    <rc><c>C </c><c>   2</c></rc>
    <rc><c>C </c><c>   2</c></rc>
    <rc><c>C </c><c>   2</c></rc>
    <rc><c>C </c><c>   2</c></rc>
    <rc><c>C </c><c>   2</c></rc>
    <rc><c>C </c><c>   2</c></rc>
    <rc><c>C </c><c>   2</c></rc>
    <rc><c>C </c><c>   2</c></rc>
    <rc><c>C </c><c>   2</c></rc>
    <rc><c>C </c><c>   2</c></rc>
    <rc><c>C </c><c>   2</c></rc>
    <rc><c>C </c><c>   2</c></rc>
    <rc><c>C </c><c>   2</c></rc>
    <rc><c>C </c><c>   2</c></rc>
    <rc><c>C </c><c>   2</c></rc>
    <rc><c>C </c><c>   2</c></rc>
    <rc><c>C </c><c>   2</c></rc>
    <rc><c>C </c><c>   2</c></rc>
    <rc><c>N </c><c>   3</c></rc>
    <rc><c>N </c><c>   3</c></rc>
    <rc><c>N </c><c>   3</c></rc>
    <rc><c>N </c><c>   3</c></rc>
    <rc><c>N </c><c>   3</c></rc>
    <rc><c>N </c><c>   3</c></rc>
    <rc><c>N </c><c>   3</c></rc>
    <rc><c>N </c><c>   3</c></rc>
    <rc><c>N </c><c>   3</c></rc>
    <rc><c>N </c><c>   3</c></rc>
    <rc><c>N </c><c>   3</c></rc>
    <rc><c>N </c><c>   3</c></rc>
    <rc><c>N </c><c>   3</c></rc>
    <rc><c>N </c><c>   3</c></rc>
    <rc><c>N </c><c>   3</c></rc>
    <rc><c>N </c><c>   3</c></rc>
    <rc><c>N </c><c>   3</c></rc>
    <rc><c>N </c><c>   3</c></rc>
    <rc><c>N </c><c>   3</c></rc>
    <rc><c>N </c><c>   3</c></rc>
    <rc><c>N </c><c>   3</c></rc>
    <rc><c>N </c><c>   3</c></rc>
    <rc><c>N </c><c>   3</c></rc>
    <rc><c>N </c><c>   3</c></rc>
    <rc><c>N </c><c>   3</c></rc>
    <rc><c>N </c><c>   3</c></rc>
    <rc><c>N </c><c>   3</c></rc>
    <rc><c>N </c><c>   3</c></rc>
    <rc><c>N </c><c>   3</c></rc>
    <rc><c>N </c><c>   3</c></rc>
    <rc><c>N </c><c>   3</c></rc>
    <rc><c>N </c><c>   3</c></rc>
    <rc><c>N </c><c>   3</c></rc>
    <rc><c>N </c><c>   3</c></rc>
    <rc><c>N </c><c>   3</c></rc>
    <rc><c>N </c><c>   3</c></rc>
    <rc><c>N </c><c>   3</c></rc>
    <rc><c>N </c><c>   3</c></rc>
    <rc><c>N </c><c>   3</c></rc>
    <rc><c>N </c><c>   3</c></rc>
    <rc><c>N </c><c>   3</c></rc>
    <rc><c>N </c><c>   3</c></rc>
    <rc><c>N </c><c>   3</c></rc>
    <rc><c>N </c><c>   3</c></rc>
    <rc><c>N </c><c>   3</c></rc>
    <rc><c>N </c><c>   3</c></rc>
    <rc><c>N </c><c>   3</c></rc>
    <rc><c>I </c><c>   4</c></rc>
    <rc><c>I </c><c>   4</c></rc>
    <rc><c>I </c><c>   4</c></rc>
    <rc><c>I </c><c>   4</c></rc>
    <rc><c>I </c><c>   4</c></rc>
    <rc><c>I </c><c>   4</c></rc>
    <rc><c>I </c><c>   4</c></rc>
    <rc><c>I </c><c>   4</c></rc>
    <rc><c>I </c><c>   4</c></rc>
    <rc><c>I </c><c>   4</c></rc>
    <rc><c>I </c><c>   4</c></rc>
    <rc><c>I </c><c>   4</c></rc>
    <rc><c>I </c><c>   4</c></rc>
    <rc><c>I </c><c>   4</c></rc>
    <rc><c>I </c><c>   4</c></rc>
    <rc><c>I </c><c>   4</c></rc>
    <rc><c>I </c><c>   4</c></rc>
    <rc><c>I </c><c>   4</c></rc>
    <rc><c>I </c><c>   4</c></rc>
    <rc><c>I </c><c>   4</c></rc>
    <rc><c>I </c><c>   4</c></rc>
    <rc><c>I </c><c>   4</c></rc>
    <rc><c>I </c><c>   4</c></rc>
    <rc><c>I </c><c>   4</c></rc>
    <rc><c>I </c><c>   4</c></rc>
    <rc><c>I </c><c>   4</c></rc>
    <rc><c>I </c><c>   4</c></rc>
    <rc><c>I </c><c>   4</c></rc>
    <rc><c>I </c><c>   4</c></rc>
    <rc><c>I </c><c>   4</c></rc>
    <rc><c>I </c><c>   4</c></rc>
    <rc><c>I </c><c>   4</c></rc>
    <rc><c>I </c><c>   4</c></rc>
    <rc><c>I </c><c>   4</c></rc>
    <rc><c>I </c><c>   4</c></rc>
    <rc><c>I </c><c>   4</c></rc>
    <rc><c>I </c><c>   4</c></rc>
    <rc><c>I </c><c>   4</c></rc>
    <rc><c>I </c><c>   4</c></rc>
    <rc><c>I </c><c>   4</c></rc>
    <rc><c>I </c><c>   4</c></rc>
    <rc><c>I </c><c>   4</c></rc>
    <rc><c>I </c><c>   4</c></rc>
    <rc><c>I </c><c>   4</c></rc>
    <rc><c>I </c><c>   4</c></rc>
    <rc><c>I </c><c>   4</c></rc>
    <rc><c>I </c><c>   4</c></rc>
    <rc><c>I </c><c>   4</c></rc>
    <rc><c>I </c><c>   4</c></rc>
    <rc><c>I </c><c>   4</c></rc>
    <rc><c>I </c><c>   4</c></rc>
    <rc><c>I </c><c>   4</c></rc>
    <rc><c>I </c><c>   4</c></rc>
    <rc><c>I </c><c>   4</c></rc>
    <rc><c>I </c><c>   4</c></rc>
    <rc><c>I </c><c>   4</c></rc>
    <rc><c>I </c><c>   4</c></rc>
    <rc><c>I </c><c>   4</c></rc>
    <rc><c>I </c><c>   4</c></rc>
    <rc><c>I </c><c>   4</c></rc>
    <rc><c>I </c><c>   4</c></rc>
    <rc><c>I </c><c>   4</c></rc>
    <rc><c>I </c><c>   4</c></rc>
    <rc><c>I </c><c>   4</c></rc>
    <rc><c>I </c><c>   4</c></rc>
    <rc><c>I </c><c>   4</c></rc>
    <rc><c>I </c><c>   4</c></rc>
    <rc><c>I </c><c>   4</c></rc>
    <rc><c>I </c><c>   4</c></rc>
    <rc><c>I </c><c>   4</c></rc>
    <rc><c>I </c><c>   4</c></rc>
    <rc><c>I </c><c>   4</c></rc>
    <rc><c>Pb</c><c>   5</c></rc>
    <rc><c>Pb</c><c>   5</c></rc>
    <rc><c>Pb</c><c>   5</c></rc>
    <rc><c>Pb</c><c>   5</c></rc>
    <rc><c>Pb</c><c>   5</c></rc>
    <rc><c>Pb</c><c>   5</c></rc>
    <rc><c>Pb</c><c>   5</c></rc>
    <rc><c>Pb</c><c>   5</c></rc>
    <rc><c>Pb</c><c>   5</c></rc>
    <rc><c>Pb</c><c>   5</c></rc>
    <rc><c>Pb</c><c>   5</c></rc>
    <rc><c>Pb</c><c>   5</c></rc>
    <rc><c>Pb</c><c>   5</c></rc>
    <rc><c>Pb</c><c>   5</c></rc>
    <rc><c>Pb</c><c>   5</c></rc>
    <rc><c>Pb</c><c>   5</c></rc>
    <rc><c>Pb</c><c>   5</c></rc>
    <rc><c>Pb</c><c>   5</c></rc>
    <rc><c>Pb</c><c>   5</c></rc>
    <rc><c>Pb</c><c>   5</c></rc>
    <rc><c>Pb</c><c>   5</c></rc>
    <rc><c>Pb</c><c>   5</c></rc>
    <rc><c>Pb</c><c>   5</c></rc>
    <rc><c>Pb</c><c>   5</c></rc>
   </set>
  </array>
  <array name="atomtypes" >
   <dimension dim="1">type</dimension>
   <field type="int">atomspertype</field>
   <field type="string">element</field>
   <field>mass</field>
   <field>valence</field>
   <field type="string">pseudopotential</field>
   <set>
    <rc><c> 143</c><c>H </c><c>      1.00000000</c><c>      1.00000000</c><c>  PAW_PBE H 15Jun2001                   </c></rc>
    <rc><c>  39</c><c>C </c><c>     12.01100000</c><c>      4.00000000</c><c>  PAW_PBE C 08Apr2002                   </c></rc>
    <rc><c>  47</c><c>N </c><c>     14.00100000</c><c>      5.00000000</c><c>  PAW_PBE N 08Apr2002                   </c></rc>
    <rc><c>  72</c><c>I </c><c>    126.90400000</c><c>      7.00000000</c><c>  PAW_PBE I 08Apr2002                   </c></rc>
    <rc><c>  24</c><c>Pb</c><c>    207.20000000</c><c>      4.00000000</c><c>  PAW_PBE Pb 08Apr2002                  </c></rc>
   </set>
  </array>
 </atominfo>
 <structure name="initialpos" >
  <crystal>
   <varray name="basis" >
    <v>      18.06080055       0.00000000       0.00000000 </v>
    <v>      -0.00491865      18.06279945       0.00000000 </v>
    <v>       0.00000000       0.00000000      62.48749924 </v>
   </varray>
   <i name="volume">  20385.21054034 </i>
   <varray name="rec_basis" >
    <v>       0.05536853       0.00001508      -0.00000000 </v>
    <v>       0.00000000       0.05536240       0.00000000 </v>
    <v>       0.00000000      -0.00000000       0.01600320 </v>
   </varray>
  </crystal>
  <varray name="positions" >
   <v>       0.45119871       0.31609517       0.57856946 </v>
   <v>       0.44902118       0.84513283       0.57502651 </v>
   <v>       0.92770068       0.25410513       0.58191845 </v>
   <v>       0.95343221       0.80648607       0.58380818 </v>
   <v>       0.29745967       0.05682236       0.57957936 </v>
   <v>       0.31045937       0.56082221       0.58028586 </v>
   <v>       0.78900335       0.07245777       0.58115139 </v>
   <v>       0.10868518       0.22474084       0.55749304 </v>
   <v>       0.09239245       0.68083461       0.56271246 </v>
   <v>       0.57313363       0.17539380       0.55658874 </v>
   <v>       0.50551308       0.65366307       0.56691643 </v>
   <v>       0.35959293       0.02107706       0.56112456 </v>
   <v>       0.28395353       0.61696038       0.55892301 </v>
   <v>       0.86314051       0.04366180       0.56560037 </v>
   <v>       0.06475261       0.22119009       0.58197755 </v>
   <v>       0.03341491       0.69135023       0.58409662 </v>
   <v>       0.56763584       0.24948409       0.57538358 </v>
   <v>       0.48005695       0.71624978       0.58701664 </v>
   <v>       0.25663880       0.43294708       0.58138173 </v>
   <v>       0.16638566       0.01191821       0.57621095 </v>
   <v>       0.67380819       0.99820865       0.57948248 </v>
   <v>       0.37746910       0.28576897       0.56245222 </v>
   <v>       0.47150357       0.86691785       0.54886393 </v>
   <v>       0.88486444       0.26227866       0.55748614 </v>
   <v>       0.97053781       0.86773753       0.56259940 </v>
   <v>       0.19576010       0.41006489       0.56102237 </v>
   <v>       0.14538543       0.95495513       0.55468187 </v>
   <v>       0.67783830       0.91922111       0.56302832 </v>
   <v>       0.44802323       0.19612284       0.54552372 </v>
   <v>       0.50928496       0.74506011       0.54098296 </v>
   <v>       0.99907424       0.24890756       0.53882719 </v>
   <v>       0.05713507       0.79123862       0.54634487 </v>
   <v>       0.20721475       0.52597378       0.54459593 </v>
   <v>       0.26944794       0.95324769       0.54320527 </v>
   <v>       0.79745977       0.94249250       0.55208931 </v>
   <v>       0.46026064       0.30870484       0.67654291 </v>
   <v>       0.42997541       0.81272877       0.67171058 </v>
   <v>       0.96230788       0.28002180       0.68013158 </v>
   <v>       0.93457225       0.78668202       0.67423990 </v>
   <v>       0.30492980       0.05667788       0.67372417 </v>
   <v>       0.29689503       0.54391438       0.67704289 </v>
   <v>       0.79284129       0.04985647       0.67741467 </v>
   <v>       0.84208994       0.51536318       0.66911461 </v>
   <v>       0.08738805       0.17732936       0.64490584 </v>
   <v>       0.09628603       0.68993720       0.65418053 </v>
   <v>       0.57117582       0.16370549       0.65048820 </v>
   <v>       0.57622612       0.67988198       0.65738576 </v>
   <v>       0.17604580       0.41630263       0.64813189 </v>
   <v>       0.17483924       0.92057075       0.65147595 </v>
   <v>       0.65096415       0.46928990       0.65756164 </v>
   <v>       0.67120563       0.92284975       0.64760347 </v>
   <v>       0.06743540       0.18536815       0.67192816 </v>
   <v>       0.04102440       0.69292402       0.67656153 </v>
   <v>       0.55935473       0.20613984       0.67547452 </v>
   <v>       0.53104708       0.71611061       0.67971768 </v>
   <v>       0.20181999       0.43743058       0.67388527 </v>
   <v>       0.20201646       0.95408817       0.67594941 </v>
   <v>       0.72055479       0.44934573       0.67519193 </v>
   <v>       0.68907954       0.94926351       0.67363119 </v>
   <v>       0.41696109       0.32398743       0.65225741 </v>
   <v>       0.41974441       0.83196703       0.64455085 </v>
   <v>       0.92406504       0.32248116       0.65732508 </v>
   <v>       0.92944490       0.83623399       0.65028119 </v>
   <v>       0.33114879       0.07847312       0.64788862 </v>
   <v>       0.32284695       0.58174320       0.65295561 </v>
   <v>       0.83233591       0.07524244       0.65334180 </v>
   <v>       0.84767590       0.56800904       0.64531529 </v>
   <v>       0.00090637       0.26112453       0.63393942 </v>
   <v>       0.03311520       0.77942593       0.63606454 </v>
   <v>       0.48282660       0.23482243       0.63402531 </v>
   <v>       0.51065396       0.75131242       0.63368937 </v>
   <v>       0.25129198       0.99518705       0.63194683 </v>
   <v>       0.25069261       0.50639649       0.63273044 </v>
   <v>       0.75918855       0.99928617       0.63288061 </v>
   <v>       0.72583159       0.54564229       0.63662300 </v>
   <v>       0.44874502       0.30128397       0.76888902 </v>
   <v>       0.44874501       0.80128391       0.76888902 </v>
   <v>       0.94874497       0.30128397       0.76888902 </v>
   <v>       0.94874501       0.80128391       0.76888902 </v>
   <v>       0.30127600       0.05129450       0.76887296 </v>
   <v>       0.30127601       0.55129450       0.76887296 </v>
   <v>       0.80127594       0.05129450       0.76887296 </v>
   <v>       0.80127598       0.55129450       0.76887296 </v>
   <v>       0.07877100       0.17118050       0.74344197 </v>
   <v>       0.07877101       0.67118045       0.74344197 </v>
   <v>       0.57877100       0.17118050       0.74344197 </v>
   <v>       0.57877099       0.67118045       0.74344197 </v>
   <v>       0.17119950       0.42117448       0.74342103 </v>
   <v>       0.17119950       0.92117451       0.74342103 </v>
   <v>       0.67119951       0.42117448       0.74342103 </v>
   <v>       0.67119950       0.92117451       0.74342103 </v>
   <v>       0.05125600       0.19871499       0.76888902 </v>
   <v>       0.05125600       0.69871493       0.76888902 </v>
   <v>       0.55125603       0.19871499       0.76888902 </v>
   <v>       0.55125602       0.69871493       0.76888902 </v>
   <v>       0.19872349       0.44870397       0.76887205 </v>
   <v>       0.19872349       0.94870397       0.76887205 </v>
   <v>       0.69872352       0.44870397       0.76887205 </v>
   <v>       0.69872351       0.94870397       0.76887205 </v>
   <v>       0.42123152       0.32881747       0.74344197 </v>
   <v>       0.42123151       0.82881744       0.74344197 </v>
   <v>       0.92123147       0.32881747       0.74344197 </v>
   <v>       0.92123151       0.82881744       0.74344197 </v>
   <v>       0.32880050       0.07882500       0.74342103 </v>
   <v>       0.32880049       0.57882496       0.74342103 </v>
   <v>       0.82880048       0.07882500       0.74342103 </v>
   <v>       0.82880052       0.57882496       0.74342103 </v>
   <v>       0.00000350       0.25000148       0.72582199 </v>
   <v>       0.00000350       0.75000145       0.72582199 </v>
   <v>       0.50000351       0.25000148       0.72582199 </v>
   <v>       0.50000350       0.75000145       0.72582199 </v>
   <v>       0.25000050       0.00000000       0.72580398 </v>
   <v>       0.25000052       0.50000000       0.72580398 </v>
   <v>       0.75000050       0.00000000       0.72580398 </v>
   <v>       0.75000049       0.50000000       0.72580398 </v>
   <v>       0.71705464       0.43980386       0.54223266 </v>
   <v>       0.73593293       0.49919061       0.52106052 </v>
   <v>       0.65294974       0.54577714       0.56154322 </v>
   <v>       0.69721273       0.63299995       0.56063649 </v>
   <v>       0.84106027       0.50413084       0.57397839 </v>
   <v>       0.77359226       0.56782572       0.58340050 </v>
   <v>       0.86531590       0.55745066       0.53548149 </v>
   <v>       0.79402370       0.62057765       0.52846684 </v>
   <v>       0.86437510       0.47176738       0.52061597 </v>
   <v>       0.86594285       0.43419548       0.54653107 </v>
   <v>       0.87860308       0.33724680       0.52012588 </v>
   <v>       0.79151899       0.32633980       0.53282593 </v>
   <v>       0.63219594       0.54693721       0.52250526 </v>
   <v>       0.69123265       0.62612965       0.51955137 </v>
   <v>       0.60689253       0.63339414       0.53322268 </v>
   <v>       0.75324712       0.44766343       0.59873865 </v>
   <v>       0.74050663       0.40461160       0.57373927 </v>
   <v>       0.67484632       0.47076084       0.58300369 </v>
   <v>       0.82976670       0.68286300       0.56654148 </v>
   <v>       0.88493104       0.69083344       0.54376837 </v>
   <v>       0.91074463       0.62604575       0.56356169 </v>
   <v>       0.82352178       0.39377224       0.48829285 </v>
   <v>       0.78677336       0.30340712       0.49268186 </v>
   <v>       0.66276204       0.31823551       0.52195211 </v>
   <v>       0.73667016       0.46715307       0.47310314 </v>
   <v>       0.53899526       0.37460176       0.52061304 </v>
   <v>       0.61277247       0.52502901       0.47174786 </v>
   <v>       0.51130627       0.47802861       0.49548060 </v>
   <v>       0.99720775       0.24470418       0.55650370 </v>
   <v>       0.03054369       0.77365451       0.56140990 </v>
   <v>       0.47314054       0.22998912       0.55807921 </v>
   <v>       0.49228597       0.76020640       0.55707102 </v>
   <v>       0.23875134       0.51351553       0.55898851 </v>
   <v>       0.25326079       0.98697589       0.55688482 </v>
   <v>       0.76991326       0.98066552       0.56317612 </v>
   <v>       0.00536604       0.25028445       0.65097896 </v>
   <v>       0.01275618       0.76384981       0.65194741 </v>
   <v>       0.49368700       0.24421609       0.65084398 </v>
   <v>       0.49825739       0.75642625       0.65071810 </v>
   <v>       0.24917166       0.49933385       0.65007253 </v>
   <v>       0.25307325       0.99951341       0.64927268 </v>
   <v>       0.74918322       0.51811030       0.65088739 </v>
   <v>       0.75235425       0.99953110       0.65010677 </v>
   <v>       0.49998898       0.24999498       0.74327702 </v>
   <v>       0.49998903       0.74999496       0.74327702 </v>
   <v>       0.99998898       0.24999498       0.74327702 </v>
   <v>       0.99998903       0.74999496       0.74327702 </v>
   <v>       0.25000050       0.00000100       0.74325596 </v>
   <v>       0.25000052       0.50000100       0.74325596 </v>
   <v>       0.75000050       0.00000100       0.74325596 </v>
   <v>       0.75000049       0.50000100       0.74325596 </v>
   <v>       0.70906879       0.38958147       0.49764342 </v>
   <v>       0.65271839       0.36284677       0.51073112 </v>
   <v>       0.69308642       0.44810223       0.48354807 </v>
   <v>       0.58235413       0.39427424       0.50983128 </v>
   <v>       0.62286175       0.47887326       0.48269319 </v>
   <v>       0.56696449       0.45285968       0.49593574 </v>
   <v>       0.75906673       0.47780126       0.53594356 </v>
   <v>       0.68832611       0.58162551       0.55184316 </v>
   <v>       0.78152578       0.51797931       0.57368127 </v>
   <v>       0.82324378       0.59450704       0.54189977 </v>
   <v>       0.83186734       0.43880176       0.53201266 </v>
   <v>       0.82305434       0.36209277       0.52193423 </v>
   <v>       0.65361403       0.59664224       0.53036334 </v>
   <v>       0.73372899       0.45642885       0.58237747 </v>
   <v>       0.86351953       0.65091484       0.55539746 </v>
   <v>       0.78788230       0.36064173       0.49920156 </v>
   <v>       0.05982220       0.22841796       0.56588827 </v>
   <v>       0.05363274       0.71183109       0.56981368 </v>
   <v>       0.54204759       0.21530004       0.56410599 </v>
   <v>       0.49668950       0.70833699       0.57156024 </v>
   <v>       0.43303592       0.28308362       0.56614845 </v>
   <v>       0.46975022       0.82789279       0.56065584 </v>
   <v>       0.93352091       0.25572689       0.56570879 </v>
   <v>       0.97813153       0.81593596       0.56907354 </v>
   <v>       0.23118457       0.44904758       0.56780858 </v>
   <v>       0.18382322       0.98415939       0.56316189 </v>
   <v>       0.70150121       0.96831575       0.56844713 </v>
   <v>       0.30438077       0.02503554       0.56642945 </v>
   <v>       0.28121775       0.56626555       0.56660466 </v>
   <v>       0.80966603       0.03570131       0.57078201 </v>
   <v>       0.05677870       0.20157276       0.65645912 </v>
   <v>       0.05179889       0.71194202       0.66179735 </v>
   <v>       0.54514530       0.20187860       0.65961045 </v>
   <v>       0.53742978       0.71502440       0.66389860 </v>
   <v>       0.20690831       0.44769390       0.65803103 </v>
   <v>       0.20816318       0.95617682       0.65984707 </v>
   <v>       0.70507188       0.47450842       0.66165309 </v>
   <v>       0.70202629       0.95511785       0.65788622 </v>
   <v>       0.45536937       0.29504048       0.66064727 </v>
   <v>       0.44662865       0.80304630       0.65628782 </v>
   <v>       0.96167923       0.28557356       0.66373120 </v>
   <v>       0.95452901       0.79765998       0.65962449 </v>
   <v>       0.29870027       0.04724457       0.65765083 </v>
   <v>       0.29289467       0.54482277       0.66090233 </v>
   <v>       0.79429486       0.04382733       0.66119841 </v>
   <v>       0.81735151       0.53390288       0.65545727 </v>
   <v>       0.04586250       0.20411950       0.75272599 </v>
   <v>       0.04586250       0.70411946       0.75272599 </v>
   <v>       0.54586251       0.20411950       0.75272599 </v>
   <v>       0.54586250       0.70411946       0.75272599 </v>
   <v>       0.20411900       0.45410100       0.75270499 </v>
   <v>       0.20411899       0.95410095       0.75270499 </v>
   <v>       0.70411898       0.45410100       0.75270499 </v>
   <v>       0.70411896       0.95410095       0.75270499 </v>
   <v>       0.45414002       0.29588849       0.75272697 </v>
   <v>       0.45414001       0.79588852       0.75272697 </v>
   <v>       0.95414002       0.29588849       0.75272697 </v>
[...]
   <v>       0.57313363       0.17539380       0.55658874 </v>
   <v>       0.50551308       0.65366307       0.56691643 </v>
   <v>       0.35959293       0.02107706       0.56112456 </v>
   <v>       0.28395353       0.61696038       0.55892301 </v>
   <v>       0.86314051       0.04366180       0.56560037 </v>
   <v>       0.06475261       0.22119009       0.58197755 </v>
   <v>       0.03341491       0.69135023       0.58409662 </v>
   <v>       0.56763584       0.24948409       0.57538358 </v>
   <v>       0.48005695       0.71624978       0.58701664 </v>
   <v>       0.25663880       0.43294708       0.58138173 </v>
   <v>       0.16638566       0.01191821       0.57621095 </v>
   <v>       0.67380819       0.99820865       0.57948248 </v>
   <v>       0.37746910       0.28576897       0.56245222 </v>
   <v>       0.47150357       0.86691785       0.54886393 </v>
   <v>       0.88486444       0.26227866       0.55748614 </v>
   <v>       0.97053781       0.86773753       0.56259940 </v>
   <v>       0.19576010       0.41006489       0.56102237 </v>
   <v>       0.14538543       0.95495513       0.55468187 </v>
   <v>       0.67783830       0.91922111       0.56302832 </v>
   <v>       0.44802323       0.19612284       0.54552372 </v>
   <v>       0.50928496       0.74506011       0.54098296 </v>
   <v>       0.99907424       0.24890756       0.53882719 </v>
   <v>       0.05713507       0.79123862       0.54634487 </v>
   <v>       0.20721475       0.52597378       0.54459593 </v>
   <v>       0.26944794       0.95324769       0.54320527 </v>
   <v>       0.79745977       0.94249250       0.55208931 </v>
   <v>       0.46026064       0.30870484       0.67654291 </v>
   <v>       0.42997541       0.81272877       0.67171058 </v>
   <v>       0.96230788       0.28002180       0.68013158 </v>
   <v>       0.93457225       0.78668202       0.67423990 </v>
   <v>       0.30492980       0.05667788       0.67372417 </v>
   <v>       0.29689503       0.54391438       0.67704289 </v>
   <v>       0.79284129       0.04985647       0.67741467 </v>
   <v>       0.84208994       0.51536318       0.66911461 </v>
   <v>       0.08738805       0.17732936       0.64490584 </v>
   <v>       0.09628603       0.68993720       0.65418053 </v>
   <v>       0.57117582       0.16370549       0.65048820 </v>
   <v>       0.57622612       0.67988198       0.65738576 </v>
   <v>       0.17604580       0.41630263       0.64813189 </v>
   <v>       0.17483924       0.92057075       0.65147595 </v>
   <v>       0.65096415       0.46928990       0.65756164 </v>
   <v>       0.67120563       0.92284975       0.64760347 </v>
   <v>       0.06743540       0.18536815       0.67192816 </v>
   <v>       0.04102440       0.69292402       0.67656153 </v>
   <v>       0.55935473       0.20613984       0.67547452 </v>
   <v>       0.53104708       0.71611061       0.67971768 </v>
   <v>       0.20181999       0.43743058       0.67388527 </v>
   <v>       0.20201646       0.95408817       0.67594941 </v>
   <v>       0.72055479       0.44934573       0.67519193 </v>
   <v>       0.68907954       0.94926351       0.67363119 </v>
   <v>       0.41696109       0.32398743       0.65225741 </v>
   <v>       0.41974441       0.83196703       0.64455085 </v>
   <v>       0.92406504       0.32248116       0.65732508 </v>
   <v>       0.92944490       0.83623399       0.65028119 </v>
   <v>       0.33114879       0.07847312       0.64788862 </v>
   <v>       0.32284695       0.58174320       0.65295561 </v>
   <v>       0.83233591       0.07524244       0.65334180 </v>
   <v>       0.84767590       0.56800904       0.64531529 </v>
   <v>       0.00090637       0.26112453       0.63393942 </v>
   <v>       0.03311520       0.77942593       0.63606454 </v>
   <v>       0.48282660       0.23482243       0.63402531 </v>
   <v>       0.51065396       0.75131242       0.63368937 </v>
   <v>       0.25129198       0.99518705       0.63194683 </v>
   <v>       0.25069261       0.50639649       0.63273044 </v>
   <v>       0.75918855       0.99928617       0.63288061 </v>
   <v>       0.72583159       0.54564229       0.63662300 </v>
   <v>       0.44874502       0.30128397       0.76888902 </v>
   <v>       0.44874501       0.80128391       0.76888902 </v>
   <v>       0.94874497       0.30128397       0.76888902 </v>
   <v>       0.94874501       0.80128391       0.76888902 </v>
   <v>       0.30127600       0.05129450       0.76887296 </v>
   <v>       0.30127601       0.55129450       0.76887296 </v>
   <v>       0.80127594       0.05129450       0.76887296 </v>
   <v>       0.80127598       0.55129450       0.76887296 </v>
   <v>       0.07877100       0.17118050       0.74344197 </v>
   <v>       0.07877101       0.67118045       0.74344197 </v>
   <v>       0.57877100       0.17118050       0.74344197 </v>
   <v>       0.57877099       0.67118045       0.74344197 </v>
   <v>       0.17119950       0.42117448       0.74342103 </v>
   <v>       0.17119950       0.92117451       0.74342103 </v>
   <v>       0.67119951       0.42117448       0.74342103 </v>
   <v>       0.67119950       0.92117451       0.74342103 </v>
   <v>       0.05125600       0.19871499       0.76888902 </v>
   <v>       0.05125600       0.69871493       0.76888902 </v>
   <v>       0.55125603       0.19871499       0.76888902 </v>
   <v>       0.55125602       0.69871493       0.76888902 </v>
   <v>       0.19872349       0.44870397       0.76887205 </v>
   <v>       0.19872349       0.94870397       0.76887205 </v>
   <v>       0.69872352       0.44870397       0.76887205 </v>
   <v>       0.69872351       0.94870397       0.76887205 </v>
   <v>       0.42123152       0.32881747       0.74344197 </v>
   <v>       0.42123151       0.82881744       0.74344197 </v>
   <v>       0.92123147       0.32881747       0.74344197 </v>
   <v>       0.92123151       0.82881744       0.74344197 </v>
   <v>       0.32880050       0.07882500       0.74342103 </v>
   <v>       0.32880049       0.57882496       0.74342103 </v>
   <v>       0.82880048       0.07882500       0.74342103 </v>
   <v>       0.82880052       0.57882496       0.74342103 </v>
   <v>       0.00000350       0.25000148       0.72582199 </v>
   <v>       0.00000350       0.75000145       0.72582199 </v>
   <v>       0.50000351       0.25000148       0.72582199 </v>
   <v>       0.50000350       0.75000145       0.72582199 </v>
   <v>       0.25000050       0.00000000       0.72580398 </v>
   <v>       0.25000052       0.50000000       0.72580398 </v>
   <v>       0.75000050       0.00000000       0.72580398 </v>
   <v>       0.75000049       0.50000000       0.72580398 </v>
   <v>       0.71705464       0.43980386       0.54223266 </v>
   <v>       0.73593293       0.49919061       0.52106052 </v>
   <v>       0.65294974       0.54577714       0.56154322 </v>
   <v>       0.69721273       0.63299995       0.56063649 </v>
   <v>       0.84106027       0.50413084       0.57397839 </v>
   <v>       0.77359226       0.56782572       0.58340050 </v>
   <v>       0.86531590       0.55745066       0.53548149 </v>
   <v>       0.79402370       0.62057765       0.52846684 </v>
   <v>       0.86437510       0.47176738       0.52061597 </v>
   <v>       0.86594285       0.43419548       0.54653107 </v>
   <v>       0.87860308       0.33724680       0.52012588 </v>
   <v>       0.79151899       0.32633980       0.53282593 </v>
   <v>       0.63219594       0.54693721       0.52250526 </v>
   <v>       0.69123265       0.62612965       0.51955137 </v>
   <v>       0.60689253       0.63339414       0.53322268 </v>
   <v>       0.75324712       0.44766343       0.59873865 </v>
   <v>       0.74050663       0.40461160       0.57373927 </v>
   <v>       0.67484632       0.47076084       0.58300369 </v>
   <v>       0.82976670       0.68286300       0.56654148 </v>
   <v>       0.88493104       0.69083344       0.54376837 </v>
   <v>       0.91074463       0.62604575       0.56356169 </v>
   <v>       0.82352178       0.39377224       0.48829285 </v>
   <v>       0.78677336       0.30340712       0.49268186 </v>
   <v>       0.66276204       0.31823551       0.52195211 </v>
   <v>       0.73667016       0.46715307       0.47310314 </v>
   <v>       0.53899526       0.37460176       0.52061304 </v>
   <v>       0.61277247       0.52502901       0.47174786 </v>
   <v>       0.51130627       0.47802861       0.49548060 </v>
   <v>       0.99720775       0.24470418       0.55650370 </v>
   <v>       0.03054369       0.77365451       0.56140990 </v>
   <v>       0.47314054       0.22998912       0.55807921 </v>
   <v>       0.49228597       0.76020640       0.55707102 </v>
   <v>       0.23875134       0.51351553       0.55898851 </v>
   <v>       0.25326079       0.98697589       0.55688482 </v>
   <v>       0.76991326       0.98066552       0.56317612 </v>
   <v>       0.00536604       0.25028445       0.65097896 </v>
   <v>       0.01275618       0.76384981       0.65194741 </v>
   <v>       0.49368700       0.24421609       0.65084398 </v>
   <v>       0.49825739       0.75642625       0.65071810 </v>
   <v>       0.24917166       0.49933385       0.65007253 </v>
   <v>       0.25307325       0.99951341       0.64927268 </v>
   <v>       0.74918322       0.51811030       0.65088739 </v>
   <v>       0.75235425       0.99953110       0.65010677 </v>
   <v>       0.49998898       0.24999498       0.74327702 </v>
   <v>       0.49998903       0.74999496       0.74327702 </v>
   <v>       0.99998898       0.24999498       0.74327702 </v>
   <v>       0.99998903       0.74999496       0.74327702 </v>
   <v>       0.25000050       0.00000100       0.74325596 </v>
   <v>       0.25000052       0.50000100       0.74325596 </v>
   <v>       0.75000050       0.00000100       0.74325596 </v>
   <v>       0.75000049       0.50000100       0.74325596 </v>
   <v>       0.70906879       0.38958147       0.49764342 </v>
   <v>       0.65271839       0.36284677       0.51073112 </v>
   <v>       0.69308642       0.44810223       0.48354807 </v>
   <v>       0.58235413       0.39427424       0.50983128 </v>
   <v>       0.62286175       0.47887326       0.48269319 </v>
   <v>       0.56696449       0.45285968       0.49593574 </v>
   <v>       0.75906673       0.47780126       0.53594356 </v>
   <v>       0.68832611       0.58162551       0.55184316 </v>
   <v>       0.78152578       0.51797931       0.57368127 </v>
   <v>       0.82324378       0.59450704       0.54189977 </v>
   <v>       0.83186734       0.43880176       0.53201266 </v>
   <v>       0.82305434       0.36209277       0.52193423 </v>
   <v>       0.65361403       0.59664224       0.53036334 </v>
   <v>       0.73372899       0.45642885       0.58237747 </v>
   <v>       0.86351953       0.65091484       0.55539746 </v>
   <v>       0.78788230       0.36064173       0.49920156 </v>
   <v>       0.05982220       0.22841796       0.56588827 </v>
   <v>       0.05363274       0.71183109       0.56981368 </v>
   <v>       0.54204759       0.21530004       0.56410599 </v>
   <v>       0.49668950       0.70833699       0.57156024 </v>
   <v>       0.43303592       0.28308362       0.56614845 </v>
   <v>       0.46975022       0.82789279       0.56065584 </v>
   <v>       0.93352091       0.25572689       0.56570879 </v>
   <v>       0.97813153       0.81593596       0.56907354 </v>
   <v>       0.23118457       0.44904758       0.56780858 </v>
   <v>       0.18382322       0.98415939       0.56316189 </v>
   <v>       0.70150121       0.96831575       0.56844713 </v>
   <v>       0.30438077       0.02503554       0.56642945 </v>
   <v>       0.28121775       0.56626555       0.56660466 </v>
   <v>       0.80966603       0.03570131       0.57078201 </v>
   <v>       0.05677870       0.20157276       0.65645912 </v>
   <v>       0.05179889       0.71194202       0.66179735 </v>
   <v>       0.54514530       0.20187860       0.65961045 </v>
   <v>       0.53742978       0.71502440       0.66389860 </v>
   <v>       0.20690831       0.44769390       0.65803103 </v>
   <v>       0.20816318       0.95617682       0.65984707 </v>
   <v>       0.70507188       0.47450842       0.66165309 </v>
   <v>       0.70202629       0.95511785       0.65788622 </v>
   <v>       0.45536937       0.29504048       0.66064727 </v>
   <v>       0.44662865       0.80304630       0.65628782 </v>
   <v>       0.96167923       0.28557356       0.66373120 </v>
   <v>       0.95452901       0.79765998       0.65962449 </v>
   <v>       0.29870027       0.04724457       0.65765083 </v>
   <v>       0.29289467       0.54482277       0.66090233 </v>
   <v>       0.79429486       0.04382733       0.66119841 </v>
   <v>       0.81735151       0.53390288       0.65545727 </v>
   <v>       0.04586250       0.20411950       0.75272599 </v>
   <v>       0.04586250       0.70411946       0.75272599 </v>
   <v>       0.54586251       0.20411950       0.75272599 </v>
   <v>       0.54586250       0.70411946       0.75272599 </v>
   <v>       0.20411900       0.45410100       0.75270499 </v>
   <v>       0.20411899       0.95410095       0.75270499 </v>
   <v>       0.70411898       0.45410100       0.75270499 </v>
   <v>       0.70411896       0.95410095       0.75270499 </v>
   <v>       0.45414002       0.29588849       0.75272697 </v>
   <v>       0.45414001       0.79588852       0.75272697 </v>
   <v>       0.95414002       0.29588849       0.75272697 </v>
   <v>       0.95414006       0.79588852       0.75272697 </v>
   <v>       0.29588249       0.04590050       0.75270499 </v>
   <v>       0.29588248       0.54590053       0.75270499 </v>
   <v>       0.79588244       0.04590050       0.75270499 </v>
   <v>       0.79588248       0.54590053       0.75270499 </v>
   <v>       0.76252344       0.54383508       0.55126852 </v>
   <v>       0.49809903       0.01924774       0.55137762 </v>
   <v>       0.48215259       0.51662563       0.55568316 </v>
   <v>       0.99278586       0.00236601       0.55259539 </v>
   <v>       0.03418839       0.50350175       0.55369485 </v>
   <v>       0.24838893       0.24427256       0.55127634 </v>
   <v>       0.25643867       0.75914982       0.55229125 </v>
   <v>       0.74484409       0.21408515       0.55800999 </v>
   <v>       0.71041635       0.78904287       0.54743829 </v>
   <v>       0.00642419       0.99963373       0.65484448 </v>
   <v>       0.01210089       0.49013955       0.65518665 </v>
   <v>       0.49843152       0.00542513       0.65439963 </v>
   <v>       0.50792292       0.49155812       0.65555397 </v>
   <v>       0.25214806       0.24697865       0.65498953 </v>
   <v>       0.24719644       0.75593032       0.65479253 </v>
   <v>       0.74189970       0.25439203       0.65596677 </v>
   <v>       0.74985982       0.75515556       0.65282686 </v>
   <v>       0.14258469       0.10814291       0.60727973 </v>
   <v>       0.14383850       0.61158383       0.61151483 </v>
   <v>       0.64608572       0.10607802       0.61055712 </v>
   <v>       0.61995421       0.63082658       0.61533407 </v>
   <v>       0.35567491       0.39406381       0.61078275 </v>
   <v>       0.36841220       0.88679634       0.60886684 </v>
   <v>       0.88360443       0.37079584       0.61375807 </v>
   <v>       0.86185154       0.88559905       0.61061609 </v>
   <v>       0.11210806       0.35464101       0.60946150 </v>
   <v>       0.12258656       0.87634366       0.60893234 </v>
   <v>       0.58657681       0.34284700       0.60606244 </v>
   <v>       0.61082139       0.86356783       0.61082603 </v>
   <v>       0.38734137       0.13370279       0.60857808 </v>
   <v>       0.38214164       0.63208591       0.61298332 </v>
   <v>       0.88657330       0.14139737       0.61316714 </v>
   <v>       0.91463677       0.65198637       0.61726067 </v>
   <v>       0.00000000       0.00000000       0.75492797 </v>
   <v>       0.00000000       0.50000000       0.75492797 </v>
   <v>       0.50000000       0.00000000       0.75492797 </v>
   <v>       0.49999999       0.50000000       0.75492797 </v>
   <v>       0.25000050       0.25000000       0.75493902 </v>
   <v>       0.25000051       0.74999997       0.75493902 </v>
   <v>       0.75000047       0.25000000       0.75493902 </v>
   <v>       0.75000046       0.74999997       0.75493902 </v>
   <v>       0.13579050       0.11421000       0.70478299 </v>
   <v>       0.13579050       0.61420998       0.70478299 </v>
   <v>       0.63579045       0.11421000       0.70478299 </v>
   <v>       0.63579049       0.61420998       0.70478299 </v>
   <v>       0.36420952       0.38578999       0.70478299 </v>
   <v>       0.36420950       0.88578996       0.70478299 </v>
   <v>       0.86420954       0.38578999       0.70478299 </v>
   <v>       0.86420953       0.88578996       0.70478299 </v>
   <v>       0.11421799       0.36421899       0.70478098 </v>
   <v>       0.11421799       0.86421899       0.70478098 </v>
   <v>       0.61421800       0.36421899       0.70478098 </v>
   <v>       0.61421799       0.86421899       0.70478098 </v>
   <v>       0.38578201       0.13578149       0.70478202 </v>
   <v>       0.38578200       0.63578149       0.70478202 </v>
   <v>       0.88578199       0.13578149       0.70478202 </v>
   <v>       0.88578203       0.63578149       0.70478202 </v>
   <v>       0.13466700       0.11533200       0.80125603 </v>
   <v>       0.13466699       0.61533199       0.80125603 </v>
   <v>       0.63466699       0.11533200       0.80125603 </v>
   <v>       0.63466698       0.61533199       0.80125603 </v>
   <v>       0.36533300       0.38466799       0.80125603 </v>
   <v>       0.36533299       0.88466796       0.80125603 </v>
   <v>       0.86533295       0.38466799       0.80125603 </v>
   <v>       0.86533294       0.88466796       0.80125603 </v>
   <v>       0.11532850       0.36533700       0.80126500 </v>
   <v>       0.11532850       0.86533698       0.80126500 </v>
   <v>       0.61532850       0.36533700       0.80126500 </v>
   <v>       0.61532849       0.86533698       0.80126500 </v>
   <v>       0.38467151       0.13466300       0.80126500 </v>
   <v>       0.38467150       0.63466297       0.80126500 </v>
   <v>       0.88467149       0.13466300       0.80126500 </v>
   <v>       0.88467153       0.63466297       0.80126500 </v>
   <v>       0.99286628       0.00530259       0.60521944 </v>
   <v>       0.00719061       0.50543885       0.60427846 </v>
   <v>       0.50300460       0.00881603       0.60334584 </v>
   <v>       0.49883625       0.50232130       0.60536742 </v>
   <v>       0.25018682       0.25382094       0.60420300 </v>
   <v>       0.24752364       0.75517436       0.60357281 </v>
   <v>       0.74420398       0.25822493       0.60677566 </v>
   <v>       0.74115881       0.75711853       0.60252054 </v>
   <v>       0.00000050       0.00000050       0.70482896 </v>
   <v>       0.00000050       0.50000048       0.70482896 </v>
   <v>       0.50000048       0.00000050       0.70482896 </v>
   <v>       0.50000046       0.50000048       0.70482896 </v>
   <v>       0.24999999       0.24999947       0.70482499 </v>
   <v>       0.25000001       0.74999950       0.70482499 </v>
   <v>       0.74999999       0.24999947       0.70482499 </v>
   <v>       0.74999998       0.74999950       0.70482499 </v>
   <v>       0.00000000       0.00000000       0.80731797 </v>
   <v>       0.00000000       0.50000000       0.80731797 </v>
   <v>       0.50000000       0.00000000       0.80731797 </v>
   <v>       0.49999999       0.50000000       0.80731797 </v>
   <v>       0.24999999       0.25000000       0.80731797 </v>
   <v>       0.25000001       0.74999997       0.80731797 </v>
   <v>       0.74999999       0.25000000       0.80731797 </v>
   <v>       0.74999998       0.74999997       0.80731797 </v>
  </varray>
 </structure>
</modeling>
